Title
42849
    1CHL1    C3    1   3.418   3.498   5.801
    1CHL1    H3    2   3.421   3.389   5.777
    1CHL1    O3    3   3.401   3.497   5.942
    1CHL1   H3'    4   3.475   3.443   5.973
    1CHL1    C4    5   3.540   3.569   5.758
    1CHL1   H4A    6   3.517   3.673   5.791
    1CHL1   H4B    7   3.631   3.538   5.812
    1CHL1    C5    8   3.559   3.577   5.609
    1CHL1    C6    9   3.671   3.532   5.555
    1CHL1    H6   10   3.757   3.497   5.612
    1CHL1    C7   11   3.685   3.529   5.401
    1CHL1   H7A   12   3.781   3.573   5.367
    1CHL1   H7B   13   3.674   3.421   5.376
    1CHL1    C8   14   3.574   3.608   5.324
    1CHL1    H8   15   3.592   3.717   5.338
    1CHL1   C14   16   3.582   3.576   5.176
    1CHL1   H14   17   3.555   3.468   5.169
    1CHL1   C15   18   3.726   3.593   5.105
    1CHL1  H15A   19   3.762   3.688   5.151
    1CHL1  H15B   20   3.806   3.518   5.120
    1CHL1   C16   21   3.689   3.608   4.959
    1CHL1  H16A   22   3.717   3.707   4.919
    1CHL1  H16B   23   3.748   3.535   4.899
    1CHL1   C17   24   3.533   3.605   4.947
    1CHL1   H17   25   3.503   3.499   4.936
    1CHL1   C13   26   3.480   3.648   5.083
    1CHL1   C18   27   3.499   3.801   5.090
    1CHL1  H18A   28   3.417   3.851   5.034
    1CHL1  H18B   29   3.487   3.829   5.197
    1CHL1  H18C   30   3.598   3.845   5.064
    1CHL1   C12   31   3.338   3.615   5.134
    1CHL1  H12A   32   3.261   3.678   5.086
    1CHL1  H12B   33   3.320   3.510   5.104
    1CHL1   C11   34   3.318   3.633   5.281
    1CHL1  H11A   35   3.297   3.742   5.285
    1CHL1  H11B   36   3.223   3.582   5.310
    1CHL1    C9   37   3.433   3.575   5.375
    1CHL1    H9   38   3.433   3.465   5.364
    1CHL1   C10   39   3.430   3.610   5.530
    1CHL1   C19   40   3.429   3.766   5.550
    1CHL1  H19A   41   3.360   3.810   5.475
    1CHL1  H19B   42   3.402   3.793   5.655
    1CHL1  H19C   43   3.527   3.815   5.532
    1CHL1    C1   44   3.301   3.537   5.587
    1CHL1   H1A   45   3.209   3.569   5.533
    1CHL1   H1B   46   3.318   3.428   5.573
    1CHL1    C2   47   3.295   3.564   5.735
    1CHL1   H2A   48   3.208   3.521   5.790
    1CHL1   H2B   49   3.281   3.669   5.768
    1CHL1   C20   50   3.477   3.692   4.827
    1CHL1   H20   51   3.475   3.802   4.844
    1CHL1   C21   52   3.329   3.638   4.804
    1CHL1  H21A   53   3.329   3.541   4.752
    1CHL1  H21B   54   3.282   3.714   4.738
    1CHL1  H21C   55   3.271   3.624   4.898
    1CHL1   C22   56   3.563   3.667   4.703
    1CHL1  H22A   57   3.649   3.737   4.712
    1CHL1  H22B   58   3.604   3.564   4.705
    1CHL1   C23   59   3.511   3.686   4.556
    1CHL1  H23A   60   3.599   3.674   4.489
    1CHL1  H23B   61   3.443   3.600   4.536
    1CHL1   C24   62   3.471   3.834   4.530
    1CHL1  H24A   63   3.376   3.857   4.584
    1CHL1  H24B   64   3.549   3.903   4.568
    1CHL1   C25   65   3.453   3.868   4.383
    1CHL1   H25   66   3.392   3.781   4.351
    1CHL1   C26   67   3.362   3.996   4.372
    1CHL1  H26A   68   3.388   4.085   4.434
    1CHL1  H26B   69   3.347   4.033   4.268
    1CHL1  H26C   70   3.261   3.968   4.410
    1CHL1   C27   71   3.591   3.876   4.320
    1CHL1  H27A   72   3.669   3.805   4.355
    1CHL1  H27B   73   3.595   3.857   4.210
    1CHL1  H27C   74   3.634   3.976   4.340
    2CHL1    C3   75   3.897   3.293   5.772
    2CHL1    H3   76   3.794   3.301   5.730
    2CHL1    O3   77   3.898   3.323   5.907
    2CHL1   H3'   78   3.987   3.359   5.914
    2CHL1    C4   79   3.962   3.157   5.750
    2CHL1   H4A   80   4.064   3.157   5.794
    2CHL1   H4B   81   3.912   3.078   5.811
    2CHL1    C5   82   3.974   3.125   5.598
    2CHL1    C6   83   3.913   3.011   5.553
    2CHL1    H6   84   3.871   2.934   5.618
    2CHL1    C7   85   3.910   2.978   5.404
    2CHL1   H7A   86   3.942   2.873   5.385
    2CHL1   H7B   87   3.807   2.979   5.362
    2CHL1    C8   88   4.005   3.065   5.314
    2CHL1    H8   89   4.098   3.004   5.323
    2CHL1   C14   90   3.954   3.071   5.165
    2CHL1   H14   91   3.856   3.122   5.173
    2CHL1   C15   92   3.925   2.933   5.104
    2CHL1  H15A   93   4.018   2.873   5.104
    2CHL1  H15B   94   3.827   2.893   5.139
    2CHL1   C16   95   3.917   2.965   4.955
    2CHL1  H16A   96   3.991   2.895   4.912
    2CHL1  H16B   97   3.817   2.951   4.909
    2CHL1   C17   98   3.973   3.113   4.938
    2CHL1   H17   99   3.879   3.172   4.952
    2CHL1   C13  100   4.054   3.143   5.074
    2CHL1   C18  101   4.195   3.086   5.074
    2CHL1  H18A  102   4.247   3.137   4.989
    2CHL1  H18B  103   4.259   3.094   5.164
    2CHL1  H18C  104   4.189   2.978   5.049
    2CHL1   C12  105   4.048   3.291   5.113
    2CHL1  H12A  106   4.117   3.357   5.056
    2CHL1  H12B  107   3.945   3.330   5.108
    2CHL1   C11  108   4.093   3.307   5.258
    2CHL1  H11A  109   4.201   3.279   5.267
    2CHL1  H11B  110   4.080   3.412   5.292
    2CHL1    C9  111   4.013   3.211   5.363
    2CHL1    H9  112   3.911   3.250   5.344
    2CHL1   C10  113   4.043   3.236   5.512
    2CHL1   C19  114   4.198   3.234   5.540
    2CHL1  H19A  115   4.218   3.234   5.649
    2CHL1  H19B  116   4.248   3.144   5.498
    2CHL1  H19C  117   4.243   3.324   5.494
    2CHL1    C1  118   3.997   3.373   5.551
    2CHL1   H1A  119   4.046   3.462   5.506
    2CHL1   H1B  120   3.892   3.377   5.515
    2CHL1    C2  121   3.985   3.402   5.701
    2CHL1   H2A  122   3.940   3.501   5.723
    2CHL1   H2B  123   4.082   3.394   5.754
    2CHL1   C20  124   4.043   3.133   4.803
    2CHL1   H20  125   4.128   3.061   4.806
    2CHL1   C21  126   4.100   3.280   4.780
    2CHL1  H21A  127   4.196   3.297   4.833
    2CHL1  H21B  128   4.022   3.356   4.801
    2CHL1  H21C  129   4.134   3.302   4.677
    2CHL1   C22  130   3.951   3.099   4.683
    2CHL1  H22A  131   4.009   3.094   4.589
    2CHL1  H22B  132   3.911   2.996   4.687
    2CHL1   C23  133   3.834   3.194   4.652
    2CHL1  H23A  134   3.745   3.170   4.714
    2CHL1  H23B  135   3.862   3.300   4.669
    2CHL1   C24  136   3.790   3.190   4.501
    2CHL1  H24A  137   3.880   3.232   4.450
    2CHL1  H24B  138   3.781   3.090   4.453
    2CHL1   C25  139   3.674   3.286   4.463
    2CHL1   H25  140   3.712   3.390   4.476
    2CHL1   C26  141   3.636   3.273   4.308
    2CHL1  H26A  142   3.734   3.270   4.255
    2CHL1  H26B  143   3.584   3.179   4.280
    2CHL1  H26C  144   3.590   3.367   4.272
    2CHL1   C27  145   3.537   3.267   4.531
    2CHL1  H27A  146   3.502   3.162   4.522
    2CHL1  H27B  147   3.544   3.291   4.639
    2CHL1  H27C  148   3.477   3.339   4.470
    3CHL1    C3  149   2.498   3.552   6.025
    3CHL1    H3  150   2.486   3.661   6.006
    3CHL1    O3  151   2.506   3.510   6.158
    3CHL1   H3'  152   2.529   3.418   6.142
    3CHL1    C4  153   2.381   3.473   5.967
    3CHL1   H4A  154   2.381   3.367   6.001
    3CHL1   H4B  155   2.290   3.518   6.011
    3CHL1    C5  156   2.374   3.467   5.817
    3CHL1    C6  157   2.261   3.505   5.752
    3CHL1    H6  158   2.182   3.541   5.820
    3CHL1    C7  159   2.241   3.521   5.599
    3CHL1   H7A  160   2.150   3.466   5.567
    3CHL1   H7B  161   2.234   3.629   5.576
    3CHL1    C8  162   2.361   3.452   5.524
    3CHL1    H8  163   2.341   3.343   5.533
    3CHL1   C14  164   2.352   3.505   5.385
    3CHL1   H14  165   2.354   3.615   5.394
    3CHL1   C15  166   2.231   3.475   5.293
    3CHL1  H15A  167   2.203   3.367   5.289
    3CHL1  H15B  168   2.142   3.531   5.332
    3CHL1   C16  169   2.274   3.525   5.158
    3CHL1  H16A  170   2.245   3.452   5.079
    3CHL1  H16B  171   2.234   3.623   5.127
    3CHL1   C17  172   2.429   3.543   5.167
    3CHL1   H17  173   2.432   3.653   5.181
    3CHL1   C13  174   2.473   3.470   5.295
    3CHL1   C18  175   2.482   3.313   5.260
    3CHL1  H18A  176   2.572   3.300   5.196
    3CHL1  H18B  177   2.486   3.250   5.351
    3CHL1  H18C  178   2.391   3.276   5.207
    3CHL1   C12  179   2.605   3.511   5.363
    3CHL1  H12A  180   2.696   3.485   5.305
    3CHL1  H12B  181   2.608   3.622   5.366
    3CHL1   C11  182   2.617   3.451   5.511
    3CHL1  H11A  183   2.619   3.340   5.503
    3CHL1  H11B  184   2.709   3.490   5.559
    3CHL1    C9  185   2.489   3.484   5.594
    3CHL1    H9  186   2.481   3.594   5.603
    3CHL1   C10  187   2.502   3.438   5.741
    3CHL1   C19  188   2.529   3.284   5.742
    3CHL1  H19A  189   2.438   3.235   5.702
    3CHL1  H19B  190   2.614   3.247   5.681
    3CHL1  H19C  191   2.535   3.250   5.848
    3CHL1    C1  192   2.624   3.522   5.804
    3CHL1   H1A  193   2.723   3.486   5.769
    3CHL1   H1B  194   2.626   3.631   5.783
    3CHL1    C2  195   2.625   3.504   5.958
    3CHL1   H2A  196   2.717   3.562   5.982
    3CHL1   H2B  197   2.656   3.397   5.967
    3CHL1   C20  198   2.500   3.505   5.037
    3CHL1   H20  199   2.518   3.398   5.013
    3CHL1   C21  200   2.634   3.559   5.037
    3CHL1  H21A  201   2.697   3.492   5.099
    3CHL1  H21B  202   2.652   3.662   5.074
    3CHL1  H21C  203   2.675   3.567   4.934
    3CHL1   C22  204   2.421   3.556   4.910
    3CHL1  H22A  205   2.479   3.513   4.825
    3CHL1  H22B  206   2.323   3.510   4.890
    3CHL1   C23  207   2.403   3.707   4.893
    3CHL1  H23A  208   2.313   3.733   4.953
    3CHL1  H23B  209   2.489   3.767   4.929
    3CHL1   C24  210   2.376   3.750   4.746
    3CHL1  H24A  211   2.289   3.696   4.704
    3CHL1  H24B  212   2.353   3.859   4.745
    3CHL1   C25  213   2.498   3.738   4.650
    3CHL1   H25  214   2.533   3.633   4.638
    3CHL1   C26  215   2.450   3.779   4.508
    3CHL1  H26A  216   2.364   3.710   4.495
    3CHL1  H26B  217   2.427   3.887   4.523
    3CHL1  H26C  218   2.531   3.767   4.433
    3CHL1   C27  219   2.606   3.831   4.701
    3CHL1  H27A  220   2.646   3.784   4.793
    3CHL1  H27B  221   2.683   3.846   4.622
    3CHL1  H27C  222   2.561   3.929   4.725
    4CHL1    C3  223   2.360   3.976   5.938
    4CHL1    H3  224   2.300   4.069   5.952
    4CHL1    O3  225   2.366   3.910   6.063
    4CHL1   H3'  226   2.431   3.963   6.110
    4CHL1    C4  227   2.297   3.881   5.829
    4CHL1   H4A  228   2.326   3.774   5.831
    4CHL1   H4B  229   2.192   3.884   5.867
    4CHL1    C5  230   2.302   3.935   5.682
    4CHL1    C6  231   2.196   3.937   5.596
    4CHL1    H6  232   2.103   3.895   5.638
    4CHL1    C7  233   2.192   3.976   5.451
    4CHL1   H7A  234   2.157   3.882   5.402
    4CHL1   H7B  235   2.119   4.046   5.406
    4CHL1    C8  236   2.332   4.015   5.402
    4CHL1    H8  237   2.383   3.920   5.373
    4CHL1   C14  238   2.327   4.107   5.284
    4CHL1   H14  239   2.300   4.210   5.316
    4CHL1   C15  240   2.238   4.075   5.167
    4CHL1  H15A  241   2.253   3.971   5.132
    4CHL1  H15B  242   2.135   4.101   5.198
    4CHL1   C16  243   2.275   4.182   5.054
    4CHL1  H16A  244   2.299   4.126   4.961
    4CHL1  H16B  245   2.199   4.259   5.028
    4CHL1   C17  246   2.414   4.243   5.103
    4CHL1   H17  247   2.393   4.334   5.164
    4CHL1   C13  248   2.467   4.142   5.217
    4CHL1   C18  249   2.543   4.030   5.149
    4CHL1  H18A  250   2.635   4.076   5.106
    4CHL1  H18B  251   2.566   3.948   5.220
    4CHL1  H18C  252   2.482   3.992   5.065
    4CHL1   C12  253   2.551   4.215   5.323
    4CHL1  H12A  254   2.654   4.233   5.285
    4CHL1  H12B  255   2.513   4.315   5.352
    4CHL1   C11  256   2.557   4.113   5.445
    4CHL1  H11A  257   2.603   4.016   5.419
    4CHL1  H11B  258   2.629   4.155   5.518
    4CHL1    C9  259   2.417   4.081   5.513
    4CHL1    H9  260   2.377   4.180   5.545
    4CHL1   C10  261   2.438   3.995   5.639
    4CHL1   C19  262   2.545   3.888   5.612
    4CHL1  H19A  263   2.638   3.948   5.604
    4CHL1  H19B  264   2.564   3.820   5.698
    4CHL1  H19C  265   2.533   3.838   5.514
    4CHL1    C1  266   2.489   4.093   5.749
    4CHL1   H1A  267   2.583   4.140   5.713
    4CHL1   H1B  268   2.411   4.172   5.752
    4CHL1    C2  269   2.501   4.022   5.893
    4CHL1   H2A  270   2.555   4.092   5.961
    4CHL1   H2B  271   2.566   3.933   5.889
    4CHL1   C20  272   2.507   4.303   4.993
    4CHL1   H20  273   2.552   4.216   4.940
    4CHL1   C21  274   2.624   4.391   5.056
    4CHL1  H21A  275   2.688   4.451   4.988
    4CHL1  H21B  276   2.686   4.307   5.094
    4CHL1  H21C  277   2.589   4.452   5.142
    4CHL1   C22  278   2.424   4.379   4.891
    4CHL1  H22A  279   2.340   4.322   4.845
    4CHL1  H22B  280   2.397   4.478   4.932
    4CHL1   C23  281   2.510   4.414   4.763
    4CHL1  H23A  282   2.593   4.482   4.793
    4CHL1  H23B  283   2.556   4.322   4.721
    4CHL1   C24  284   2.418   4.470   4.647
    4CHL1  H24A  285   2.327   4.407   4.643
    4CHL1  H24B  286   2.394   4.575   4.674
    4CHL1   C25  287   2.493   4.487   4.509
    4CHL1   H25  288   2.584   4.551   4.519
    4CHL1   C26  289   2.515   4.353   4.436
    4CHL1  H26A  290   2.554   4.280   4.509
    4CHL1  H26B  291   2.420   4.305   4.402
    4CHL1  H26C  292   2.572   4.362   4.341
    4CHL1   C27  293   2.394   4.558   4.416
    4CHL1  H27A  294   2.337   4.629   4.479
    4CHL1  H27B  295   2.442   4.625   4.342
    4CHL1  H27C  296   2.322   4.489   4.367
    5CHL1    C3  297   2.854   3.842   5.927
    5CHL1    H3  298   2.744   3.838   5.911
    5CHL1    O3  299   2.870   3.808   6.061
    5CHL1   H3'  300   2.887   3.889   6.110
    5CHL1    C4  301   2.948   3.745   5.845
    5CHL1   H4A  302   3.054   3.755   5.876
    5CHL1   H4B  303   2.925   3.637   5.857
    5CHL1    C5  304   2.941   3.783   5.697
    5CHL1    C6  305   2.913   3.696   5.600
    5CHL1    H6  306   2.907   3.591   5.632
    5CHL1    C7  307   2.915   3.731   5.447
    5CHL1   H7A  308   2.967   3.661   5.379
    5CHL1   H7B  309   2.812   3.747   5.408
    5CHL1    C8  310   2.979   3.869   5.422
    5CHL1    H8  311   3.090   3.856   5.423
    5CHL1   C14  312   2.939   3.920   5.287
    5CHL1   H14  313   2.834   3.952   5.302
    5CHL1   C15  314   2.955   3.829   5.167
    5CHL1  H15A  315   3.045   3.765   5.179
    5CHL1  H15B  316   2.864   3.766   5.166
    5CHL1   C16  317   2.970   3.923   5.047
    5CHL1  H16A  318   3.065   3.909   4.992
    5CHL1  H16B  319   2.888   3.907   4.974
    5CHL1   C17  320   2.958   4.070   5.104
    5CHL1   H17  321   2.852   4.100   5.095
    5CHL1   C13  322   3.002   4.056   5.251
    5CHL1   C18  323   3.161   4.046   5.249
    5CHL1  H18A  324   3.211   3.979   5.176
    5CHL1  H18B  325   3.190   4.151   5.231
    5CHL1  H18C  326   3.211   4.018   5.344
    5CHL1   C12  327   2.966   4.162   5.350
    5CHL1  H12A  328   3.012   4.261   5.326
    5CHL1  H12B  329   2.856   4.177   5.343
    5CHL1   C11  330   3.004   4.117   5.493
    5CHL1  H11A  331   3.114   4.101   5.495
    5CHL1  H11B  332   2.972   4.200   5.561
    5CHL1    C9  333   2.946   3.976   5.532
    5CHL1    H9  334   2.836   3.990   5.529
    5CHL1   C10  335   2.977   3.932   5.672
    5CHL1   C19  336   3.133   3.937   5.689
    5CHL1  H19A  337   3.169   3.906   5.790
    5CHL1  H19B  338   3.191   3.874   5.618
    5CHL1  H19C  339   3.159   4.044   5.695
    5CHL1    C1  340   2.898   4.026   5.771
    5CHL1   H1A  341   2.927   4.133   5.765
    5CHL1   H1B  342   2.790   4.027   5.745
    5CHL1    C2  343   2.906   3.983   5.916
    5CHL1   H2A  344   2.860   4.052   5.990
    5CHL1   H2B  345   3.011   3.988   5.951
    5CHL1   C20  346   3.031   4.163   5.007
    5CHL1   H20  347   3.140   4.141   5.000
    5CHL1   C21  348   3.037   4.309   5.062
    5CHL1  H21A  349   3.126   4.334   5.124
    5CHL1  H21B  350   2.945   4.320   5.124
    5CHL1  H21C  351   3.037   4.383   4.979
    5CHL1   C22  352   2.978   4.170   4.862
    5CHL1  H22A  353   2.957   4.065   4.834
    5CHL1  H22B  354   2.876   4.213   4.861
    5CHL1   C23  355   3.084   4.221   4.760
    5CHL1  H23A  356   3.076   4.332   4.752
    5CHL1  H23B  357   3.186   4.190   4.793
    5CHL1   C24  358   3.051   4.152   4.620
    5CHL1  H24A  359   3.135   4.177   4.552
    5CHL1  H24B  360   3.044   4.043   4.642
    5CHL1   C25  361   2.926   4.198   4.549
    5CHL1   H25  362   2.843   4.176   4.619
    5CHL1   C26  363   2.937   4.345   4.516
    5CHL1  H26A  364   2.933   4.402   4.611
    5CHL1  H26B  365   3.039   4.360   4.474
    5CHL1  H26C  366   2.857   4.385   4.451
    5CHL1   C27  367   2.897   4.115   4.428
    5CHL1  H27A  368   2.809   4.164   4.380
    5CHL1  H27B  369   2.987   4.117   4.363
    5CHL1  H27C  370   2.871   4.011   4.455
    6CHL1    C3  371   3.629   2.626   5.760
    6CHL1    H3  372   3.687   2.721   5.752
    6CHL1    O3  373   3.576   2.616   5.888
    6CHL1   H3'  374   3.651   2.651   5.938
    6CHL1    C4  375   3.514   2.626   5.659
    6CHL1   H4A  376   3.457   2.532   5.672
    6CHL1   H4B  377   3.452   2.713   5.689
    6CHL1    C5  378   3.568   2.629   5.513
    6CHL1    C6  379   3.529   2.731   5.434
    6CHL1    H6  380   3.466   2.808   5.482
    6CHL1    C7  381   3.566   2.740   5.287
    6CHL1   H7A  382   3.468   2.755   5.236
    6CHL1   H7B  383   3.627   2.829   5.260
    6CHL1    C8  384   3.621   2.599   5.233
    6CHL1    H8  385   3.537   2.526   5.222
    6CHL1   C14  386   3.683   2.618   5.100
    6CHL1   H14  387   3.769   2.688   5.109
    6CHL1   C15  388   3.605   2.682   4.988
    6CHL1  H15A  389   3.505   2.633   4.981
    6CHL1  H15B  390   3.587   2.791   5.000
    6CHL1   C16  391   3.688   2.656   4.866
    6CHL1  H16A  392   3.626   2.602   4.792
    6CHL1  H16B  393   3.731   2.750   4.826
    6CHL1   C17  394   3.797   2.554   4.906
    6CHL1   H17  395   3.891   2.612   4.922
    6CHL1   C13  396   3.755   2.495   5.041
    6CHL1   C18  397   3.645   2.383   5.021
    6CHL1  H18A  398   3.679   2.299   4.957
    6CHL1  H18B  399   3.607   2.338   5.115
    6CHL1  H18C  400   3.558   2.419   4.962
    6CHL1   C12  401   3.870   2.464   5.135
    6CHL1  H12A  402   3.914   2.367   5.104
    6CHL1  H12B  403   3.941   2.549   5.132
    6CHL1   C11  404   3.818   2.439   5.287
    6CHL1  H11A  405   3.760   2.345   5.282
    6CHL1  H11B  406   3.906   2.420   5.353
    6CHL1    C9  407   3.724   2.553   5.337
    6CHL1    H9  408   3.779   2.649   5.339
    6CHL1   C10  409   3.671   2.527   5.478
    6CHL1   C19  410   3.616   2.378   5.488
    6CHL1  H19A  411   3.576   2.356   5.589
    6CHL1  H19B  412   3.535   2.364   5.412
    6CHL1  H19C  413   3.688   2.295   5.471
    6CHL1    C1  414   3.774   2.540   5.586
    6CHL1   H1A  415   3.855   2.465   5.575
    6CHL1   H1B  416   3.819   2.642   5.578
    6CHL1    C2  417   3.732   2.525   5.734
    6CHL1   H2A  418   3.822   2.524   5.799
    6CHL1   H2B  419   3.688   2.424   5.750
    6CHL1   C20  420   3.835   2.448   4.794
    6CHL1   H20  421   3.745   2.390   4.766
    6CHL1   C21  422   3.952   2.367   4.844
    6CHL1  H21A  423   3.984   2.294   4.766
    6CHL1  H21B  424   3.912   2.303   4.926
    6CHL1  H21C  425   4.045   2.424   4.862
    6CHL1   C22  426   3.885   2.499   4.659
    6CHL1  H22A  427   3.811   2.572   4.619
    6CHL1  H22B  428   3.981   2.553   4.674
    6CHL1   C23  429   3.898   2.392   4.551
    6CHL1  H23A  430   3.983   2.325   4.576
    6CHL1  H23B  431   3.802   2.336   4.539
    6CHL1   C24  432   3.912   2.456   4.411
    6CHL1  H24A  433   3.817   2.514   4.407
    6CHL1  H24B  434   4.002   2.520   4.406
    6CHL1   C25  435   3.921   2.358   4.294
    6CHL1   H25  436   4.002   2.283   4.309
    6CHL1   C26  437   3.783   2.282   4.274
    6CHL1  H26A  438   3.760   2.225   4.366
    6CHL1  H26B  439   3.699   2.349   4.244
    6CHL1  H26C  440   3.795   2.207   4.194
    6CHL1   C27  441   3.968   2.427   4.157
    6CHL1  H27A  442   3.886   2.499   4.134
    6CHL1  H27B  443   4.059   2.484   4.184
    6CHL1  H27C  444   3.978   2.352   4.075
    7CHL1    C3  445   1.789   2.148   5.738
    7CHL1    H3  446   1.804   2.039   5.720
    7CHL1    O3  447   1.794   2.178   5.879
    7CHL1   H3'  448   1.792   2.274   5.890
    7CHL1    C4  449   1.907   2.223   5.655
    7CHL1   H4A  450   1.907   2.332   5.676
    7CHL1   H4B  451   1.994   2.173   5.703
    7CHL1    C5  452   1.890   2.191   5.512
    7CHL1    C6  453   1.983   2.129   5.442
    7CHL1    H6  454   2.079   2.101   5.486
    7CHL1    C7  455   1.978   2.115   5.288
    7CHL1   H7A  456   2.076   2.140   5.241
    7CHL1   H7B  457   1.964   2.010   5.258
    7CHL1    C8  458   1.875   2.198   5.219
    7CHL1    H8  459   1.903   2.305   5.211
    7CHL1   C14  460   1.842   2.141   5.081
    7CHL1   H14  461   1.794   2.043   5.101
    7CHL1   C15  462   1.965   2.124   4.989
    7CHL1  H15A  463   2.030   2.213   5.003
    7CHL1  H15B  464   2.018   2.027   5.004
    7CHL1   C16  465   1.901   2.130   4.845
    7CHL1  H16A  466   1.951   2.205   4.780
    7CHL1  H16B  467   1.912   2.032   4.792
    7CHL1   C17  468   1.748   2.144   4.869
    7CHL1   H17  469   1.723   2.037   4.883
    7CHL1   C13  470   1.736   2.214   5.011
    7CHL1   C18  471   1.772   2.363   4.989
    7CHL1  H18A  472   1.688   2.414   4.938
    7CHL1  H18B  473   1.790   2.420   5.083
    7CHL1  H18C  474   1.857   2.391   4.924
    7CHL1   C12  475   1.606   2.194   5.093
    7CHL1  H12A  476   1.518   2.245   5.049
    7CHL1  H12B  477   1.594   2.084   5.110
    7CHL1   C11  478   1.614   2.250   5.233
    7CHL1  H11A  479   1.617   2.361   5.232
    7CHL1  H11B  480   1.517   2.237   5.286
    7CHL1    C9  481   1.738   2.198   5.307
    7CHL1    H9  482   1.702   2.093   5.320
    7CHL1   C10  483   1.758   2.241   5.455
    7CHL1   C19  484   1.766   2.395   5.459
    7CHL1  H19A  485   1.661   2.427   5.443
    7CHL1  H19B  486   1.801   2.445   5.551
    7CHL1  H19C  487   1.838   2.432   5.383
    7CHL1    C1  488   1.638   2.174   5.537
    7CHL1   H1A  489   1.540   2.223   5.514
    7CHL1   H1B  490   1.623   2.070   5.502
    7CHL1    C2  491   1.656   2.190   5.690
    7CHL1   H2A  492   1.576   2.132   5.740
    7CHL1   H2B  493   1.629   2.296   5.706
    7CHL1   C20  494   1.673   2.203   4.750
    7CHL1   H20  495   1.712   2.303   4.722
    7CHL1   C21  496   1.522   2.208   4.767
    7CHL1  H21A  497   1.488   2.120   4.827
    7CHL1  H21B  498   1.467   2.208   4.671
    7CHL1  H21C  499   1.503   2.301   4.824
    7CHL1   C22  500   1.700   2.117   4.613
    7CHL1  H22A  501   1.637   2.172   4.539
    7CHL1  H22B  502   1.804   2.136   4.581
    7CHL1   C23  503   1.664   1.971   4.628
    7CHL1  H23A  504   1.749   1.925   4.683
    7CHL1  H23B  505   1.567   1.960   4.681
    7CHL1   C24  506   1.647   1.899   4.491
    7CHL1  H24A  507   1.629   1.790   4.500
    7CHL1  H24B  508   1.560   1.946   4.441
    7CHL1   C25  509   1.774   1.913   4.397
    7CHL1   H25  510   1.797   2.020   4.376
    7CHL1   C26  511   1.897   1.850   4.468
    7CHL1  H26A  512   1.956   1.933   4.512
    7CHL1  H26B  513   1.870   1.792   4.559
    7CHL1  H26C  514   1.958   1.797   4.392
    7CHL1   C27  515   1.729   1.843   4.269
    7CHL1  H27A  516   1.811   1.857   4.195
    7CHL1  H27B  517   1.714   1.733   4.278
    7CHL1  H27C  518   1.639   1.889   4.224
    8CHL1    C3  519   3.534   4.210   6.030
    8CHL1    H3  520   3.539   4.319   6.048
    8CHL1    O3  521   3.550   4.148   6.153
    8CHL1   H3'  522   3.645   4.137   6.167
    8CHL1    C4  523   3.409   4.168   5.963
    8CHL1   H4A  524   3.401   4.058   5.951
    8CHL1   H4B  525   3.326   4.195   6.032
    8CHL1    C5  526   3.386   4.231   5.828
    8CHL1    C6  527   3.280   4.305   5.801
    8CHL1    H6  528   3.202   4.318   5.878
    8CHL1    C7  529   3.262   4.375   5.670
    8CHL1   H7A  530   3.155   4.373   5.641
    8CHL1   H7B  531   3.274   4.484   5.690
    8CHL1    C8  532   3.356   4.339   5.555
    8CHL1    H8  533   3.312   4.257   5.494
    8CHL1   C14  534   3.371   4.464   5.461
    8CHL1   H14  535   3.424   4.540   5.523
    8CHL1   C15  536   3.239   4.523   5.406
    8CHL1  H15A  537   3.169   4.438   5.386
    8CHL1  H15B  538   3.189   4.592   5.476
    8CHL1   C16  539   3.288   4.597   5.276
    8CHL1  H16A  540   3.236   4.554   5.187
    8CHL1  H16B  541   3.279   4.707   5.277
    8CHL1   C17  542   3.440   4.568   5.267
    8CHL1   H17  543   3.487   4.654   5.319
    8CHL1   C13  544   3.459   4.440   5.338
    8CHL1   C18  545   3.406   4.325   5.247
    8CHL1  H18A  546   3.483   4.313   5.168
    8CHL1  H18B  547   3.399   4.227   5.298
    8CHL1  H18C  548   3.311   4.356   5.198
    8CHL1   C12  549   3.598   4.398   5.385
    8CHL1  H12A  550   3.662   4.372   5.298
    8CHL1  H12B  551   3.658   4.480   5.430
    8CHL1   C11  552   3.598   4.276   5.481
    8CHL1  H11A  553   3.572   4.190   5.416
    8CHL1  H11B  554   3.704   4.259   5.511
    8CHL1    C9  555   3.496   4.298   5.598
    8CHL1    H9  556   3.528   4.395   5.640
    8CHL1   C10  557   3.500   4.209   5.721
    8CHL1   C19  558   3.507   4.061   5.668
    8CHL1  H19A  559   3.605   4.043   5.619
    8CHL1  H19B  560   3.509   3.986   5.750
    8CHL1  H19C  561   3.436   4.026   5.590
    8CHL1    C1  562   3.635   4.238   5.804
    8CHL1   H1A  563   3.720   4.218   5.735
    8CHL1   H1B  564   3.654   4.342   5.838
    8CHL1    C2  565   3.647   4.167   5.942
    8CHL1   H2A  566   3.746   4.185   5.990
    8CHL1   H2B  567   3.641   4.057   5.926
    8CHL1   C20  568   3.499   4.589   5.123
    8CHL1   H20  569   3.484   4.500   5.058
    8CHL1   C21  570   3.657   4.605   5.132
    8CHL1  H21A  571   3.683   4.500   5.155
    8CHL1  H21B  572   3.687   4.684   5.204
    8CHL1  H21C  573   3.699   4.623   5.030
    8CHL1   C22  574   3.449   4.721   5.060
    8CHL1  H22A  575   3.338   4.717   5.067
    8CHL1  H22B  576   3.491   4.802   5.122
    8CHL1   C23  577   3.468   4.729   4.907
    8CHL1  H23A  578   3.578   4.710   4.902
    8CHL1  H23B  579   3.409   4.652   4.853
    8CHL1   C24  580   3.435   4.873   4.849
    8CHL1  H24A  581   3.339   4.893   4.902
    8CHL1  H24B  582   3.518   4.941   4.877
    8CHL1   C25  583   3.404   4.888   4.700
    8CHL1   H25  584   3.323   4.818   4.669
    8CHL1   C26  585   3.390   5.037   4.664
    8CHL1  H26A  586   3.297   5.078   4.710
    8CHL1  H26B  587   3.473   5.097   4.706
    8CHL1  H26C  588   3.396   5.052   4.554
    8CHL1   C27  589   3.519   4.831   4.613
    8CHL1  H27A  590   3.540   4.725   4.636
    8CHL1  H27B  591   3.506   4.833   4.503
    8CHL1  H27C  592   3.614   4.888   4.626
    9CHL1    C3  593   5.072   3.984   5.866
    9CHL1    H3  594   4.965   3.998   5.893
    9CHL1    O3  595   5.146   3.982   5.987
    9CHL1   H3'  596   5.118   3.907   6.039
    9CHL1    C4  597   5.095   3.850   5.791
    9CHL1   H4A  598   5.204   3.832   5.787
    9CHL1   H4B  599   5.064   3.764   5.855
    9CHL1    C5  600   5.029   3.838   5.656
    9CHL1    C6  601   4.941   3.737   5.631
    9CHL1    H6  602   4.910   3.659   5.701
    9CHL1    C7  603   4.873   3.733   5.499
    9CHL1   H7A  604   4.891   3.632   5.455
    9CHL1   H7B  605   4.764   3.746   5.515
    9CHL1    C8  606   4.919   3.831   5.391
    9CHL1    H8  607   5.019   3.796   5.358
    9CHL1   C14  608   4.826   3.848   5.277
    9CHL1   H14  609   4.734   3.889   5.324
    9CHL1   C15  610   4.775   3.720   5.199
    9CHL1  H15A  611   4.859   3.655   5.170
    9CHL1  H15B  612   4.721   3.657   5.273
    9CHL1   C16  613   4.699   3.783   5.082
    9CHL1  H16A  614   4.737   3.740   4.987
    9CHL1  H16B  615   4.588   3.776   5.086
    9CHL1   C17  616   4.733   3.933   5.078
    9CHL1   H17  617   4.651   3.987   5.131
    9CHL1   C13  618   4.856   3.952   5.168
    9CHL1   C18  619   4.987   3.922   5.090
    9CHL1  H18A  620   4.977   3.825   5.037
    9CHL1  H18B  621   5.005   4.009   5.023
    9CHL1  H18C  622   5.076   3.910   5.155
    9CHL1   C12  623   4.869   4.086   5.238
    9CHL1  H12A  624   4.889   4.167   5.165
    9CHL1  H12B  625   4.763   4.110   5.264
    9CHL1   C11  626   4.958   4.085   5.362
    9CHL1  H11A  627   5.062   4.094   5.322
    9CHL1  H11B  628   4.956   4.179   5.420
    9CHL1    C9  629   4.947   3.968   5.458
    9CHL1    H9  630   4.853   3.985   5.515
    9CHL1   C10  631   5.055   3.958   5.559
    9CHL1   C19  632   5.198   3.943   5.500
    9CHL1  H19A  633   5.218   3.838   5.469
    9CHL1  H19B  634   5.217   4.008   5.411
    9CHL1  H19C  635   5.281   3.962   5.572
    9CHL1    C1  636   5.057   4.090   5.640
    9CHL1   H1A  637   5.108   4.169   5.580
    9CHL1   H1B  638   4.952   4.123   5.657
    9CHL1    C2  639   5.112   4.098   5.782
    9CHL1   H2A  640   5.084   4.192   5.834
    9CHL1   H2B  641   5.222   4.099   5.773
    9CHL1   C20  642   4.733   3.978   4.933
    9CHL1   H20  643   4.815   3.927   4.879
    9CHL1   C21  644   4.753   4.129   4.924
    9CHL1  H21A  645   4.842   4.170   4.977
    9CHL1  H21B  646   4.670   4.190   4.968
    9CHL1  H21C  647   4.772   4.158   4.819
    9CHL1   C22  648   4.604   3.934   4.866
    9CHL1  H22A  649   4.608   3.825   4.845
    9CHL1  H22B  650   4.510   3.954   4.922
    9CHL1   C23  651   4.588   3.987   4.723
    9CHL1  H23A  652   4.578   4.097   4.737
    9CHL1  H23B  653   4.680   3.966   4.664
    9CHL1   C24  654   4.464   3.933   4.662
    9CHL1  H24A  655   4.397   3.884   4.736
    9CHL1  H24B  656   4.402   4.014   4.618
    9CHL1   C25  657   4.505   3.827   4.554
    9CHL1   H25  658   4.565   3.745   4.599
    9CHL1   C26  659   4.379   3.761   4.509
    9CHL1  H26A  660   4.336   3.689   4.581
    9CHL1  H26B  661   4.295   3.834   4.499
    9CHL1  H26C  662   4.387   3.703   4.414
    9CHL1   C27  663   4.580   3.875   4.423
    9CHL1  H27A  664   4.678   3.924   4.444
    9CHL1  H27B  665   4.625   3.796   4.360
    9CHL1  H27C  666   4.507   3.942   4.374
   10CHL1    C3  667   1.350   3.670   5.841
   10CHL1    H3  668   1.456   3.659   5.813
   10CHL1    O3  669   1.328   3.636   5.980
   10CHL1   H3'  670   1.288   3.708   6.030
   10CHL1    C4  671   1.299   3.812   5.827
   10CHL1   H4A  672   1.193   3.820   5.859
   10CHL1   H4B  673   1.349   3.881   5.899
   10CHL1    C5  674   1.292   3.860   5.687
   10CHL1    C6  675   1.340   3.982   5.664
   10CHL1    H6  676   1.394   4.022   5.752
   10CHL1    C7  677   1.368   4.051   5.534
   10CHL1   H7A  678   1.329   4.153   5.513
   10CHL1   H7B  679   1.477   4.054   5.510
   10CHL1    C8  680   1.294   3.970   5.426
   10CHL1    H8  681   1.188   4.001   5.416
   10CHL1   C14  682   1.348   4.003   5.287
   10CHL1   H14  683   1.451   3.963   5.281
   10CHL1   C15  684   1.357   4.151   5.248
   10CHL1  H15A  685   1.271   4.211   5.284
   10CHL1  H15B  686   1.441   4.211   5.289
   10CHL1   C16  687   1.356   4.150   5.097
   10CHL1  H16A  688   1.267   4.211   5.073
   10CHL1  H16B  689   1.444   4.188   5.041
   10CHL1   C17  690   1.327   4.000   5.046
   10CHL1   H17  691   1.425   3.949   5.035
   10CHL1   C13  692   1.263   3.932   5.171
   10CHL1   C18  693   1.104   3.968   5.179
   10CHL1  H18A  694   1.058   3.938   5.083
   10CHL1  H18B  695   1.049   3.924   5.265
   10CHL1  H18C  696   1.088   4.078   5.183
   10CHL1   C12  697   1.282   3.779   5.183
   10CHL1  H12A  698   1.220   3.726   5.108
   10CHL1  H12B  699   1.391   3.762   5.166
   10CHL1   C11  700   1.248   3.732   5.326
   10CHL1  H11A  701   1.138   3.727   5.320
   10CHL1  H11B  702   1.278   3.626   5.340
   10CHL1    C9  703   1.300   3.812   5.440
   10CHL1    H9  704   1.409   3.790   5.447
   10CHL1   C10  705   1.249   3.763   5.573
   10CHL1   C19  706   1.089   3.779   5.574
   10CHL1  H19A  707   1.064   3.887   5.571
   10CHL1  H19B  708   1.041   3.719   5.494
   10CHL1  H19C  709   1.055   3.738   5.671
   10CHL1    C1  710   1.290   3.616   5.596
   10CHL1   H1A  711   1.211   3.556   5.547
   10CHL1   H1B  712   1.395   3.594   5.566
   10CHL1    C2  713   1.266   3.579   5.749
   10CHL1   H2A  714   1.296   3.474   5.766
   10CHL1   H2B  715   1.157   3.597   5.763
   10CHL1   C20  716   1.252   3.996   4.912
   10CHL1   H20  717   1.148   4.033   4.929
   10CHL1   C21  718   1.242   3.853   4.867
   10CHL1  H21A  719   1.174   3.786   4.922
   10CHL1  H21B  720   1.343   3.807   4.877
   10CHL1  H21C  721   1.214   3.848   4.759
   10CHL1   C22  722   1.319   4.084   4.803
   10CHL1  H22A  723   1.259   4.065   4.712
   10CHL1  H22B  724   1.315   4.191   4.831
   10CHL1   C23  725   1.460   4.056   4.763
   10CHL1  H23A  726   1.521   4.088   4.851
   10CHL1  H23B  727   1.470   3.946   4.771
   10CHL1   C24  728   1.486   4.128   4.629
   10CHL1  H24A  729   1.573   4.078   4.581
   10CHL1  H24B  730   1.411   4.110   4.549
   10CHL1   C25  731   1.504   4.287   4.636
   10CHL1   H25  732   1.418   4.335   4.687
   10CHL1   C26  733   1.627   4.318   4.717
   10CHL1  H26A  734   1.633   4.429   4.726
   10CHL1  H26B  735   1.607   4.278   4.819
   10CHL1  H26C  736   1.724   4.286   4.674
   10CHL1   C27  737   1.512   4.360   4.499
   10CHL1  H27A  738   1.427   4.336   4.432
   10CHL1  H27B  739   1.511   4.470   4.512
   10CHL1  H27C  740   1.602   4.324   4.444
   11CHL1    C3  741   5.907   3.862   5.734
   11CHL1    H3  742   6.008   3.862   5.688
   11CHL1    O3  743   5.910   3.906   5.872
   11CHL1   H3'  744   5.848   3.978   5.877
   11CHL1    C4  745   5.805   3.952   5.648
   11CHL1   H4A  746   5.712   3.941   5.708
   11CHL1   H4B  747   5.848   4.054   5.662
   11CHL1    C5  748   5.777   3.913   5.499
   11CHL1    C6  749   5.790   3.996   5.401
   11CHL1    H6  750   5.814   4.102   5.416
   11CHL1    C7  751   5.769   3.955   5.261
   11CHL1   H7A  752   5.714   4.032   5.203
   11CHL1   H7B  753   5.868   3.941   5.214
   11CHL1    C8  754   5.691   3.821   5.246
   11CHL1    H8  755   5.587   3.847   5.272
   11CHL1   C14  756   5.699   3.771   5.103
   11CHL1   H14  757   5.806   3.762   5.076
   11CHL1   C15  758   5.653   3.875   5.002
   11CHL1  H15A  759   5.561   3.922   5.043
   11CHL1  H15B  760   5.743   3.938   4.984
   11CHL1   C16  761   5.616   3.792   4.878
   11CHL1  H16A  762   5.512   3.814   4.845
   11CHL1  H16B  763   5.682   3.810   4.791
   11CHL1   C17  764   5.626   3.638   4.917
   11CHL1   H17  765   5.728   3.600   4.895
   11CHL1   C13  766   5.620   3.638   5.073
   11CHL1   C18  767   5.467   3.665   5.111
   11CHL1  H18A  768   5.466   3.686   5.220
   11CHL1  H18B  769   5.423   3.760   5.072
   11CHL1  H18C  770   5.402   3.577   5.091
   11CHL1   C12  771   5.683   3.532   5.157
   11CHL1  H12A  772   5.625   3.438   5.148
   11CHL1  H12B  773   5.786   3.508   5.121
   11CHL1   C11  774   5.697   3.567   5.311
   11CHL1  H11A  775   5.596   3.540   5.351
   11CHL1  H11B  776   5.763   3.491   5.358
   11CHL1    C9  777   5.744   3.711   5.340
   11CHL1    H9  778   5.852   3.698   5.318
   11CHL1   C10  779   5.741   3.762   5.485
   11CHL1   C19  780   5.597   3.752   5.541
   11CHL1  H19A  781   5.518   3.817   5.498
   11CHL1  H19B  782   5.565   3.648   5.516
   11CHL1  H19C  783   5.584   3.755   5.651
   11CHL1    C1  784   5.833   3.672   5.578
   11CHL1   H1A  785   5.788   3.571   5.589
   11CHL1   H1B  786   5.930   3.662   5.524
   11CHL1    C2  787   5.854   3.716   5.724
   11CHL1   H2A  788   5.941   3.658   5.762
   11CHL1   H2B  789   5.764   3.686   5.783
   11CHL1   C20  790   5.518   3.556   4.845
   11CHL1   H20  791   5.415   3.582   4.877
   11CHL1   C21  792   5.534   3.412   4.881
   11CHL1  H21A  793   5.469   3.338   4.829
   11CHL1  H21B  794   5.503   3.399   4.987
   11CHL1  H21C  795   5.643   3.390   4.871
   11CHL1   C22  796   5.516   3.565   4.689
   11CHL1  H22A  797   5.433   3.505   4.647
   11CHL1  H22B  798   5.486   3.668   4.661
   11CHL1   C23  799   5.652   3.542   4.630
   11CHL1  H23A  800   5.724   3.626   4.636
   11CHL1  H23B  801   5.695   3.452   4.679
   11CHL1   C24  802   5.654   3.510   4.481
   11CHL1  H24A  803   5.589   3.422   4.463
   11CHL1  H24B  804   5.614   3.597   4.425
   11CHL1   C25  805   5.789   3.474   4.424
   11CHL1   H25  806   5.840   3.413   4.502
   11CHL1   C26  807   5.762   3.390   4.295
   11CHL1  H26A  808   5.706   3.298   4.322
   11CHL1  H26B  809   5.705   3.449   4.219
   11CHL1  H26C  810   5.859   3.352   4.257
   11CHL1   C27  811   5.877   3.601   4.413
   11CHL1  H27A  812   5.963   3.586   4.345
   11CHL1  H27B  813   5.812   3.682   4.376
   11CHL1  H27C  814   5.915   3.619   4.516
   12CHL1    C3  815   5.098   3.016   5.785
   12CHL1    H3  816   5.037   3.109   5.778
   12CHL1    O3  817   5.178   3.013   5.901
   12CHL1   H3'  818   5.242   2.944   5.886
   12CHL1    C4  819   5.004   2.894   5.779
   12CHL1   H4A  820   5.065   2.802   5.784
   12CHL1   H4B  821   4.929   2.896   5.861
   12CHL1    C5  822   4.923   2.893   5.647
   12CHL1    C6  823   4.786   2.888   5.652
   12CHL1    H6  824   4.740   2.875   5.751
   12CHL1    C7  825   4.705   2.884   5.526
   12CHL1   H7A  826   4.622   2.810   5.529
   12CHL1   H7B  827   4.646   2.979   5.521
   12CHL1    C8  828   4.782   2.878   5.389
   12CHL1    H8  829   4.811   2.771   5.382
   12CHL1   C14  830   4.700   2.929   5.271
   12CHL1   H14  831   4.688   3.037   5.297
   12CHL1   C15  832   4.563   2.863   5.250
   12CHL1  H15A  833   4.568   2.753   5.262
   12CHL1  H15B  834   4.478   2.897   5.313
   12CHL1   C16  835   4.528   2.903   5.106
   12CHL1  H16A  836   4.498   2.817   5.041
   12CHL1  H16B  837   4.450   2.982   5.100
   12CHL1   C17  838   4.653   2.974   5.040
   12CHL1   H17  839   4.651   3.085   5.051
   12CHL1   C13  840   4.767   2.920   5.131
   12CHL1   C18  841   4.784   2.772   5.094
   12CHL1  H18A  842   4.872   2.732   5.150
   12CHL1  H18B  843   4.696   2.709   5.118
   12CHL1  H18C  844   4.801   2.756   4.985
   12CHL1   C12  845   4.892   3.005   5.128
   12CHL1  H12A  846   4.939   2.984   5.029
   12CHL1  H12B  847   4.870   3.113   5.140
   12CHL1   C11  848   4.984   2.960   5.246
   12CHL1  H11A  849   5.012   2.855   5.222
   12CHL1  H11B  850   5.079   3.017   5.250
   12CHL1    C9  851   4.918   2.952   5.391
   12CHL1    H9  852   4.888   3.057   5.407
   12CHL1   C10  853   5.007   2.908   5.513
   12CHL1   C19  854   5.073   2.772   5.469
   12CHL1  H19A  855   5.131   2.789   5.376
   12CHL1  H19B  856   5.142   2.751   5.554
   12CHL1  H19C  857   5.007   2.682   5.466
   12CHL1    C1  858   5.112   3.011   5.536
   12CHL1   H1A  859   5.186   3.003   5.453
   12CHL1   H1B  860   5.073   3.115   5.532
   12CHL1    C2  861   5.187   3.005   5.658
   12CHL1   H2A  862   5.257   3.092   5.662
   12CHL1   H2B  863   5.251   2.915   5.671
   12CHL1   C20  864   4.661   2.952   4.887
   12CHL1   H20  865   4.668   2.842   4.874
   12CHL1   C21  866   4.776   3.027   4.817
   12CHL1  H21A  867   4.784   3.131   4.855
   12CHL1  H21B  868   4.756   3.027   4.707
   12CHL1  H21C  869   4.870   2.968   4.818
   12CHL1   C22  870   4.527   2.999   4.820
   12CHL1  H22A  871   4.433   2.962   4.866
   12CHL1  H22B  872   4.513   3.108   4.835
   12CHL1   C23  873   4.507   2.944   4.673
   12CHL1  H23A  874   4.585   2.990   4.608
   12CHL1  H23B  875   4.505   2.833   4.672
   12CHL1   C24  876   4.368   2.977   4.612
   12CHL1  H24A  877   4.293   2.943   4.686
   12CHL1  H24B  878   4.355   3.087   4.613
   12CHL1   C25  879   4.329   2.918   4.477
   12CHL1   H25  880   4.335   2.807   4.482
   12CHL1   C26  881   4.180   2.936   4.443
   12CHL1  H26A  882   4.107   2.922   4.525
   12CHL1  H26B  883   4.170   3.038   4.400
   12CHL1  H26C  884   4.152   2.867   4.360
   12CHL1   C27  885   4.421   2.972   4.375
   12CHL1  H27A  886   4.404   3.081   4.363
   12CHL1  H27B  887   4.529   2.954   4.396
   12CHL1  H27C  888   4.396   2.921   4.280
   13CHL1    C3  889   1.802   1.136   5.640
   13CHL1    H3  890   1.751   1.038   5.635
   13CHL1    O3  891   1.813   1.177   5.773
   13CHL1   H3'  892   1.865   1.257   5.762
   13CHL1    C4  893   1.938   1.114   5.574
   13CHL1   H4A  894   1.993   1.210   5.582
   13CHL1   H4B  895   2.001   1.045   5.634
   13CHL1    C5  896   1.941   1.091   5.423
   13CHL1    C6  897   2.003   0.982   5.375
   13CHL1    H6  898   2.063   0.929   5.450
   13CHL1    C7  899   1.996   0.935   5.237
   13CHL1   H7A  900   2.095   0.904   5.197
   13CHL1   H7B  901   1.944   0.838   5.227
   13CHL1    C8  902   1.925   1.040   5.142
   13CHL1    H8  903   2.009   1.109   5.121
   13CHL1   C14  904   1.884   0.982   5.004
   13CHL1   H14  905   1.800   0.916   5.032
   13CHL1   C15  906   1.996   0.905   4.924
   13CHL1  H15A  907   2.098   0.951   4.921
   13CHL1  H15B  908   2.014   0.810   4.978
   13CHL1   C16  909   1.927   0.903   4.787
   13CHL1  H16A  910   2.002   0.914   4.706
   13CHL1  H16B  911   1.891   0.799   4.776
   13CHL1   C17  912   1.813   1.013   4.778
   13CHL1   H17  913   1.724   0.947   4.787
   13CHL1   C13  914   1.831   1.091   4.908
   13CHL1   C18  915   1.939   1.196   4.889
   13CHL1  H18A  916   1.902   1.279   4.824
   13CHL1  H18B  917   1.978   1.239   4.984
   13CHL1  H18C  918   2.028   1.156   4.837
   13CHL1   C12  919   1.698   1.146   4.969
   13CHL1  H12A  920   1.657   1.214   4.892
   13CHL1  H12B  921   1.629   1.059   4.974
   13CHL1   C11  922   1.721   1.200   5.105
   13CHL1  H11A  923   1.765   1.300   5.086
   13CHL1  H11B  924   1.624   1.207   5.159
   13CHL1    C9  925   1.807   1.113   5.206
   13CHL1    H9  926   1.742   1.026   5.231
   13CHL1   C10  927   1.841   1.185   5.343
   13CHL1   C19  928   1.916   1.321   5.325
   13CHL1  H19A  929   1.845   1.399   5.289
   13CHL1  H19B  930   1.979   1.349   5.412
   13CHL1  H19C  931   1.985   1.312   5.239
   13CHL1    C1  932   1.710   1.198   5.420
   13CHL1   H1A  933   1.646   1.272   5.368
   13CHL1   H1B  934   1.644   1.109   5.418
   13CHL1    C2  935   1.725   1.244   5.566
   13CHL1   H2A  936   1.630   1.247   5.624
   13CHL1   H2B  937   1.783   1.339   5.570
   13CHL1   C20  938   1.814   1.086   4.643
   13CHL1   H20  939   1.912   1.137   4.632
   13CHL1   C21  940   1.702   1.193   4.633
   13CHL1  H21A  941   1.599   1.151   4.629
   13CHL1  H21B  942   1.713   1.250   4.538
   13CHL1  H21C  943   1.700   1.264   4.718
   13CHL1   C22  944   1.793   0.984   4.523
   13CHL1  H22A  945   1.862   0.897   4.518
   13CHL1  H22B  946   1.697   0.937   4.552
   13CHL1   C23  947   1.778   1.047   4.384
   13CHL1  H23A  948   1.682   1.102   4.391
   13CHL1  H23B  949   1.864   1.117   4.370
   13CHL1   C24  950   1.760   0.954   4.262
   13CHL1  H24A  951   1.843   0.880   4.256
   13CHL1  H24B  952   1.674   0.885   4.277
   13CHL1   C25  953   1.739   1.025   4.126
   13CHL1   H25  954   1.820   1.101   4.117
   13CHL1   C26  955   1.748   0.935   3.996
   13CHL1  H26A  956   1.847   0.887   4.006
   13CHL1  H26B  957   1.666   0.859   3.995
   13CHL1  H26C  958   1.744   0.988   3.898
   13CHL1   C27  959   1.611   1.105   4.121
   13CHL1  H27A  960   1.606   1.150   4.019
   13CHL1  H27B  961   1.524   1.036   4.125
   13CHL1  H27C  962   1.598   1.183   4.199
   14CHL1    C3  963   1.840   3.705   5.778
   14CHL1    H3  964   1.925   3.773   5.800
   14CHL1    O3  965   1.778   3.647   5.895
   14CHL1   H3'  966   1.834   3.570   5.910
   14CHL1    C4  967   1.726   3.797   5.711
   14CHL1   H4A  968   1.639   3.728   5.706
   14CHL1   H4B  969   1.705   3.884   5.777
   14CHL1    C5  970   1.744   3.838   5.570
   14CHL1    C6  971   1.740   3.969   5.538
   14CHL1    H6  972   1.700   4.047   5.605
   14CHL1    C7  973   1.773   4.023   5.397
   14CHL1   H7A  974   1.702   4.101   5.364
   14CHL1   H7B  975   1.876   4.063   5.408
   14CHL1    C8  976   1.782   3.911   5.293
   14CHL1    H8  977   1.675   3.888   5.279
   14CHL1   C14  978   1.842   3.962   5.160
   14CHL1   H14  979   1.945   3.994   5.186
   14CHL1   C15  980   1.780   4.085   5.091
   14CHL1  H15A  981   1.671   4.063   5.085
   14CHL1  H15B  982   1.804   4.165   5.164
   14CHL1   C16  983   1.835   4.088   4.948
   14CHL1  H16A  984   1.750   4.086   4.876
   14CHL1  H16B  985   1.896   4.177   4.919
   14CHL1   C17  986   1.911   3.951   4.929
   14CHL1   H17  987   2.017   3.964   4.956
   14CHL1   C13  988   1.864   3.860   5.050
   14CHL1   C18  989   1.727   3.804   5.010
   14CHL1  H18A  990   1.749   3.722   4.939
   14CHL1  H18B  991   1.669   3.779   5.101
   14CHL1  H18C  992   1.673   3.881   4.950
   14CHL1   C12  993   1.954   3.745   5.106
   14CHL1  H12A  994   1.966   3.663   5.033
   14CHL1  H12B  995   2.048   3.797   5.137
   14CHL1   C11  996   1.889   3.689   5.235
   14CHL1  H11A  997   1.791   3.647   5.204
   14CHL1  H11B  998   1.953   3.610   5.280
   14CHL1    C9  999   1.855   3.788   5.348
   14CHL1    H9 1000   1.950   3.835   5.381
   14CHL1   C10 1001   1.784   3.723   5.472
   14CHL1   C19 1002   1.666   3.628   5.428
   14CHL1  H19A 1003   1.606   3.694   5.362
   14CHL1  H19B 1004   1.698   3.534   5.378
   14CHL1  H19C 1005   1.599   3.615   5.516
   14CHL1    C1 1006   1.894   3.638   5.547
   14CHL1   H1A 1007   1.909   3.547   5.485
   14CHL1   H1B 1008   1.986   3.699   5.536
   14CHL1    C2 1009   1.869   3.587   5.689
   14CHL1   H2A 1010   1.948   3.522   5.733
   14CHL1   H2B 1011   1.774   3.530   5.696
   14CHL1   C20 1012   1.913   3.906   4.782
   14CHL1   H20 1013   1.806   3.888   4.760
   14CHL1   C21 1014   1.995   3.770   4.767
   14CHL1  H21A 1015   1.931   3.692   4.814
   14CHL1  H21B 1016   2.094   3.783   4.817
   14CHL1  H21C 1017   2.013   3.748   4.660
   14CHL1   C22 1018   1.968   4.001   4.679
   14CHL1  H22A 1019   1.978   3.950   4.581
   14CHL1  H22B 1020   1.900   4.085   4.651
   14CHL1   C23 1021   2.105   4.064   4.723
   14CHL1  H23A 1022   2.073   4.146   4.790
   14CHL1  H23B 1023   2.162   3.991   4.785
   14CHL1   C24 1024   2.197   4.126   4.618
   14CHL1  H24A 1025   2.281   4.167   4.679
   14CHL1  H24B 1026   2.231   4.046   4.550
   14CHL1   C25 1027   2.141   4.246   4.538
   14CHL1   H25 1028   2.221   4.306   4.489
   14CHL1   C26 1029   2.068   4.202   4.412
   14CHL1  H26A 1030   1.986   4.133   4.441
   14CHL1  H26B 1031   2.018   4.287   4.361
   14CHL1  H26C 1032   2.143   4.161   4.341
   14CHL1   C27 1033   2.052   4.338   4.617
   14CHL1  H27A 1034   1.950   4.298   4.631
   14CHL1  H27B 1035   2.101   4.376   4.710
   14CHL1  H27C 1036   2.042   4.433   4.561
   15CHL1    C3 1037   5.041   4.818   5.923
   15CHL1    H3 1038   4.935   4.800   5.896
   15CHL1    O3 1039   5.057   4.853   6.060
   15CHL1   H3' 1040   5.008   4.791   6.115
   15CHL1    C4 1041   5.129   4.700   5.877
   15CHL1   H4A 1042   5.238   4.724   5.879
   15CHL1   H4B 1043   5.110   4.622   5.953
   15CHL1    C5 1044   5.098   4.666   5.730
   15CHL1    C6 1045   5.036   4.549   5.700
   15CHL1    H6 1046   5.018   4.478   5.782
   15CHL1    C7 1047   4.995   4.509   5.560
   15CHL1   H7A 1048   5.020   4.408   5.522
   15CHL1   H7B 1049   4.884   4.502   5.550
   15CHL1    C8 1050   5.046   4.613   5.452
   15CHL1    H8 1051   5.150   4.589   5.423
   15CHL1   C14 1052   4.967   4.604   5.318
   15CHL1   H14 1053   4.865   4.646   5.334
   15CHL1   C15 1054   4.939   4.459   5.257
   15CHL1  H15A 1055   5.038   4.409   5.267
   15CHL1  H15B 1056   4.868   4.394   5.312
   15CHL1   C16 1057   4.905   4.481   5.112
   15CHL1  H16A 1058   4.988   4.434   5.054
   15CHL1  H16B 1059   4.798   4.455   5.096
   15CHL1   C17 1060   4.938   4.633   5.084
   15CHL1   H17 1061   4.839   4.682   5.094
   15CHL1   C13 1062   5.021   4.689   5.209
   15CHL1   C18 1063   5.172   4.658   5.181
   15CHL1  H18A 1064   5.234   4.682   5.270
   15CHL1  H18B 1065   5.173   4.548   5.164
   15CHL1  H18C 1066   5.202   4.715   5.091
   15CHL1   C12 1067   4.997   4.831   5.247
   15CHL1  H12A 1068   5.050   4.893   5.173
   15CHL1  H12B 1069   4.890   4.862   5.253
   15CHL1   C11 1070   5.057   4.858   5.389
   15CHL1  H11A 1071   5.167   4.860   5.374
   15CHL1  H11B 1072   5.030   4.962   5.419
   15CHL1    C9 1073   5.031   4.763   5.505
   15CHL1    H9 1074   4.928   4.777   5.542
   15CHL1   C10 1075   5.116   4.794   5.631
   15CHL1   C19 1076   5.266   4.807   5.603
   15CHL1  H19A 1077   5.315   4.825   5.701
   15CHL1  H19B 1078   5.311   4.726   5.542
   15CHL1  H19C 1079   5.282   4.895   5.537
   15CHL1    C1 1080   5.068   4.933   5.699
   15CHL1   H1A 1081   5.111   5.021   5.646
   15CHL1   H1B 1082   4.962   4.946   5.668
   15CHL1    C2 1083   5.075   4.947   5.848
   15CHL1   H2A 1084   5.005   5.029   5.874
   15CHL1   H2B 1085   5.180   4.972   5.877
   15CHL1   C20 1086   4.986   4.661   4.940
   15CHL1   H20 1087   5.092   4.630   4.923
   15CHL1   C21 1088   4.966   4.813   4.915
   15CHL1  H21A 1089   4.964   4.844   4.809
   15CHL1  H21B 1090   5.062   4.863   4.942
   15CHL1  H21C 1091   4.885   4.860   4.975
   15CHL1   C22 1092   4.901   4.584   4.835
   15CHL1  H22A 1093   4.875   4.481   4.866
   15CHL1  H22B 1094   4.802   4.632   4.823
   15CHL1   C23 1095   4.968   4.587   4.693
   15CHL1  H23A 1096   4.972   4.689   4.650
   15CHL1  H23B 1097   5.075   4.556   4.696
   15CHL1   C24 1098   4.898   4.496   4.590
   15CHL1  H24A 1099   4.878   4.393   4.627
   15CHL1  H24B 1100   4.799   4.547   4.590
   15CHL1   C25 1101   4.963   4.487   4.450
   15CHL1   H25 1102   4.968   4.593   4.415
   15CHL1   C26 1103   5.094   4.415   4.449
   15CHL1  H26A 1104   5.137   4.415   4.346
   15CHL1  H26B 1105   5.174   4.465   4.508
   15CHL1  H26C 1106   5.085   4.310   4.483
   15CHL1   C27 1107   4.879   4.413   4.346
   15CHL1  H27A 1108   4.925   4.401   4.246
   15CHL1  H27B 1109   4.846   4.314   4.384
   15CHL1  H27C 1110   4.783   4.462   4.320
   16CHL1    C3 1111   5.863   5.131   5.906
   16CHL1    H3 1112   5.968   5.137   5.870
   16CHL1    O3 1113   5.856   5.195   6.036
   16CHL1   H3' 1114   5.764   5.185   6.061
   16CHL1    C4 1115   5.770   5.204   5.812
   16CHL1   H4A 1116   5.669   5.213   5.857
   16CHL1   H4B 1117   5.819   5.304   5.812
   16CHL1    C5 1118   5.764   5.133   5.680
   16CHL1    C6 1119   5.806   5.200   5.570
   16CHL1    H6 1120   5.837   5.305   5.576
   16CHL1    C7 1121   5.787   5.142   5.433
   16CHL1   H7A 1122   5.731   5.211   5.366
   16CHL1   H7B 1123   5.888   5.118   5.395
   16CHL1    C8 1124   5.708   5.006   5.431
   16CHL1    H8 1125   5.605   5.046   5.445
   16CHL1   C14 1126   5.732   4.930   5.299
   16CHL1   H14 1127   5.839   4.899   5.304
   16CHL1   C15 1128   5.711   5.001   5.167
   16CHL1  H15A 1129   5.608   5.043   5.161
   16CHL1  H15B 1130   5.788   5.079   5.150
   16CHL1   C16 1131   5.717   4.892   5.060
   16CHL1  H16A 1132   5.632   4.897   4.990
   16CHL1  H16B 1133   5.819   4.894   5.016
   16CHL1   C17 1134   5.702   4.752   5.143
   16CHL1   H17 1135   5.806   4.713   5.148
   16CHL1   C13 1136   5.664   4.795   5.284
   16CHL1   C18 1137   5.509   4.823   5.286
   16CHL1  H18A 1138   5.476   4.865   5.189
   16CHL1  H18B 1139   5.457   4.726   5.303
   16CHL1  H18C 1140   5.489   4.887   5.376
   16CHL1   C12 1141   5.723   4.703   5.400
   16CHL1  H12A 1142   5.684   4.599   5.394
   16CHL1  H12B 1143   5.833   4.701   5.390
   16CHL1   C11 1144   5.707   4.767   5.540
   16CHL1  H11A 1145   5.602   4.749   5.572
   16CHL1  H11B 1146   5.771   4.710   5.611
   16CHL1    C9 1147   5.746   4.916   5.548
   16CHL1    H9 1148   5.856   4.909   5.536
   16CHL1   C10 1149   5.720   4.983   5.684
   16CHL1   C19 1150   5.574   4.972   5.718
   16CHL1  H19A 1151   5.562   4.868   5.754
   16CHL1  H19B 1152   5.543   5.045   5.796
   16CHL1  H19C 1153   5.510   4.974   5.627
   16CHL1    C1 1154   5.810   4.914   5.795
   16CHL1   H1A 1155   5.760   4.820   5.826
   16CHL1   H1B 1156   5.910   4.888   5.754
   16CHL1    C2 1157   5.813   4.985   5.929
   16CHL1   H2A 1158   5.879   4.935   6.003
   16CHL1   H2B 1159   5.715   4.998   5.980
   16CHL1   C20 1160   5.621   4.643   5.073
   16CHL1   H20 1161   5.514   4.673   5.076
   16CHL1   C21 1162   5.620   4.505   5.138
   16CHL1  H21A 1163   5.540   4.436   5.103
   16CHL1  H21B 1164   5.590   4.529   5.242
   16CHL1  H21C 1165   5.723   4.465   5.136
   16CHL1   C22 1166   5.660   4.632   4.921
   16CHL1  H22A 1167   5.755   4.685   4.903
   16CHL1  H22B 1168   5.663   4.522   4.908
   16CHL1   C23 1169   5.546   4.677   4.819
   16CHL1  H23A 1170   5.452   4.649   4.871
   16CHL1  H23B 1171   5.531   4.788   4.815
   16CHL1   C24 1172   5.571   4.619   4.681
   16CHL1  H24A 1173   5.656   4.673   4.635
   16CHL1  H24B 1174   5.612   4.518   4.704
   16CHL1   C25 1175   5.445   4.617   4.596
   16CHL1   H25 1176   5.365   4.576   4.661
   16CHL1   C26 1177   5.403   4.760   4.558
   16CHL1  H26A 1178   5.325   4.746   4.480
   16CHL1  H26B 1179   5.373   4.818   4.648
   16CHL1  H26C 1180   5.481   4.816   4.501
   16CHL1   C27 1181   5.463   4.526   4.478
   16CHL1  H27A 1182   5.555   4.552   4.420
   16CHL1  H27B 1183   5.477   4.419   4.506
   16CHL1  H27C 1184   5.379   4.535   4.406
   17CHL1    C3 1185   5.916   2.748   5.666
   17CHL1    H3 1186   5.809   2.769   5.686
   17CHL1    O3 1187   5.975   2.789   5.785
   17CHL1   H3' 1188   5.911   2.771   5.854
   17CHL1    C4 1189   5.933   2.602   5.647
   17CHL1   H4A 1190   6.043   2.583   5.640
   17CHL1   H4B 1191   5.895   2.555   5.740
   17CHL1    C5 1192   5.864   2.550   5.522
   17CHL1    C6 1193   5.771   2.456   5.533
   17CHL1    H6 1194   5.746   2.407   5.628
   17CHL1    C7 1195   5.691   2.397   5.417
   17CHL1   H7A 1196   5.680   2.289   5.439
   17CHL1   H7B 1197   5.590   2.444   5.414
   17CHL1    C8 1198   5.762   2.447   5.287
   17CHL1    H8 1199   5.851   2.380   5.281
   17CHL1   C14 1200   5.666   2.411   5.171
   17CHL1   H14 1201   5.582   2.481   5.193
   17CHL1   C15 1202   5.610   2.264   5.160
   17CHL1  H15A 1203   5.687   2.188   5.186
   17CHL1  H15B 1204   5.513   2.263   5.214
   17CHL1   C16 1205   5.583   2.262   5.008
   17CHL1  H16A 1206   5.642   2.179   4.963
   17CHL1  H16B 1207   5.478   2.228   5.000
   17CHL1   C17 1208   5.611   2.403   4.944
   17CHL1   H17 1209   5.525   2.473   4.954
   17CHL1   C13 1210   5.720   2.451   5.036
   17CHL1   C18 1211   5.848   2.376   5.003
   17CHL1  H18A 1212   5.933   2.414   5.062
   17CHL1  H18B 1213   5.825   2.269   5.022
   17CHL1  H18C 1214   5.879   2.405   4.900
   17CHL1   C12 1215   5.748   2.599   5.036
   17CHL1  H12A 1216   5.788   2.642   4.942
   17CHL1  H12B 1217   5.651   2.650   5.058
   17CHL1   C11 1218   5.836   2.651   5.145
   17CHL1  H11A 1219   5.942   2.635   5.116
   17CHL1  H11B 1220   5.826   2.762   5.148
   17CHL1    C9 1221   5.800   2.595   5.287
   17CHL1    H9 1222   5.704   2.643   5.317
   17CHL1   C10 1223   5.900   2.623   5.399
   17CHL1   C19 1224   6.045   2.567   5.355
   17CHL1  H19A 1225   6.088   2.613   5.263
   17CHL1  H19B 1226   6.120   2.587   5.434
   17CHL1  H19C 1227   6.049   2.457   5.336
   17CHL1    C1 1228   5.901   2.772   5.414
   17CHL1   H1A 1229   5.944   2.832   5.331
   17CHL1   H1B 1230   5.796   2.807   5.415
   17CHL1    C2 1231   5.965   2.820   5.544
   17CHL1   H2A 1232   5.946   2.927   5.568
   17CHL1   H2B 1233   6.075   2.810   5.535
   17CHL1   C20 1234   5.624   2.391   4.790
   17CHL1   H20 1235   5.730   2.382   4.756
   17CHL1   C21 1236   5.576   2.522   4.718
   17CHL1  H21A 1237   5.606   2.618   4.766
   17CHL1  H21B 1238   5.465   2.521   4.708
   17CHL1  H21C 1239   5.626   2.535   4.620
   17CHL1   C22 1240   5.550   2.272   4.732
   17CHL1  H22A 1241   5.581   2.175   4.775
   17CHL1  H22B 1242   5.443   2.282   4.760
   17CHL1   C23 1243   5.570   2.252   4.579
   17CHL1  H23A 1244   5.491   2.306   4.523
   17CHL1  H23B 1245   5.670   2.288   4.549
   17CHL1   C24 1246   5.549   2.098   4.558
   17CHL1  H24A 1247   5.637   2.043   4.598
   17CHL1  H24B 1248   5.470   2.048   4.619
   17CHL1   C25 1249   5.527   2.075   4.418
   17CHL1   H25 1250   5.461   2.149   4.369
   17CHL1   C26 1251   5.664   2.101   4.343
   17CHL1  H26A 1252   5.652   2.070   4.237
   17CHL1  H26B 1253   5.702   2.205   4.352
   17CHL1  H26C 1254   5.743   2.037   4.386
   17CHL1   C27 1255   5.480   1.932   4.389
   17CHL1  H27A 1256   5.386   1.903   4.441
   17CHL1  H27B 1257   5.468   1.918   4.280
   17CHL1  H27C 1258   5.557   1.856   4.414
   18CHL1    C3 1259   6.341   5.316   5.914
   18CHL1    H3 1260   6.421   5.239   5.910
   18CHL1    O3 1261   6.309   5.330   6.050
   18CHL1   H3' 1262   6.234   5.391   6.051
   18CHL1    C4 1263   6.375   5.452   5.850
   18CHL1   H4A 1264   6.297   5.529   5.867
   18CHL1   H4B 1265   6.462   5.500   5.900
   18CHL1    C5 1266   6.386   5.438   5.702
   18CHL1    C6 1267   6.495   5.484   5.640
   18CHL1    H6 1268   6.572   5.530   5.704
   18CHL1    C7 1269   6.511   5.473   5.495
   18CHL1   H7A 1270   6.537   5.571   5.450
   18CHL1   H7B 1271   6.585   5.395   5.464
   18CHL1    C8 1272   6.374   5.442   5.414
   18CHL1    H8 1273   6.316   5.537   5.415
   18CHL1   C14 1274   6.410   5.405   5.273
   18CHL1   H14 1275   6.466   5.310   5.282
   18CHL1   C15 1276   6.497   5.498   5.191
   18CHL1  H15A 1277   6.465   5.605   5.189
   18CHL1  H15B 1278   6.601   5.497   5.231
   18CHL1   C16 1279   6.484   5.434   5.048
   18CHL1  H16A 1280   6.483   5.515   4.972
   18CHL1  H16B 1281   6.572   5.368   5.033
   18CHL1   C17 1282   6.366   5.334   5.055
   18CHL1   H17 1283   6.412   5.234   5.070
   18CHL1   C13 1284   6.292   5.370   5.183
   18CHL1   C18 1285   6.202   5.491   5.158
   18CHL1  H18A 1286   6.116   5.451   5.100
   18CHL1  H18B 1287   6.169   5.539   5.252
   18CHL1  H18C 1288   6.251   5.561   5.087
   18CHL1   C12 1289   6.210   5.254   5.254
   18CHL1  H12A 1290   6.129   5.222   5.184
   18CHL1  H12B 1291   6.279   5.170   5.275
   18CHL1   C11 1292   6.177   5.296   5.396
   18CHL1  H11A 1293   6.099   5.375   5.388
   18CHL1  H11B 1294   6.123   5.211   5.444
   18CHL1    C9 1295   6.298   5.336   5.480
   18CHL1    H9 1296   6.365   5.248   5.491
   18CHL1   C10 1297   6.266   5.364   5.630
   18CHL1   C19 1298   6.138   5.450   5.636
   18CHL1  H19A 1299   6.139   5.527   5.556
   18CHL1  H19B 1300   6.049   5.391   5.605
   18CHL1  H19C 1301   6.132   5.499   5.735
   18CHL1    C1 1302   6.239   5.235   5.704
   18CHL1   H1A 1303   6.155   5.175   5.664
   18CHL1   H1B 1304   6.327   5.167   5.699
   18CHL1    C2 1305   6.220   5.253   5.859
   18CHL1   H2A 1306   6.190   5.158   5.907
   18CHL1   H2B 1307   6.131   5.316   5.881
   18CHL1   C20 1308   6.286   5.325   4.924
   18CHL1   H20 1309   6.236   5.423   4.908
   18CHL1   C21 1310   6.172   5.222   4.932
   18CHL1  H21A 1311   6.189   5.137   5.003
   18CHL1  H21B 1312   6.147   5.183   4.831
   18CHL1  H21C 1313   6.082   5.272   4.973
   18CHL1   C22 1314   6.371   5.288   4.806
   18CHL1  H22A 1315   6.306   5.281   4.716
   18CHL1  H22B 1316   6.453   5.361   4.791
   18CHL1   C23 1317   6.436   5.143   4.819
   18CHL1  H23A 1318   6.506   5.165   4.903
   18CHL1  H23B 1319   6.359   5.066   4.840
   18CHL1   C24 1320   6.518   5.113   4.688
   18CHL1  H24A 1321   6.597   5.187   4.664
   18CHL1  H24B 1322   6.564   5.012   4.702
   18CHL1   C25 1323   6.435   5.095   4.560
   18CHL1   H25 1324   6.380   5.191   4.544
   18CHL1   C26 1325   6.517   5.064   4.432
   18CHL1  H26A 1326   6.451   5.057   4.343
   18CHL1  H26B 1327   6.585   5.151   4.422
   18CHL1  H26C 1328   6.570   4.969   4.448
   18CHL1   C27 1329   6.329   4.990   4.576
   18CHL1  H27A 1330   6.255   5.009   4.657
   18CHL1  H27B 1331   6.278   4.984   4.478
   18CHL1  H27C 1332   6.377   4.890   4.585
   19CHL1    C3 1333   1.704   0.568   5.809
   19CHL1    H3 1334   1.653   0.471   5.828
   19CHL1    O3 1335   1.777   0.617   5.922
   19CHL1   H3' 1336   1.792   0.710   5.902
   19CHL1    C4 1337   1.801   0.541   5.695
   19CHL1   H4A 1338   1.858   0.636   5.690
   19CHL1   H4B 1339   1.878   0.467   5.726
   19CHL1    C5 1340   1.750   0.508   5.555
   19CHL1    C6 1341   1.785   0.397   5.485
   19CHL1    H6 1342   1.854   0.329   5.537
   19CHL1    C7 1343   1.725   0.357   5.354
   19CHL1   H7A 1344   1.816   0.334   5.294
   19CHL1   H7B 1345   1.660   0.269   5.373
   19CHL1    C8 1346   1.648   0.481   5.289
   19CHL1    H8 1347   1.721   0.550   5.242
   19CHL1   C14 1348   1.556   0.429   5.176
   19CHL1   H14 1349   1.483   0.364   5.228
   19CHL1   C15 1350   1.625   0.356   5.065
   19CHL1  H15A 1351   1.718   0.413   5.040
   19CHL1  H15B 1352   1.651   0.251   5.087
   19CHL1   C16 1353   1.528   0.374   4.937
   19CHL1  H16A 1354   1.577   0.444   4.865
   19CHL1  H16B 1355   1.496   0.281   4.887
   19CHL1   C17 1356   1.410   0.461   4.983
   19CHL1   H17 1357   1.332   0.388   5.014
   19CHL1   C13 1358   1.469   0.536   5.103
   19CHL1   C18 1359   1.550   0.658   5.050
   19CHL1  H18A 1360   1.604   0.710   5.131
   19CHL1  H18B 1361   1.630   0.623   4.981
   19CHL1  H18C 1362   1.486   0.741   5.012
   19CHL1   C12 1363   1.363   0.586   5.207
   19CHL1  H12A 1364   1.305   0.660   5.150
   19CHL1  H12B 1365   1.297   0.502   5.238
   19CHL1   C11 1366   1.437   0.637   5.340
   19CHL1  H11A 1367   1.482   0.737   5.321
   19CHL1  H11B 1368   1.360   0.648   5.419
   19CHL1    C9 1369   1.552   0.542   5.393
   19CHL1    H9 1370   1.489   0.460   5.433
   19CHL1   C10 1371   1.635   0.604   5.503
   19CHL1   C19 1372   1.707   0.737   5.453
   19CHL1  H19A 1373   1.640   0.804   5.396
   19CHL1  H19B 1374   1.741   0.796   5.541
   19CHL1  H19C 1375   1.794   0.716   5.386
   19CHL1    C1 1376   1.540   0.637   5.621
   19CHL1   H1A 1377   1.473   0.724   5.605
   19CHL1   H1B 1378   1.468   0.554   5.636
   19CHL1    C2 1379   1.607   0.678   5.759
   19CHL1   H2A 1380   1.539   0.694   5.845
   19CHL1   H2B 1381   1.674   0.764   5.740
   19CHL1   C20 1382   1.343   0.550   4.868
   19CHL1   H20 1383   1.419   0.622   4.831
   19CHL1   C21 1384   1.213   0.627   4.905
   19CHL1  H21A 1385   1.229   0.713   4.974
   19CHL1  H21B 1386   1.155   0.549   4.959
   19CHL1  H21C 1387   1.152   0.658   4.818
   19CHL1   C22 1388   1.301   0.468   4.746
   19CHL1  H22A 1389   1.377   0.389   4.728
   19CHL1  H22B 1390   1.214   0.405   4.776
   19CHL1   C23 1391   1.277   0.542   4.615
   19CHL1  H23A 1392   1.184   0.601   4.629
   19CHL1  H23B 1393   1.363   0.612   4.614
   19CHL1   C24 1394   1.261   0.456   4.490
   19CHL1  H24A 1395   1.350   0.394   4.467
   19CHL1  H24B 1396   1.188   0.377   4.517
   19CHL1   C25 1397   1.223   0.534   4.365
   19CHL1   H25 1398   1.295   0.617   4.347
   19CHL1   C26 1399   1.226   0.440   4.240
   19CHL1  H26A 1400   1.133   0.382   4.258
   19CHL1  H26B 1401   1.206   0.503   4.150
   19CHL1  H26C 1402   1.323   0.387   4.246
   19CHL1   C27 1403   1.084   0.595   4.378
   19CHL1  H27A 1404   1.031   0.634   4.289
   19CHL1  H27B 1405   1.023   0.524   4.438
   19CHL1  H27C 1406   1.107   0.686   4.437
   20CHL1    C3 1407   4.772   6.085   5.693
   20CHL1    H3 1408   4.841   6.166   5.662
   20CHL1    O3 1409   4.749   6.096   5.836
   20CHL1   H3' 1410   4.738   6.189   5.854
   20CHL1    C4 1411   4.636   6.117   5.622
   20CHL1   H4A 1412   4.554   6.054   5.662
   20CHL1   H4B 1413   4.606   6.222   5.641
   20CHL1    C5 1414   4.658   6.092   5.477
   20CHL1    C6 1415   4.631   6.187   5.386
   20CHL1    H6 1416   4.594   6.285   5.420
   20CHL1    C7 1417   4.636   6.177   5.242
   20CHL1   H7A 1418   4.538   6.209   5.201
   20CHL1   H7B 1419   4.707   6.245   5.191
   20CHL1    C8 1420   4.651   6.026   5.197
   20CHL1    H8 1421   4.549   5.986   5.210
   20CHL1   C14 1422   4.687   6.019   5.050
   20CHL1   H14 1423   4.785   6.070   5.045
   20CHL1   C15 1424   4.583   6.091   4.959
   20CHL1  H15A 1425   4.479   6.084   4.996
   20CHL1  H15B 1426   4.618   6.196   4.964
   20CHL1   C16 1427   4.596   6.026   4.821
   20CHL1  H16A 1428   4.500   5.975   4.800
   20CHL1  H16B 1429   4.626   6.097   4.741
   20CHL1   C17 1430   4.699   5.908   4.841
   20CHL1   H17 1431   4.789   5.971   4.825
   20CHL1   C13 1432   4.698   5.882   4.992
   20CHL1   C18 1433   4.567   5.805   5.018
   20CHL1  H18A 1434   4.539   5.800   5.125
   20CHL1  H18B 1435   4.482   5.854   4.966
   20CHL1  H18C 1436   4.584   5.699   4.988
   20CHL1   C12 1437   4.820   5.818   5.066
   20CHL1  H12A 1438   4.830   5.714   5.028
   20CHL1  H12B 1439   4.908   5.882   5.047
   20CHL1   C11 1440   4.797   5.817   5.224
   20CHL1  H11A 1441   4.710   5.750   5.243
   20CHL1  H11B 1442   4.888   5.779   5.274
   20CHL1    C9 1443   4.758   5.959   5.282
   20CHL1    H9 1444   4.848   6.024   5.272
   20CHL1   C10 1445   4.720   5.959   5.435
   20CHL1   C19 1446   4.615   5.849   5.459
   20CHL1  H19A 1447   4.581   5.854   5.564
   20CHL1  H19B 1448   4.528   5.863   5.392
   20CHL1  H19C 1449   4.649   5.744   5.440
   20CHL1    C1 1450   4.849   5.925   5.516
   20CHL1   H1A 1451   4.887   5.825   5.486
   20CHL1   H1B 1452   4.927   5.997   5.484
   20CHL1    C2 1453   4.827   5.945   5.659
   20CHL1   H2A 1454   4.924   5.937   5.711
   20CHL1   H2B 1455   4.769   5.856   5.691
   20CHL1   C20 1456   4.694   5.799   4.744
   20CHL1   H20 1457   4.607   5.731   4.759
   20CHL1   C21 1458   4.819   5.713   4.760
   20CHL1  H21A 1459   4.856   5.657   4.672
   20CHL1  H21B 1460   4.826   5.639   4.842
   20CHL1  H21C 1461   4.902   5.785   4.778
   20CHL1   C22 1462   4.679   5.840   4.601
   20CHL1  H22A 1463   4.601   5.916   4.581
   20CHL1  H22B 1464   4.772   5.889   4.563
   20CHL1   C23 1465   4.654   5.713   4.504
   20CHL1  H23A 1466   4.725   5.630   4.522
   20CHL1  H23B 1467   4.546   5.686   4.506
   20CHL1   C24 1468   4.686   5.748   4.358
   20CHL1  H24A 1469   4.620   5.831   4.328
   20CHL1  H24B 1470   4.794   5.773   4.350
   20CHL1   C25 1471   4.664   5.643   4.252
   20CHL1   H25 1472   4.724   5.553   4.278
   20CHL1   C26 1473   4.514   5.604   4.245
   20CHL1  H26A 1474   4.462   5.697   4.212
   20CHL1  H26B 1475   4.493   5.530   4.165
   20CHL1  H26C 1476   4.484   5.571   4.347
   20CHL1   C27 1477   4.712   5.693   4.117
   20CHL1  H27A 1478   4.696   5.803   4.109
   20CHL1  H27B 1479   4.817   5.664   4.098
   20CHL1  H27C 1480   4.646   5.654   4.036
   21CHL1    C3 1481   2.430   6.156   5.998
   21CHL1    H3 1482   2.339   6.097   5.974
   21CHL1    O3 1483   2.447   6.136   6.141
   21CHL1   H3' 1484   2.522   6.193   6.162
   21CHL1    C4 1485   2.562   6.112   5.928
   21CHL1   H4A 1486   2.642   6.174   5.975
   21CHL1   H4B 1487   2.570   6.006   5.958
   21CHL1    C5 1488   2.548   6.138   5.777
   21CHL1    C6 1489   2.545   6.039   5.688
   21CHL1    H6 1490   2.550   5.935   5.724
   21CHL1    C7 1491   2.533   6.074   5.540
   21CHL1   H7A 1492   2.602   6.012   5.479
   21CHL1   H7B 1493   2.427   6.061   5.508
   21CHL1    C8 1494   2.567   6.220   5.501
   21CHL1    H8 1495   2.674   6.248   5.517
   21CHL1   C14 1496   2.523   6.247   5.352
   21CHL1   H14 1497   2.413   6.238   5.352
   21CHL1   C15 1498   2.588   6.150   5.241
   21CHL1  H15A 1499   2.696   6.137   5.266
   21CHL1  H15B 1500   2.553   6.045   5.248
   21CHL1   C16 1501   2.547   6.223   5.111
   21CHL1  H16A 1502   2.646   6.247   5.065
   21CHL1  H16B 1503   2.484   6.169   5.037
   21CHL1   C17 1504   2.500   6.371   5.156
   21CHL1   H17 1505   2.390   6.352   5.162
   21CHL1   C13 1506   2.553   6.389   5.299
   21CHL1   C18 1507   2.707   6.418   5.294
   21CHL1  H18A 1508   2.720   6.522   5.259
   21CHL1  H18B 1509   2.761   6.402   5.389
   21CHL1  H18C 1510   2.765   6.354   5.223
   21CHL1   C12 1511   2.478   6.484   5.397
   21CHL1  H12A 1512   2.481   6.591   5.369
   21CHL1  H12B 1513   2.370   6.460   5.385
   21CHL1   C11 1514   2.510   6.469   5.548
   21CHL1  H11A 1515   2.619   6.489   5.556
   21CHL1  H11B 1516   2.441   6.534   5.607
   21CHL1    C9 1517   2.499   6.319   5.589
   21CHL1    H9 1518   2.392   6.293   5.573
   21CHL1   C10 1519   2.531   6.290   5.744
   21CHL1   C19 1520   2.656   6.365   5.772
   21CHL1  H19A 1521   2.640   6.474   5.761
   21CHL1  H19B 1522   2.697   6.338   5.872
   21CHL1  H19C 1523   2.740   6.343   5.703
   21CHL1    C1 1524   2.402   6.338   5.821
   21CHL1   H1A 1525   2.393   6.448   5.811
   21CHL1   H1B 1526   2.313   6.293   5.772
   21CHL1    C2 1527   2.397   6.306   5.975
   21CHL1   H2A 1528   2.297   6.332   6.015
   21CHL1   H2B 1529   2.475   6.365   6.029
   21CHL1   C20 1530   2.523   6.480   5.045
   21CHL1   H20 1531   2.632   6.482   5.027
   21CHL1   C21 1532   2.481   6.627   5.080
   21CHL1  H21A 1533   2.482   6.695   4.992
   21CHL1  H21B 1534   2.555   6.672   5.149
   21CHL1  H21C 1535   2.379   6.635   5.125
   21CHL1   C22 1536   2.458   6.441   4.914
   21CHL1  H22A 1537   2.443   6.332   4.900
   21CHL1  H22B 1538   2.354   6.480   4.914
   21CHL1   C23 1539   2.531   6.493   4.792
   21CHL1  H23A 1540   2.554   6.601   4.801
   21CHL1  H23B 1541   2.629   6.443   4.778
   21CHL1   C24 1542   2.453   6.479   4.660
   21CHL1  H24A 1543   2.419   6.374   4.655
   21CHL1  H24B 1544   2.350   6.519   4.665
   21CHL1   C25 1545   2.542   6.503   4.538
   21CHL1   H25 1546   2.629   6.433   4.535
   21CHL1   C26 1547   2.447   6.498   4.420
   21CHL1  H26A 1548   2.504   6.514   4.326
   21CHL1  H26B 1549   2.383   6.407   4.410
   21CHL1  H26C 1550   2.375   6.581   4.435
   21CHL1   C27 1551   2.597   6.651   4.550
   21CHL1  H27A 1552   2.661   6.678   4.463
   21CHL1  H27B 1553   2.518   6.730   4.553
   21CHL1  H27C 1554   2.657   6.659   4.644
   22CHL1    C3 1555   4.853   0.111   5.657
   22CHL1    H3 1556   4.856   0.221   5.672
   22CHL1    O3 1557   4.843   0.060   5.792
   22CHL1   H3' 1558   4.857   0.140   5.842
   22CHL1    C4 1559   4.733   0.078   5.570
   22CHL1   H4A 1560   4.731  -0.031   5.549
   22CHL1   H4B 1561   4.638   0.114   5.615
   22CHL1    C5 1562   4.744   0.144   5.438
   22CHL1    C6 1563   4.647   0.222   5.390
   22CHL1    H6 1564   4.557   0.245   5.448
   22CHL1    C7 1565   4.642   0.288   5.253
   22CHL1   H7A 1566   4.545   0.258   5.208
   22CHL1   H7B 1567   4.647   0.399   5.266
   22CHL1    C8 1568   4.752   0.224   5.159
   22CHL1    H8 1569   4.709   0.124   5.135
   22CHL1   C14 1570   4.773   0.313   5.040
   22CHL1   H14 1571   4.796   0.414   5.081
   22CHL1   C15 1572   4.650   0.338   4.950
   22CHL1  H15A 1573   4.611   0.241   4.913
   22CHL1  H15B 1574   4.562   0.398   4.981
   22CHL1   C16 1575   4.716   0.403   4.821
   22CHL1  H16A 1576   4.675   0.358   4.728
   22CHL1  H16B 1577   4.686   0.509   4.818
   22CHL1   C17 1578   4.863   0.380   4.831
   22CHL1   H17 1579   4.917   0.469   4.869
   22CHL1   C13 1580   4.881   0.277   4.945
   22CHL1   C18 1581   4.857   0.135   4.894
   22CHL1  H18A 1582   4.940   0.104   4.826
   22CHL1  H18B 1583   4.857   0.056   4.972
   22CHL1  H18C 1584   4.764   0.120   4.836
   22CHL1   C12 1585   5.013   0.283   5.027
   22CHL1  H12A 1586   5.098   0.242   4.968
   22CHL1  H12B 1587   5.030   0.388   5.059
   22CHL1   C11 1588   5.011   0.194   5.156
   22CHL1  H11A 1589   5.035   0.090   5.125
   22CHL1  H11B 1590   5.099   0.233   5.213
   22CHL1    C9 1591   4.885   0.213   5.239
   22CHL1    H9 1592   4.887   0.316   5.280
   22CHL1   C10 1593   4.873   0.115   5.360
   22CHL1   C19 1594   4.851  -0.028   5.304
   22CHL1  H19A 1595   4.851  -0.106   5.383
   22CHL1  H19B 1596   4.748  -0.034   5.262
   22CHL1  H19C 1597   4.929  -0.067   5.236
   22CHL1    C1 1598   4.997   0.119   5.449
   22CHL1   H1A 1599   5.084   0.081   5.391
   22CHL1   H1B 1600   5.004   0.230   5.458
   22CHL1    C2 1601   4.982   0.055   5.589
   22CHL1   H2A 1602   5.070   0.085   5.650
   22CHL1   H2B 1603   4.968  -0.054   5.577
   22CHL1   C20 1604   4.924   0.348   4.694
   22CHL1   H20 1605   4.881   0.255   4.651
   22CHL1   C21 1606   5.081   0.322   4.696
   22CHL1  H21A 1607   5.149   0.404   4.727
   22CHL1  H21B 1608   5.103   0.293   4.591
   22CHL1  H21C 1609   5.118   0.242   4.764
   22CHL1   C22 1610   4.885   0.458   4.589
   22CHL1  H22A 1611   4.783   0.497   4.609
   22CHL1  H22B 1612   4.949   0.546   4.611
   22CHL1   C23 1613   4.899   0.414   4.450
   22CHL1  H23A 1614   4.883   0.501   4.383
   22CHL1  H23B 1615   5.003   0.381   4.429
   22CHL1   C24 1616   4.810   0.298   4.395
   22CHL1  H24A 1617   4.839   0.201   4.440
   22CHL1  H24B 1618   4.704   0.312   4.425
   22CHL1   C25 1619   4.822   0.288   4.240
   22CHL1   H25 1620   4.774   0.381   4.204
   22CHL1   C26 1621   4.958   0.274   4.180
   22CHL1  H26A 1622   5.011   0.183   4.215
   22CHL1  H26B 1623   4.955   0.285   4.069
   22CHL1  H26C 1624   5.016   0.362   4.215
   22CHL1   C27 1625   4.733   0.173   4.182
   22CHL1  H27A 1626   4.711   0.170   4.073
   22CHL1  H27B 1627   4.790   0.082   4.209
   22CHL1  H27C 1628   4.640   0.152   4.239
   23CHL1    C3 1629   3.542   5.185   5.894
   23CHL1    H3 1630   3.570   5.087   5.850
   23CHL1    O3 1631   3.488   5.152   6.018
   23CHL1   H3' 1632   3.449   5.238   6.033
   23CHL1    C4 1633   3.660   5.286   5.906
   23CHL1   H4A 1634   3.626   5.378   5.958
   23CHL1   H4B 1635   3.743   5.252   5.971
   23CHL1    C5 1636   3.717   5.314   5.768
   23CHL1    C6 1637   3.843   5.279   5.749
   23CHL1    H6 1638   3.904   5.241   5.832
   23CHL1    C7 1639   3.906   5.310   5.618
   23CHL1   H7A 1640   4.012   5.333   5.641
   23CHL1   H7B 1641   3.908   5.206   5.579
   23CHL1    C8 1642   3.834   5.413   5.534
   23CHL1    H8 1643   3.844   5.518   5.570
   23CHL1   C14 1644   3.885   5.414   5.388
   23CHL1   H14 1645   3.851   5.317   5.348
   23CHL1   C15 1646   4.038   5.419   5.361
   23CHL1  H15A 1647   4.075   5.509   5.412
   23CHL1  H15B 1648   4.102   5.335   5.395
   23CHL1   C16 1649   4.042   5.429   5.206
   23CHL1  H16A 1650   4.125   5.498   5.181
   23CHL1  H16B 1651   4.068   5.328   5.166
   23CHL1   C17 1652   3.900   5.488   5.165
   23CHL1   H17 1653   3.841   5.408   5.117
   23CHL1   C13 1654   3.820   5.518   5.293
   23CHL1   C18 1655   3.833   5.663   5.334
   23CHL1  H18A 1656   3.931   5.703   5.300
   23CHL1  H18B 1657   3.758   5.738   5.299
   23CHL1  H18C 1658   3.839   5.672   5.445
   23CHL1   C12 1659   3.666   5.481   5.294
   23CHL1  H12A 1660   3.614   5.558   5.232
   23CHL1  H12B 1661   3.653   5.383   5.244
   23CHL1   C11 1662   3.601   5.470   5.432
   23CHL1  H11A 1663   3.588   5.569   5.482
   23CHL1  H11B 1664   3.501   5.424   5.423
   23CHL1    C9 1665   3.684   5.375   5.528
   23CHL1    H9 1666   3.683   5.275   5.479
   23CHL1   C10 1667   3.623   5.369   5.669
   23CHL1   C19 1668   3.581   5.505   5.724
   23CHL1  H19A 1669   3.500   5.553   5.666
   23CHL1  H19B 1670   3.548   5.504   5.830
   23CHL1  H19C 1671   3.654   5.589   5.714
   23CHL1    C1 1672   3.494   5.276   5.671
   23CHL1   H1A 1673   3.421   5.325   5.603
   23CHL1   H1B 1674   3.519   5.178   5.625
   23CHL1    C2 1675   3.438   5.250   5.807
   23CHL1   H2A 1676   3.364   5.167   5.801
   23CHL1   H2B 1677   3.397   5.347   5.844
   23CHL1   C20 1678   3.904   5.593   5.050
   23CHL1   H20 1679   3.969   5.676   5.087
   23CHL1   C21 1680   3.764   5.642   5.019
   23CHL1  H21A 1681   3.720   5.713   5.093
   23CHL1  H21B 1682   3.694   5.556   5.009
   23CHL1  H21C 1683   3.763   5.686   4.917
   23CHL1   C22 1684   3.968   5.539   4.915
   23CHL1  H22A 1685   4.049   5.465   4.934
   23CHL1  H22B 1686   3.890   5.483   4.860
   23CHL1   C23 1687   4.018   5.655   4.822
   23CHL1  H23A 1688   3.947   5.682   4.741
   23CHL1  H23B 1689   4.040   5.742   4.887
   23CHL1   C24 1690   4.141   5.610   4.750
   23CHL1  H24A 1691   4.229   5.614   4.818
   23CHL1  H24B 1692   4.137   5.505   4.715
   23CHL1   C25 1693   4.157   5.702   4.622
   23CHL1   H25 1694   4.061   5.756   4.614
   23CHL1   C26 1695   4.268   5.803   4.636
   23CHL1  H26A 1696   4.286   5.870   4.549
   23CHL1  H26B 1697   4.264   5.860   4.731
   23CHL1  H26C 1698   4.361   5.743   4.644
   23CHL1   C27 1699   4.190   5.618   4.496
   23CHL1  H27A 1700   4.109   5.543   4.481
   23CHL1  H27B 1701   4.190   5.682   4.406
   23CHL1  H27C 1702   4.289   5.569   4.512
   24CHL1    C3 1703   6.352   3.859   5.647
   24CHL1    H3 1704   6.459   3.841   5.674
   24CHL1    O3 1705   6.266   3.816   5.751
   24CHL1   H3' 1706   6.289   3.724   5.765
   24CHL1    C4 1707   6.324   4.004   5.623
   24CHL1   H4A 1708   6.215   4.007   5.603
   24CHL1   H4B 1709   6.340   4.070   5.712
   24CHL1    C5 1710   6.378   4.075   5.499
   24CHL1    C6 1711   6.451   4.185   5.509
   24CHL1    H6 1712   6.475   4.228   5.607
   24CHL1    C7 1713   6.517   4.248   5.384
   24CHL1   H7A 1714   6.489   4.356   5.379
   24CHL1   H7B 1715   6.627   4.238   5.394
   24CHL1    C8 1716   6.458   4.196   5.247
   24CHL1    H8 1717   6.354   4.236   5.246
   24CHL1   C14 1718   6.540   4.240   5.136
   24CHL1   H14 1719   6.637   4.194   5.163
   24CHL1   C15 1720   6.574   4.389   5.124
   24CHL1  H15A 1721   6.484   4.453   5.137
   24CHL1  H15B 1722   6.661   4.418   5.187
   24CHL1   C16 1723   6.611   4.394   4.970
   24CHL1  H16A 1724   6.543   4.456   4.907
   24CHL1  H16B 1725   6.715   4.420   4.939
   24CHL1   C17 1726   6.606   4.252   4.903
   24CHL1   H17 1727   6.706   4.204   4.915
   24CHL1   C13 1728   6.501   4.190   4.998
   24CHL1   C18 1729   6.357   4.242   4.967
   24CHL1  H18A 1730   6.323   4.191   4.874
   24CHL1  H18B 1731   6.375   4.351   4.971
   24CHL1  H18C 1732   6.288   4.219   5.052
   24CHL1   C12 1733   6.504   4.031   5.010
   24CHL1  H12A 1734   6.471   3.987   4.913
   24CHL1  H12B 1735   6.607   3.990   5.023
   24CHL1   C11 1736   6.411   3.983   5.121
   24CHL1  H11A 1737   6.313   4.015   5.081
   24CHL1  H11B 1738   6.417   3.872   5.123
   24CHL1    C9 1739   6.449   4.041   5.256
   24CHL1    H9 1740   6.551   4.001   5.273
   24CHL1   C10 1741   6.352   3.996   5.368
   24CHL1   C19 1742   6.205   4.018   5.321
   24CHL1  H19A 1743   6.191   4.115   5.269
   24CHL1  H19B 1744   6.186   3.934   5.251
   24CHL1  H19C 1745   6.134   4.003   5.405
   24CHL1    C1 1746   6.388   3.840   5.399
   24CHL1   H1A 1747   6.360   3.776   5.312
   24CHL1   H1B 1748   6.498   3.828   5.408
   24CHL1    C2 1749   6.319   3.778   5.523
   24CHL1   H2A 1750   6.338   3.669   5.523
   24CHL1   H2B 1751   6.209   3.790   5.513
   24CHL1   C20 1752   6.582   4.261   4.755
   24CHL1   H20 1753   6.498   4.331   4.732
   24CHL1   C21 1754   6.549   4.119   4.704
   24CHL1  H21A 1755   6.632   4.051   4.732
   24CHL1  H21B 1756   6.539   4.127   4.594
   24CHL1  H21C 1757   6.444   4.091   4.732
   24CHL1   C22 1758   6.715   4.303   4.689
   24CHL1  H22A 1759   6.747   4.402   4.728
   24CHL1  H22B 1760   6.794   4.230   4.716
   24CHL1   C23 1761   6.730   4.320   4.534
   24CHL1  H23A 1762   6.839   4.339   4.517
   24CHL1  H23B 1763   6.688   4.231   4.483
   24CHL1   C24 1764   6.649   4.440   4.476
   24CHL1  H24A 1765   6.547   4.446   4.520
   24CHL1  H24B 1766   6.695   4.530   4.523
   24CHL1   C25 1767   6.664   4.465   4.323
   24CHL1   H25 1768   6.655   4.369   4.268
   24CHL1   C26 1769   6.557   4.549   4.268
   24CHL1  H26A 1770   6.554   4.650   4.315
   24CHL1  H26B 1771   6.575   4.573   4.161
   24CHL1  H26C 1772   6.463   4.489   4.268
   24CHL1   C27 1773   6.798   4.523   4.291
   24CHL1  H27A 1774   6.882   4.461   4.328
   24CHL1  H27B 1775   6.802   4.535   4.181
   24CHL1  H27C 1776   6.796   4.620   4.346
   25CHL1    C3 1777   0.885   1.756   5.957
   25CHL1    H3 1778   0.970   1.688   5.979
   25CHL1    O3 1779   0.825   1.779   6.077
   25CHL1   H3' 1780   0.744   1.824   6.052
   25CHL1    C4 1781   0.930   1.890   5.895
   25CHL1   H4A 1782   0.846   1.962   5.888
   25CHL1   H4B 1783   1.014   1.937   5.952
   25CHL1    C5 1784   0.973   1.879   5.748
   25CHL1    C6 1785   1.097   1.932   5.719
   25CHL1    H6 1786   1.160   1.988   5.790
   25CHL1    C7 1787   1.155   1.934   5.582
   25CHL1   H7A 1788   1.203   2.032   5.563
   25CHL1   H7B 1789   1.238   1.860   5.579
   25CHL1    C8 1790   1.041   1.905   5.476
   25CHL1    H8 1791   0.982   1.999   5.473
   25CHL1   C14 1792   1.119   1.880   5.341
   25CHL1   H14 1793   1.173   1.785   5.363
   25CHL1   C15 1794   1.213   1.986   5.286
   25CHL1  H15A 1795   1.163   2.085   5.283
   25CHL1  H15B 1796   1.302   1.971   5.352
   25CHL1   C16 1797   1.240   1.948   5.138
   25CHL1  H16A 1798   1.212   2.031   5.070
   25CHL1  H16B 1799   1.342   1.905   5.124
   25CHL1   C17 1800   1.131   1.841   5.104
   25CHL1   H17 1801   1.193   1.750   5.114
   25CHL1   C13 1802   1.036   1.848   5.222
   25CHL1   C18 1803   0.927   1.958   5.201
   25CHL1  H18A 1804   0.971   2.056   5.175
   25CHL1  H18B 1805   0.851   1.925   5.127
   25CHL1  H18C 1806   0.869   1.990   5.290
   25CHL1   C12 1807   0.965   1.709   5.257
   25CHL1  H12A 1808   0.888   1.677   5.184
   25CHL1  H12B 1809   1.042   1.629   5.269
   25CHL1   C11 1810   0.882   1.723   5.393
   25CHL1  H11A 1811   0.798   1.790   5.362
   25CHL1  H11B 1812   0.839   1.629   5.433
   25CHL1    C9 1813   0.957   1.784   5.513
   25CHL1    H9 1814   1.031   1.706   5.541
   25CHL1   C10 1815   0.871   1.810   5.647
   25CHL1   C19 1816   0.748   1.877   5.621
   25CHL1  H19A 1817   0.768   1.964   5.555
   25CHL1  H19B 1818   0.664   1.816   5.583
   25CHL1  H19C 1819   0.720   1.927   5.716
   25CHL1    C1 1820   0.840   1.674   5.725
   25CHL1   H1A 1821   0.778   1.609   5.660
   25CHL1   H1B 1822   0.935   1.618   5.741
   25CHL1    C2 1823   0.785   1.689   5.866
   25CHL1   H2A 1824   0.756   1.594   5.916
   25CHL1   H2B 1825   0.683   1.733   5.853
   25CHL1   C20 1826   1.072   1.828   4.960
   25CHL1   H20 1827   0.995   1.907   4.947
   25CHL1   C21 1828   1.002   1.692   4.943
   25CHL1  H21A 1829   1.059   1.618   5.002
   25CHL1  H21B 1830   0.995   1.674   4.833
   25CHL1  H21C 1831   0.898   1.709   4.979
   25CHL1   C22 1832   1.179   1.857   4.850
   25CHL1  H22A 1833   1.253   1.932   4.885
   25CHL1  H22B 1834   1.226   1.761   4.820
   25CHL1   C23 1835   1.122   1.915   4.714
   25CHL1  H23A 1836   1.042   1.861   4.659
   25CHL1  H23B 1837   1.082   2.017   4.733
   25CHL1   C24 1838   1.224   1.938   4.595
   25CHL1  H24A 1839   1.309   1.998   4.633
   25CHL1  H24B 1840   1.267   1.841   4.562
   25CHL1   C25 1841   1.173   2.001   4.463
   25CHL1   H25 1842   1.137   2.104   4.483
   25CHL1   C26 1843   1.294   2.006   4.368
   25CHL1  H26A 1844   1.272   2.054   4.270
   25CHL1  H26B 1845   1.383   2.062   4.404
   25CHL1  H26C 1846   1.329   1.901   4.353
   25CHL1   C27 1847   1.063   1.909   4.403
   25CHL1  H27A 1848   1.102   1.807   4.382
   25CHL1  H27B 1849   0.973   1.899   4.468
   25CHL1  H27C 1850   1.033   1.946   4.303
   26CHL1    C3 1851   6.431   0.965   5.849
   26CHL1    H3 1852   6.538   0.961   5.820
   26CHL1    O3 1853   6.418   1.030   5.972
   26CHL1   H3' 1854   6.474   0.979   6.030
   26CHL1    C4 1855   6.345   1.050   5.746
   26CHL1   H4A 1856   6.238   1.066   5.773
   26CHL1   H4B 1857   6.397   1.148   5.753
   26CHL1    C5 1858   6.342   0.996   5.606
   26CHL1    C6 1859   6.386   1.061   5.501
   26CHL1    H6 1860   6.434   1.160   5.508
   26CHL1    C7 1861   6.363   1.011   5.358
   26CHL1   H7A 1862   6.313   1.094   5.304
   26CHL1   H7B 1863   6.459   0.991   5.306
   26CHL1    C8 1864   6.282   0.876   5.340
   26CHL1    H8 1865   6.174   0.901   5.349
   26CHL1   C14 1866   6.321   0.810   5.214
   26CHL1   H14 1867   6.427   0.780   5.229
   26CHL1   C15 1868   6.322   0.896   5.088
   26CHL1  H15A 1869   6.229   0.956   5.080
   26CHL1  H15B 1870   6.414   0.959   5.085
   26CHL1   C16 1871   6.325   0.795   4.975
   26CHL1  H16A 1872   6.233   0.827   4.921
   26CHL1  H16B 1873   6.419   0.799   4.916
   26CHL1   C17 1874   6.320   0.652   5.045
   26CHL1   H17 1875   6.425   0.618   5.052
   26CHL1   C13 1876   6.259   0.675   5.185
   26CHL1   C18 1877   6.101   0.688   5.164
   26CHL1  H18A 1878   6.065   0.583   5.157
   26CHL1  H18B 1879   6.066   0.756   5.244
   26CHL1  H18C 1880   6.087   0.738   5.066
   26CHL1   C12 1881   6.288   0.578   5.302
   26CHL1  H12A 1882   6.237   0.482   5.277
   26CHL1  H12B 1883   6.393   0.543   5.314
   26CHL1   C11 1884   6.253   0.637   5.442
   26CHL1  H11A 1885   6.143   0.651   5.437
   26CHL1  H11B 1886   6.283   0.573   5.528
   26CHL1    C9 1887   6.314   0.781   5.458
   26CHL1    H9 1888   6.424   0.766   5.450
   26CHL1   C10 1889   6.289   0.845   5.598
   26CHL1   C19 1890   6.132   0.851   5.623
   26CHL1  H19A 1891   6.112   0.906   5.717
   26CHL1  H19B 1892   6.093   0.920   5.545
   26CHL1  H19C 1893   6.081   0.753   5.608
   26CHL1    C1 1894   6.368   0.762   5.708
   26CHL1   H1A 1895   6.302   0.673   5.718
   26CHL1   H1B 1896   6.473   0.758   5.671
   26CHL1    C2 1897   6.375   0.826   5.852
   26CHL1   H2A 1898   6.451   0.763   5.902
   26CHL1   H2B 1899   6.281   0.819   5.912
   26CHL1   C20 1900   6.256   0.548   4.956
   26CHL1   H20 1901   6.152   0.572   4.925
   26CHL1   C21 1902   6.254   0.416   5.028
   26CHL1  H21A 1903   6.350   0.394   5.079
   26CHL1  H21B 1904   6.240   0.331   4.957
   26CHL1  H21C 1905   6.180   0.405   5.110
   26CHL1   C22 1906   6.336   0.535   4.818
   26CHL1  H22A 1907   6.393   0.624   4.785
   26CHL1  H22B 1908   6.404   0.447   4.828
   26CHL1   C23 1909   6.259   0.487   4.695
   26CHL1  H23A 1910   6.337   0.458   4.622
   26CHL1  H23B 1911   6.203   0.400   4.736
   26CHL1   C24 1912   6.168   0.592   4.622
   26CHL1  H24A 1913   6.105   0.530   4.555
   26CHL1  H24B 1914   6.103   0.631   4.704
   26CHL1   C25 1915   6.246   0.706   4.552
   26CHL1   H25 1916   6.316   0.753   4.624
   26CHL1   C26 1917   6.330   0.643   4.441
   26CHL1  H26A 1918   6.268   0.580   4.375
   26CHL1  H26B 1919   6.391   0.727   4.400
   26CHL1  H26C 1920   6.398   0.573   4.493
   26CHL1   C27 1921   6.162   0.825   4.500
   26CHL1  H27A 1922   6.130   0.881   4.590
   26CHL1  H27B 1923   6.217   0.883   4.424
   26CHL1  H27C 1924   6.074   0.789   4.443
   27CHL1    C3 1925   0.892   1.202   5.882
   27CHL1    H3 1926   0.838   1.108   5.857
   27CHL1    O3 1927   0.859   1.231   6.021
   27CHL1   H3' 1928   0.909   1.310   6.041
   27CHL1    C4 1929   1.048   1.200   5.871
   27CHL1   H4A 1930   1.092   1.294   5.911
   27CHL1   H4B 1931   1.083   1.123   5.944
   27CHL1    C5 1932   1.081   1.159   5.733
   27CHL1    C6 1933   1.155   1.050   5.705
   27CHL1    H6 1934   1.187   0.983   5.786
   27CHL1    C7 1935   1.207   1.012   5.569
   27CHL1   H7A 1936   1.312   0.977   5.577
   27CHL1   H7B 1937   1.148   0.926   5.532
   27CHL1    C8 1938   1.194   1.127   5.468
   27CHL1    H8 1939   1.263   1.207   5.501
   27CHL1   C14 1940   1.216   1.075   5.322
   27CHL1   H14 1941   1.133   1.002   5.309
   27CHL1   C15 1942   1.342   0.998   5.299
   27CHL1  H15A 1943   1.425   1.063   5.335
   27CHL1  H15B 1944   1.341   0.900   5.351
   27CHL1   C16 1945   1.348   0.982   5.144
   27CHL1  H16A 1946   1.448   0.986   5.095
   27CHL1  H16B 1947   1.311   0.879   5.124
   27CHL1   C17 1948   1.247   1.091   5.086
   27CHL1   H17 1949   1.157   1.029   5.071
   27CHL1   C13 1950   1.208   1.180   5.209
   27CHL1   C18 1951   1.319   1.288   5.224
   27CHL1  H18A 1952   1.418   1.242   5.204
   27CHL1  H18B 1953   1.304   1.372   5.153
   27CHL1  H18C 1954   1.313   1.324   5.329
   27CHL1   C12 1955   1.070   1.241   5.224
   27CHL1  H12A 1956   1.066   1.335   5.165
   27CHL1  H12B 1957   0.984   1.181   5.189
   27CHL1   C11 1958   1.027   1.285   5.361
   27CHL1  H11A 1959   1.076   1.384   5.373
   27CHL1  H11B 1960   0.918   1.306   5.359
   27CHL1    C9 1961   1.055   1.192   5.481
   27CHL1    H9 1962   0.978   1.113   5.470
   27CHL1   C10 1963   1.025   1.253   5.621
   27CHL1   C19 1964   1.094   1.389   5.632
   27CHL1  H19A 1965   1.188   1.387   5.573
   27CHL1  H19B 1966   1.034   1.470   5.586
   27CHL1  H19C 1967   1.127   1.410   5.736
   27CHL1    C1 1968   0.875   1.266   5.649
   27CHL1   H1A 1969   0.831   1.339   5.578
   27CHL1   H1B 1970   0.832   1.166   5.630
   27CHL1    C2 1971   0.841   1.302   5.794
   27CHL1   H2A 1972   0.730   1.310   5.793
   27CHL1   H2B 1973   0.883   1.399   5.827
   27CHL1   C20 1974   1.299   1.152   4.951
   27CHL1   H20 1975   1.389   1.203   4.992
   27CHL1   C21 1976   1.188   1.252   4.897
   27CHL1  H21A 1977   1.184   1.280   4.790
   27CHL1  H21B 1978   1.174   1.342   4.960
   27CHL1  H21C 1979   1.093   1.197   4.916
   27CHL1   C22 1980   1.356   1.063   4.842
   27CHL1  H22A 1981   1.372   1.131   4.756
   27CHL1  H22B 1982   1.450   1.005   4.854
   27CHL1   C23 1983   1.247   0.967   4.791
   27CHL1  H23A 1984   1.235   0.886   4.867
   27CHL1  H23B 1985   1.150   1.020   4.778
   27CHL1   C24 1986   1.282   0.900   4.657
   27CHL1  H24A 1987   1.380   0.849   4.667
   27CHL1  H24B 1988   1.201   0.828   4.633
   27CHL1   C25 1989   1.313   0.996   4.538
   27CHL1   H25 1990   1.399   1.056   4.574
   27CHL1   C26 1991   1.360   0.927   4.411
   27CHL1  H26A 1992   1.387   0.996   4.328
   27CHL1  H26B 1993   1.450   0.863   4.426
   27CHL1  H26C 1994   1.276   0.861   4.379
   27CHL1   C27 1995   1.183   1.083   4.506
   27CHL1  H27A 1996   1.202   1.137   4.411
   27CHL1  H27B 1997   1.087   1.029   4.495
   27CHL1  H27C 1998   1.167   1.158   4.587
   28CHL1    C3 1999   1.405   0.225   5.831
   28CHL1    H3 2000   1.438   0.326   5.798
   28CHL1    O3 2001   1.438   0.204   5.966
   28CHL1   H3' 2002   1.432   0.110   5.983
   28CHL1    C4 2003   1.251   0.237   5.819
   28CHL1   H4A 2004   1.207   0.143   5.857
   28CHL1   H4B 2005   1.212   0.324   5.877
   28CHL1    C5 2006   1.212   0.247   5.672
   28CHL1    C6 2007   1.143   0.356   5.635
   28CHL1    H6 2008   1.127   0.433   5.712
   28CHL1    C7 2009   1.088   0.377   5.500
   28CHL1   H7A 2010   0.988   0.424   5.507
   28CHL1   H7B 2011   1.156   0.455   5.459
   28CHL1    C8 2012   1.099   0.242   5.421
   28CHL1    H8 2013   1.010   0.180   5.446
   28CHL1   C14 2014   1.079   0.278   5.267
   28CHL1   H14 2015   1.172   0.329   5.236
   28CHL1   C15 2016   0.965   0.380   5.231
   28CHL1  H15A 2017   0.877   0.354   5.294
   28CHL1  H15B 2018   0.996   0.484   5.255
   28CHL1   C16 2019   0.940   0.362   5.088
   28CHL1  H16A 2020   0.831   0.341   5.077
   28CHL1  H16B 2021   0.967   0.445   5.019
   28CHL1   C17 2022   1.026   0.237   5.047
   28CHL1   H17 2023   1.121   0.287   5.016
   28CHL1   C13 2024   1.057   0.159   5.182
   28CHL1   C18 2025   0.937   0.071   5.230
   28CHL1  H18A 2026   0.912  -0.002   5.150
   28CHL1  H18B 2027   0.963   0.022   5.326
   28CHL1  H18C 2028   0.855   0.141   5.258
   28CHL1   C12 2029   1.187   0.079   5.192
   28CHL1  H12A 2030   1.186  -0.011   5.126
   28CHL1  H12B 2031   1.268   0.143   5.150
   28CHL1   C11 2032   1.230   0.040   5.333
   28CHL1  H11A 2033   1.162  -0.038   5.373
   28CHL1  H11B 2034   1.330  -0.007   5.322
   28CHL1    C9 2035   1.230   0.162   5.437
   28CHL1    H9 2036   1.309   0.234   5.408
   28CHL1   C10 2037   1.259   0.126   5.582
   28CHL1   C19 2038   1.173  -0.004   5.617
   28CHL1  H19A 2039   1.063   0.010   5.609
   28CHL1  H19B 2040   1.200  -0.096   5.561
   28CHL1  H19C 2041   1.198  -0.030   5.722
   28CHL1    C1 2042   1.410   0.118   5.600
   28CHL1   H1A 2043   1.447   0.024   5.553
   28CHL1   H1B 2044   1.464   0.205   5.557
   28CHL1    C2 2045   1.467   0.112   5.749
   28CHL1   H2A 2046   1.576   0.133   5.755
   28CHL1   H2B 2047   1.456   0.010   5.791
   28CHL1   C20 2048   0.970   0.172   4.920
   28CHL1   H20 2049   0.866   0.138   4.943
   28CHL1   C21 2050   1.054   0.047   4.889
   28CHL1  H21A 2051   1.049  -0.031   4.968
   28CHL1  H21B 2052   1.161   0.074   4.874
   28CHL1  H21C 2053   1.016   0.008   4.792
   28CHL1   C22 2054   0.961   0.268   4.797
   28CHL1  H22A 2055   0.922   0.366   4.834
   28CHL1  H22B 2056   1.063   0.287   4.760
   28CHL1   C23 2057   0.875   0.219   4.680
   28CHL1  H23A 2058   0.894   0.111   4.664
   28CHL1  H23B 2059   0.770   0.227   4.716
   28CHL1   C24 2060   0.887   0.297   4.550
   28CHL1  H24A 2061   0.875   0.406   4.567
   28CHL1  H24B 2062   0.985   0.267   4.507
   28CHL1   C25 2063   0.786   0.261   4.440
   28CHL1   H25 2064   0.689   0.256   4.493
   28CHL1   C26 2065   0.783   0.361   4.330
   28CHL1  H26A 2066   0.740   0.455   4.371
   28CHL1  H26B 2067   0.877   0.385   4.274
   28CHL1  H26C 2068   0.705   0.342   4.253
   28CHL1   C27 2069   0.809   0.124   4.389
   28CHL1  H27A 2070   0.915   0.120   4.356
   28CHL1  H27B 2071   0.796   0.053   4.474
   28CHL1  H27C 2072   0.755   0.116   4.292
   29CHL1    C3 2073   2.683   4.227   2.681
   29CHL1    H3 2074   2.717   4.307   2.751
   29CHL1    O3 2075   2.696   4.266   2.547
   29CHL1   H3' 2076   2.698   4.184   2.498
   29CHL1    C4 2077   2.749   4.097   2.716
   29CHL1   H4A 2078   2.721   4.008   2.657
   29CHL1   H4B 2079   2.858   4.106   2.698
   29CHL1    C5 2080   2.733   4.066   2.865
   29CHL1    C6 2081   2.832   4.054   2.952
   29CHL1    H6 2082   2.934   4.051   2.912
   29CHL1    C7 2083   2.820   4.004   3.095
   29CHL1   H7A 2084   2.877   3.909   3.095
   29CHL1   H7B 2085   2.860   4.082   3.163
   29CHL1    C8 2086   2.681   3.957   3.137
   29CHL1    H8 2087   2.656   3.858   3.095
   29CHL1   C14 2088   2.659   3.965   3.288
   29CHL1   H14 2089   2.670   4.075   3.300
   29CHL1   C15 2090   2.754   3.900   3.388
   29CHL1  H15A 2091   2.748   3.790   3.374
   29CHL1  H15B 2092   2.859   3.935   3.373
   29CHL1   C16 2093   2.694   3.940   3.520
   29CHL1  H16A 2094   2.718   3.889   3.616
   29CHL1  H16B 2095   2.737   4.040   3.540
   29CHL1   C17 2096   2.539   3.965   3.494
   29CHL1   H17 2097   2.530   4.073   3.518
   29CHL1   C13 2098   2.520   3.938   3.343
   29CHL1   C18 2099   2.483   3.789   3.323
   29CHL1  H18A 2100   2.502   3.766   3.215
   29CHL1  H18B 2101   2.552   3.733   3.390
   29CHL1  H18C 2102   2.374   3.782   3.336
   29CHL1   C12 2103   2.430   4.036   3.270
   29CHL1  H12A 2104   2.326   4.012   3.301
   29CHL1  H12B 2105   2.455   4.140   3.299
   29CHL1   C11 2106   2.433   4.030   3.120
   29CHL1  H11A 2107   2.382   3.936   3.091
   29CHL1  H11B 2108   2.366   4.112   3.087
   29CHL1    C9 2109   2.571   4.053   3.067
   29CHL1    H9 2110   2.606   4.149   3.111
   29CHL1   C10 2111   2.585   4.066   2.909
   29CHL1   C19 2112   2.507   3.947   2.849
   29CHL1  H19A 2113   2.505   3.951   2.738
   29CHL1  H19B 2114   2.557   3.858   2.893
   29CHL1  H19C 2115   2.402   3.952   2.885
   29CHL1    C1 2116   2.516   4.201   2.858
   29CHL1   H1A 2117   2.407   4.192   2.878
   29CHL1   H1B 2118   2.556   4.290   2.912
   29CHL1    C2 2119   2.530   4.214   2.705
   29CHL1   H2A 2120   2.485   4.313   2.681
   29CHL1   H2B 2121   2.485   4.133   2.644
   29CHL1   C20 2122   2.439   3.898   3.591
   29CHL1   H20 2123   2.439   3.789   3.567
   29CHL1   C21 2124   2.301   3.955   3.576
   29CHL1  H21A 2125   2.254   3.923   3.481
   29CHL1  H21B 2126   2.308   4.066   3.587
   29CHL1  H21C 2127   2.238   3.916   3.659
   29CHL1   C22 2128   2.485   3.908   3.739
   29CHL1  H22A 2129   2.406   3.866   3.805
   29CHL1  H22B 2130   2.571   3.838   3.733
   29CHL1   C23 2131   2.524   4.043   3.798
   29CHL1  H23A 2132   2.582   4.119   3.740
   29CHL1  H23B 2133   2.429   4.092   3.828
   29CHL1   C24 2134   2.598   4.018   3.937
   29CHL1  H24A 2135   2.690   3.958   3.917
   29CHL1  H24B 2136   2.629   4.116   3.977
   29CHL1   C25 2137   2.522   3.946   4.055
   29CHL1   H25 2138   2.473   3.860   4.005
   29CHL1   C26 2139   2.614   3.913   4.166
   29CHL1  H26A 2140   2.579   3.876   4.265
   29CHL1  H26B 2141   2.695   3.843   4.139
   29CHL1  H26C 2142   2.666   4.006   4.197
   29CHL1   C27 2143   2.410   4.038   4.101
   29CHL1  H27A 2144   2.385   4.005   4.204
   29CHL1  H27B 2145   2.443   4.144   4.112
   29CHL1  H27C 2146   2.311   4.037   4.050
   30CHL1    C3 2147   2.013   2.876   2.460
   30CHL1    H3 2148   2.010   2.766   2.480
   30CHL1    O3 2149   1.998   2.902   2.318
   30CHL1   H3' 2150   1.980   2.996   2.312
   30CHL1    C4 2151   1.900   2.948   2.529
   30CHL1   H4A 2152   1.907   3.057   2.508
   30CHL1   H4B 2153   1.804   2.908   2.491
   30CHL1    C5 2154   1.914   2.936   2.681
   30CHL1    C6 2155   1.813   2.896   2.754
   30CHL1    H6 2156   1.720   2.865   2.704
   30CHL1    C7 2157   1.813   2.898   2.913
   30CHL1   H7A 2158   1.724   2.949   2.956
   30CHL1   H7B 2159   1.798   2.794   2.949
   30CHL1    C8 2160   1.938   2.966   2.973
   30CHL1    H8 2161   1.927   3.077   2.981
   30CHL1   C14 2162   1.956   2.916   3.122
   30CHL1   H14 2163   1.970   2.806   3.117
   30CHL1   C15 2164   1.840   2.933   3.225
   30CHL1  H15A 2165   1.800   3.037   3.216
   30CHL1  H15B 2166   1.760   2.861   3.199
   30CHL1   C16 2167   1.915   2.902   3.357
   30CHL1  H16A 2168   1.891   2.984   3.429
   30CHL1  H16B 2169   1.867   2.817   3.409
   30CHL1   C17 2170   2.065   2.895   3.325
   30CHL1   H17 2171   2.088   2.789   3.305
   30CHL1   C13 2172   2.079   2.972   3.193
   30CHL1   C18 2173   2.068   3.118   3.227
   30CHL1  H18A 2174   2.158   3.158   3.279
   30CHL1  H18B 2175   2.065   3.168   3.128
   30CHL1  H18C 2176   1.976   3.162   3.271
   30CHL1   C12 2177   2.205   2.957   3.115
   30CHL1  H12A 2178   2.285   3.017   3.163
   30CHL1  H12B 2179   2.224   2.847   3.110
   30CHL1   C11 2180   2.189   2.994   2.961
   30CHL1  H11A 2181   2.183   3.105   2.964
   30CHL1  H11B 2182   2.280   2.964   2.905
   30CHL1    C9 2183   2.065   2.931   2.896
   30CHL1    H9 2184   2.078   2.822   2.908
   30CHL1   C10 2185   2.048   2.973   2.745
   30CHL1   C19 2186   2.054   3.130   2.738
   30CHL1  H19A 2187   2.007   3.181   2.825
   30CHL1  H19B 2188   2.158   3.170   2.747
   30CHL1  H19C 2189   2.024   3.174   2.640
   30CHL1    C1 2190   2.163   2.904   2.663
   30CHL1   H1A 2191   2.264   2.944   2.684
   30CHL1   H1B 2192   2.162   2.798   2.697
   30CHL1    C2 2193   2.159   2.921   2.510
   30CHL1   H2A 2194   2.236   2.866   2.451
   30CHL1   H2B 2195   2.170   3.030   2.490
   30CHL1   C20 2196   2.167   2.947   3.429
   30CHL1   H20 2197   2.245   3.010   3.381
   30CHL1   C21 2198   2.242   2.829   3.488
   30CHL1  H21A 2199   2.169   2.761   3.537
   30CHL1  H21B 2200   2.331   2.854   3.548
   30CHL1  H21C 2201   2.298   2.767   3.415
   30CHL1   C22 2202   2.103   3.027   3.548
   30CHL1  H22A 2203   2.065   3.124   3.511
   30CHL1  H22B 2204   2.032   2.954   3.591
   30CHL1   C23 2205   2.206   3.058   3.657
   30CHL1  H23A 2206   2.251   2.967   3.703
   30CHL1  H23B 2207   2.292   3.113   3.612
   30CHL1   C24 2208   2.150   3.142   3.781
   30CHL1  H24A 2209   2.085   3.220   3.736
   30CHL1  H24B 2210   2.082   3.076   3.838
   30CHL1   C25 2211   2.252   3.206   3.871
   30CHL1   H25 2212   2.323   3.266   3.810
   30CHL1   C26 2213   2.193   3.310   3.969
   30CHL1  H26A 2214   2.115   3.256   4.026
   30CHL1  H26B 2215   2.272   3.353   4.036
   30CHL1  H26C 2216   2.144   3.396   3.918
   30CHL1   C27 2217   2.314   3.096   3.954
   30CHL1  H27A 2218   2.238   3.044   4.016
   30CHL1  H27B 2219   2.357   3.020   3.885
   30CHL1  H27C 2220   2.398   3.137   4.014
   31CHL1    C3 2221   2.579   4.594   2.577
   31CHL1    H3 2222   2.563   4.515   2.653
   31CHL1    O3 2223   2.550   4.531   2.455
   31CHL1   H3' 2224   2.495   4.453   2.466
   31CHL1    C4 2225   2.487   4.713   2.602
   31CHL1   H4A 2226   2.496   4.784   2.517
   31CHL1   H4B 2227   2.386   4.667   2.597
   31CHL1    C5 2228   2.516   4.763   2.746
   31CHL1    C6 2229   2.420   4.774   2.844
   31CHL1    H6 2230   2.315   4.756   2.819
   31CHL1    C7 2231   2.447   4.829   2.975
   31CHL1   H7A 2232   2.369   4.904   2.999
   31CHL1   H7B 2233   2.449   4.742   3.044
   31CHL1    C8 2234   2.573   4.912   2.986
   31CHL1    H8 2235   2.571   5.007   2.928
   31CHL1   C14 2236   2.601   4.953   3.130
   31CHL1   H14 2237   2.607   4.862   3.193
   31CHL1   C15 2238   2.505   5.035   3.211
   31CHL1  H15A 2239   2.467   5.112   3.140
   31CHL1  H15B 2240   2.424   4.970   3.249
   31CHL1   C16 2241   2.586   5.082   3.331
   31CHL1  H16A 2242   2.596   5.192   3.327
   31CHL1  H16B 2243   2.548   5.052   3.431
   31CHL1   C17 2244   2.736   5.041   3.306
   31CHL1   H17 2245   2.751   4.942   3.354
   31CHL1   C13 2246   2.742   5.020   3.158
   31CHL1   C18 2247   2.765   5.150   3.076
   31CHL1  H18A 2248   2.727   5.136   2.972
   31CHL1  H18B 2249   2.701   5.230   3.120
   31CHL1  H18C 2250   2.869   5.187   3.063
   31CHL1   C12 2251   2.837   4.917   3.110
   31CHL1  H12A 2252   2.937   4.954   3.139
   31CHL1  H12B 2253   2.818   4.819   3.159
   31CHL1   C11 2254   2.828   4.886   2.962
   31CHL1  H11A 2255   2.849   4.975   2.898
   31CHL1  H11B 2256   2.905   4.810   2.937
   31CHL1    C9 2257   2.688   4.829   2.921
   31CHL1    H9 2258   2.686   4.736   2.983
   31CHL1   C10 2259   2.664   4.799   2.769
   31CHL1   C19 2260   2.672   4.930   2.690
   31CHL1  H19A 2261   2.655   4.915   2.581
   31CHL1  H19B 2262   2.613   5.010   2.740
   31CHL1  H19C 2263   2.769   4.983   2.685
   31CHL1    C1 2264   2.761   4.687   2.725
   31CHL1   H1A 2265   2.865   4.723   2.735
   31CHL1   H1B 2266   2.745   4.594   2.784
   31CHL1    C2 2267   2.735   4.632   2.584
   31CHL1   H2A 2268   2.807   4.550   2.567
   31CHL1   H2B 2269   2.762   4.696   2.497
   31CHL1   C20 2270   2.837   5.137   3.377
   31CHL1   H20 2271   2.843   5.235   3.325
   31CHL1   C21 2272   2.970   5.068   3.390
   31CHL1  H21A 2273   3.039   5.132   3.448
   31CHL1  H21B 2274   3.024   5.065   3.293
   31CHL1  H21C 2275   2.965   4.965   3.431
   31CHL1   C22 2276   2.796   5.173   3.526
   31CHL1  H22A 2277   2.867   5.251   3.561
   31CHL1  H22B 2278   2.697   5.222   3.528
   31CHL1   C23 2279   2.805   5.060   3.627
   31CHL1  H23A 2280   2.733   4.981   3.597
   31CHL1  H23B 2281   2.908   5.017   3.629
   31CHL1   C24 2282   2.757   5.105   3.766
   31CHL1  H24A 2283   2.830   5.177   3.811
   31CHL1  H24B 2284   2.657   5.152   3.756
   31CHL1   C25 2285   2.750   4.995   3.873
   31CHL1   H25 2286   2.673   4.928   3.830
   31CHL1   C26 2287   2.879   4.921   3.904
   31CHL1  H26A 2288   2.912   4.862   3.816
   31CHL1  H26B 2289   2.967   4.986   3.926
   31CHL1  H26C 2290   2.865   4.851   3.989
   31CHL1   C27 2291   2.694   5.045   4.005
   31CHL1  H27A 2292   2.771   5.107   4.056
   31CHL1  H27B 2293   2.598   5.099   3.989
   31CHL1  H27C 2294   2.671   4.960   4.072
   32CHL1    C3 2295   1.638   2.570   2.517
   32CHL1    H3 2296   1.629   2.672   2.560
   32CHL1    O3 2297   1.619   2.565   2.374
   32CHL1   H3' 2298   1.552   2.628   2.348
   32CHL1    C4 2299   1.777   2.515   2.539
   32CHL1   H4A 2300   1.780   2.421   2.480
   32CHL1   H4B 2301   1.856   2.579   2.494
   32CHL1    C5 2302   1.811   2.496   2.684
   32CHL1    C6 2303   1.919   2.549   2.744
   32CHL1    H6 2304   1.990   2.602   2.680
   32CHL1    C7 2305   1.954   2.530   2.889
   32CHL1   H7A 2306   2.056   2.487   2.894
   32CHL1   H7B 2307   1.952   2.627   2.943
   32CHL1    C8 2308   1.867   2.432   2.975
   32CHL1    H8 2309   1.905   2.328   2.962
   32CHL1   C14 2310   1.875   2.465   3.130
   32CHL1   H14 2311   1.836   2.568   3.138
   32CHL1   C15 2312   2.016   2.469   3.188
   32CHL1  H15A 2313   2.075   2.386   3.142
   32CHL1  H15B 2314   2.068   2.562   3.157
   32CHL1   C16 2315   1.992   2.446   3.335
   32CHL1  H16A 2316   2.049   2.354   3.357
   32CHL1  H16B 2317   2.047   2.536   3.372
   32CHL1   C17 2318   1.838   2.446   3.363
   32CHL1   H17 2319   1.807   2.552   3.370
   32CHL1   C13 2320   1.786   2.388   3.230
   32CHL1   C18 2321   1.817   2.239   3.226
   32CHL1  H18A 2322   1.805   2.211   3.119
   32CHL1  H18B 2323   1.917   2.215   3.267
   32CHL1  H18C 2324   1.749   2.174   3.286
   32CHL1   C12 2325   1.643   2.414   3.172
   32CHL1  H12A 2326   1.558   2.362   3.222
   32CHL1  H12B 2327   1.626   2.524   3.178
   32CHL1   C11 2328   1.624   2.382   3.020
   32CHL1  H11A 2329   1.638   2.273   2.999
   32CHL1  H11B 2330   1.522   2.410   2.985
   32CHL1    C9 2331   1.726   2.443   2.925
   32CHL1    H9 2332   1.696   2.549   2.937
   32CHL1   C10 2333   1.717   2.413   2.769
   32CHL1   C19 2334   1.742   2.269   2.743
   32CHL1  H19A 2335   1.825   2.216   2.794
   32CHL1  H19B 2336   1.652   2.212   2.774
   32CHL1  H19C 2337   1.746   2.238   2.636
   32CHL1    C1 2338   1.562   2.446   2.724
   32CHL1   H1A 2339   1.485   2.379   2.769
   32CHL1   H1B 2340   1.551   2.548   2.768
   32CHL1    C2 2341   1.532   2.475   2.573
   32CHL1   H2A 2342   1.438   2.532   2.564
   32CHL1   H2B 2343   1.532   2.377   2.519
   32CHL1   C20 2344   1.806   2.380   3.492
   32CHL1   H20 2345   1.806   2.269   3.482
   32CHL1   C21 2346   1.668   2.435   3.536
   32CHL1  H21A 2347   1.657   2.545   3.535
   32CHL1  H21B 2348   1.642   2.388   3.633
   32CHL1  H21C 2349   1.593   2.401   3.460
   32CHL1   C22 2350   1.911   2.413   3.603
   32CHL1  H22A 2351   2.007   2.369   3.567
   32CHL1  H22B 2352   1.917   2.523   3.600
   32CHL1   C23 2353   1.890   2.365   3.744
   32CHL1  H23A 2354   1.970   2.405   3.810
   32CHL1  H23B 2355   1.790   2.387   3.787
   32CHL1   C24 2356   1.905   2.213   3.758
   32CHL1  H24A 2357   1.813   2.158   3.726
   32CHL1  H24B 2358   1.984   2.169   3.694
   32CHL1   C25 2359   1.933   2.185   3.913
   32CHL1   H25 2360   2.015   2.247   3.955
   32CHL1   C26 2361   1.813   2.230   4.007
   32CHL1  H26A 2362   1.821   2.192   4.111
   32CHL1  H26B 2363   1.809   2.340   4.019
   32CHL1  H26C 2364   1.715   2.192   3.972
   32CHL1   C27 2365   1.971   2.040   3.937
   32CHL1  H27A 2366   1.977   2.008   4.043
   32CHL1  H27B 2367   1.900   1.971   3.887
   32CHL1  H27C 2368   2.071   2.015   3.895
   33CHL1    C3 2369   2.880   3.573   2.546
   33CHL1    H3 2370   2.922   3.676   2.541
   33CHL1    O3 2371   2.832   3.549   2.413
   33CHL1   H3' 2372   2.911   3.555   2.359
   33CHL1    C4 2373   3.000   3.485   2.573
   33CHL1   H4A 2374   2.959   3.382   2.566
   33CHL1   H4B 2375   3.072   3.511   2.492
   33CHL1    C5 2376   3.061   3.508   2.710
   33CHL1    C6 2377   3.191   3.542   2.716
   33CHL1    H6 2378   3.246   3.529   2.622
   33CHL1    C7 2379   3.268   3.584   2.838
   33CHL1   H7A 2380   3.360   3.522   2.851
   33CHL1   H7B 2381   3.294   3.691   2.820
   33CHL1    C8 2382   3.184   3.567   2.960
   33CHL1    H8 2383   3.182   3.461   2.992
   33CHL1   C14 2384   3.238   3.644   3.076
   33CHL1   H14 2385   3.239   3.752   3.048
   33CHL1   C15 2386   3.389   3.615   3.108
   33CHL1  H15A 2387   3.401   3.505   3.108
   33CHL1  H15B 2388   3.466   3.648   3.035
   33CHL1   C16 2389   3.405   3.680   3.246
   33CHL1  H16A 2390   3.438   3.596   3.310
   33CHL1  H16B 2391   3.481   3.760   3.257
   33CHL1   C17 2392   3.262   3.721   3.296
   33CHL1   H17 2393   3.256   3.831   3.285
   33CHL1   C13 2394   3.166   3.645   3.208
   33CHL1   C18 2395   3.142   3.495   3.252
   33CHL1  H18A 2396   3.088   3.497   3.349
   33CHL1  H18B 2397   3.094   3.433   3.173
   33CHL1  H18C 2398   3.242   3.448   3.269
   33CHL1   C12 2399   3.027   3.715   3.184
   33CHL1  H12A 2400   2.957   3.707   3.270
   33CHL1  H12B 2401   3.057   3.820   3.165
   33CHL1   C11 2402   2.954   3.640   3.065
   33CHL1  H11A 2403   2.912   3.548   3.111
   33CHL1  H11B 2404   2.873   3.710   3.036
   33CHL1    C9 2405   3.034   3.613   2.939
   33CHL1    H9 2406   3.058   3.715   2.903
   33CHL1   C10 2407   2.964   3.532   2.829
   33CHL1   C19 2408   2.926   3.390   2.886
   33CHL1  H19A 2409   2.861   3.397   2.976
   33CHL1  H19B 2410   2.884   3.325   2.806
   33CHL1  H19C 2411   3.013   3.337   2.930
   33CHL1    C1 2412   2.829   3.606   2.795
   33CHL1   H1A 2413   2.762   3.586   2.881
   33CHL1   H1B 2414   2.861   3.712   2.781
   33CHL1    C2 2415   2.774   3.571   2.654
   33CHL1   H2A 2416   2.697   3.649   2.632
   33CHL1   H2B 2417   2.729   3.471   2.667
   33CHL1   C20 2418   3.244   3.700   3.448
   33CHL1   H20 2419   3.256   3.591   3.470
   33CHL1   C21 2420   3.103   3.736   3.493
   33CHL1  H21A 2421   3.023   3.670   3.452
   33CHL1  H21B 2422   3.075   3.841   3.468
   33CHL1  H21C 2423   3.100   3.724   3.603
   33CHL1   C22 2424   3.343   3.783   3.531
   33CHL1  H22A 2425   3.444   3.754   3.495
   33CHL1  H22B 2426   3.329   3.890   3.508
   33CHL1   C23 2427   3.333   3.767   3.682
   33CHL1  H23A 2428   3.239   3.811   3.722
   33CHL1  H23B 2429   3.353   3.662   3.714
   33CHL1   C24 2430   3.437   3.845   3.757
   33CHL1  H24A 2431   3.535   3.801   3.729
   33CHL1  H24B 2432   3.425   3.952   3.730
   33CHL1   C25 2433   3.410   3.851   3.907
   33CHL1   H25 2434   3.305   3.879   3.931
   33CHL1   C26 2435   3.446   3.719   3.979
   33CHL1  H26A 2436   3.456   3.735   4.089
   33CHL1  H26B 2437   3.357   3.656   3.959
   33CHL1  H26C 2438   3.547   3.686   3.945
   33CHL1   C27 2439   3.493   3.964   3.971
   33CHL1  H27A 2440   3.601   3.946   3.954
   33CHL1  H27B 2441   3.451   4.056   3.925
   33CHL1  H27C 2442   3.477   3.964   4.081
   34CHL1    C3 2443   1.204   2.256   2.587
   34CHL1    H3 2444   1.308   2.291   2.574
   34CHL1    O3 2445   1.139   2.238   2.458
   34CHL1   H3' 2446   1.045   2.236   2.474
   34CHL1    C4 2447   1.193   2.124   2.672
   34CHL1   H4A 2448   1.089   2.089   2.651
   34CHL1   H4B 2449   1.263   2.050   2.627
   34CHL1    C5 2450   1.218   2.142   2.819
   34CHL1    C6 2451   1.322   2.088   2.887
   34CHL1    H6 2452   1.390   2.014   2.842
   34CHL1    C7 2453   1.339   2.105   3.036
   34CHL1   H7A 2454   1.382   2.009   3.072
   34CHL1   H7B 2455   1.426   2.173   3.046
   34CHL1    C8 2456   1.219   2.163   3.114
   34CHL1    H8 2457   1.147   2.078   3.118
   34CHL1   C14 2458   1.256   2.221   3.251
   34CHL1   H14 2459   1.315   2.310   3.222
   34CHL1   C15 2460   1.340   2.146   3.348
   34CHL1  H15A 2461   1.299   2.044   3.361
   34CHL1  H15B 2462   1.448   2.134   3.325
   34CHL1   C16 2463   1.332   2.211   3.481
   34CHL1  H16A 2464   1.303   2.142   3.563
   34CHL1  H16B 2465   1.432   2.251   3.508
   34CHL1   C17 2466   1.232   2.330   3.461
   34CHL1   H17 2467   1.289   2.419   3.426
   34CHL1   C13 2468   1.143   2.287   3.335
   34CHL1   C18 2469   1.040   2.184   3.382
   34CHL1  H18A 2470   0.968   2.243   3.444
   34CHL1  H18B 2471   0.984   2.146   3.294
   34CHL1  H18C 2472   1.087   2.102   3.440
   34CHL1   C12 2473   1.079   2.401   3.251
   34CHL1  H12A 2474   1.001   2.459   3.304
   34CHL1  H12B 2475   1.159   2.475   3.232
   34CHL1   C11 2476   1.038   2.341   3.116
   34CHL1  H11A 2477   0.962   2.262   3.132
   34CHL1  H11B 2478   0.985   2.425   3.066
   34CHL1    C9 2479   1.158   2.278   3.033
   34CHL1    H9 2480   1.239   2.354   3.040
   34CHL1   C10 2481   1.130   2.244   2.884
   34CHL1   C19 2482   0.985   2.190   2.871
   34CHL1  H19A 2483   0.903   2.257   2.906
   34CHL1  H19B 2484   0.952   2.184   2.765
   34CHL1  H19C 2485   0.980   2.092   2.922
   34CHL1    C1 2486   1.149   2.377   2.807
   34CHL1   H1A 2487   1.079   2.456   2.843
   34CHL1   H1B 2488   1.255   2.401   2.829
   34CHL1    C2 2489   1.126   2.372   2.660
   34CHL1   H2A 2490   1.139   2.467   2.603
   34CHL1   H2B 2491   1.018   2.350   2.643
   34CHL1   C20 2492   1.154   2.384   3.581
   34CHL1   H20 2493   1.064   2.432   3.538
   34CHL1   C21 2494   1.236   2.489   3.656
   34CHL1  H21A 2495   1.269   2.574   3.593
   34CHL1  H21B 2496   1.323   2.442   3.707
   34CHL1  H21C 2497   1.177   2.532   3.740
   34CHL1   C22 2498   1.120   2.272   3.691
   34CHL1  H22A 2499   1.062   2.190   3.643
   34CHL1  H22B 2500   1.218   2.236   3.730
   34CHL1   C23 2501   1.037   2.327   3.810
   34CHL1  H23A 2502   1.113   2.373   3.878
   34CHL1  H23B 2503   0.964   2.405   3.779
   34CHL1   C24 2504   0.960   2.223   3.898
   34CHL1  H24A 2505   1.037   2.143   3.913
   34CHL1  H24B 2506   0.941   2.266   3.998
   34CHL1   C25 2507   0.835   2.165   3.831
   34CHL1   H25 2508   0.857   2.127   3.729
   34CHL1   C26 2509   0.775   2.037   3.903
   34CHL1  H26A 2510   0.685   2.000   3.850
   34CHL1  H26B 2511   0.853   1.958   3.912
   34CHL1  H26C 2512   0.756   2.065   4.009
   34CHL1   C27 2513   0.719   2.268   3.815
   34CHL1  H27A 2514   0.641   2.219   3.752
   34CHL1  H27B 2515   0.676   2.304   3.911
   34CHL1  H27C 2516   0.748   2.362   3.764
   35CHL1    C3 2517   3.438   1.427   2.559
   35CHL1    H3 2518   3.424   1.317   2.564
   35CHL1    O3 2519   3.493   1.460   2.432
   35CHL1   H3' 2520   3.570   1.403   2.425
   35CHL1    C4 2521   3.297   1.490   2.561
   35CHL1   H4A 2522   3.305   1.599   2.541
   35CHL1   H4B 2523   3.248   1.451   2.469
   35CHL1    C5 2524   3.223   1.468   2.692
   35CHL1    C6 2525   3.100   1.408   2.690
   35CHL1    H6 2526   3.055   1.379   2.594
   35CHL1    C7 2527   3.023   1.369   2.810
   35CHL1   H7A 2528   2.917   1.397   2.793
   35CHL1   H7B 2529   3.026   1.259   2.823
   35CHL1    C8 2530   3.077   1.439   2.932
   35CHL1    H8 2531   3.042   1.544   2.929
   35CHL1   C14 2532   3.019   1.386   3.066
   35CHL1   H14 2533   3.056   1.281   3.064
   35CHL1   C15 2534   2.867   1.367   3.073
   35CHL1  H15A 2535   2.806   1.455   3.043
   35CHL1  H15B 2536   2.833   1.278   3.016
   35CHL1   C16 2537   2.844   1.348   3.225
   35CHL1  H16A 2538   2.779   1.423   3.275
   35CHL1  H16B 2539   2.804   1.247   3.251
   35CHL1   C17 2540   2.980   1.365   3.294
   35CHL1   H17 2541   3.019   1.262   3.306
   35CHL1   C13 2542   3.066   1.453   3.201
   35CHL1   C18 2543   3.019   1.602   3.204
   35CHL1  H18A 2544   3.044   1.651   3.107
   35CHL1  H18B 2545   2.909   1.599   3.221
   35CHL1  H18C 2546   3.070   1.654   3.288
   35CHL1   C12 2547   3.217   1.441   3.202
   35CHL1  H12A 2548   3.265   1.512   3.274
   35CHL1  H12B 2549   3.251   1.336   3.212
   35CHL1   C11 2550   3.288   1.492   3.074
   35CHL1  H11A 2551   3.285   1.603   3.080
   35CHL1  H11B 2552   3.399   1.479   3.077
   35CHL1    C9 2553   3.234   1.438   2.938
   35CHL1    H9 2554   3.257   1.330   2.929
   35CHL1   C10 2555   3.304   1.503   2.818
   35CHL1   C19 2556   3.304   1.659   2.824
   35CHL1  H19A 2557   3.200   1.696   2.817
   35CHL1  H19B 2558   3.348   1.695   2.920
   35CHL1  H19C 2559   3.358   1.714   2.745
   35CHL1    C1 2560   3.441   1.452   2.812
   35CHL1   H1A 2561   3.517   1.491   2.883
   35CHL1   H1B 2562   3.443   1.342   2.826
   35CHL1    C2 2563   3.512   1.488   2.678
   35CHL1   H2A 2564   3.612   1.441   2.686
   35CHL1   H2B 2565   3.531   1.596   2.662
   35CHL1   C20 2566   2.968   1.411   3.441
   35CHL1   H20 2567   2.923   1.513   3.438
   35CHL1   C21 2568   3.109   1.425   3.506
   35CHL1  H21A 2569   3.172   1.510   3.472
   35CHL1  H21B 2570   3.152   1.323   3.510
   35CHL1  H21C 2571   3.098   1.449   3.614
   35CHL1   C22 2572   2.867   1.326   3.518
   35CHL1  H22A 2573   2.764   1.350   3.484
   35CHL1  H22B 2574   2.881   1.223   3.479
   35CHL1   C23 2575   2.860   1.338   3.663
   35CHL1  H23A 2576   2.941   1.294   3.726
   35CHL1  H23B 2577   2.858   1.443   3.698
   35CHL1   C24 2578   2.729   1.282   3.717
   35CHL1  H24A 2579   2.644   1.334   3.668
   35CHL1  H24B 2580   2.728   1.180   3.673
   35CHL1   C25 2581   2.704   1.271   3.865
   35CHL1   H25 2582   2.799   1.234   3.909
   35CHL1   C26 2583   2.669   1.404   3.937
   35CHL1  H26A 2584   2.764   1.461   3.931
   35CHL1  H26B 2585   2.587   1.460   3.888
   35CHL1  H26C 2586   2.631   1.388   4.041
   35CHL1   C27 2587   2.607   1.149   3.884
   35CHL1  H27A 2588   2.667   1.056   3.873
   35CHL1  H27B 2589   2.551   1.147   3.980
   35CHL1  H27C 2590   2.534   1.132   3.802
   36CHL1    C3 2591   1.905   5.494   2.500
   36CHL1    H3 2592   1.814   5.432   2.513
   36CHL1    O3 2593   1.893   5.529   2.364
   36CHL1   H3' 2594   1.983   5.559   2.345
   36CHL1    C4 2595   1.903   5.615   2.591
   36CHL1   H4A 2596   1.996   5.670   2.564
   36CHL1   H4B 2597   1.817   5.683   2.570
   36CHL1    C5 2598   1.916   5.575   2.741
   36CHL1    C6 2599   1.824   5.608   2.823
   36CHL1    H6 2600   1.736   5.663   2.785
   36CHL1    C7 2601   1.822   5.572   2.970
   36CHL1   H7A 2602   1.767   5.649   3.028
   36CHL1   H7B 2603   1.768   5.477   2.988
   36CHL1    C8 2604   1.960   5.539   3.016
   36CHL1    H8 2605   2.032   5.623   3.008
   36CHL1   C14 2606   1.952   5.478   3.157
   36CHL1   H14 2607   1.900   5.380   3.144
   36CHL1   C15 2608   1.873   5.551   3.273
   36CHL1  H15A 2609   1.900   5.659   3.267
   36CHL1  H15B 2610   1.762   5.541   3.278
   36CHL1   C16 2611   1.943   5.488   3.393
   36CHL1  H16A 2612   1.995   5.557   3.463
   36CHL1  H16B 2613   1.878   5.411   3.440
   36CHL1   C17 2614   2.050   5.379   3.342
   36CHL1   H17 2615   1.999   5.283   3.318
   36CHL1   C13 2616   2.086   5.444   3.203
   36CHL1   C18 2617   2.171   5.568   3.230
   36CHL1  H18A 2618   2.129   5.641   3.303
   36CHL1  H18B 2619   2.270   5.534   3.264
   36CHL1  H18C 2620   2.189   5.620   3.133
   36CHL1   C12 2621   2.162   5.342   3.120
   36CHL1  H12A 2622   2.262   5.325   3.165
   36CHL1  H12B 2623   2.104   5.247   3.124
   36CHL1   C11 2624   2.171   5.394   2.976
   36CHL1  H11A 2625   2.245   5.477   2.974
   36CHL1  H11B 2626   2.206   5.313   2.910
   36CHL1    C9 2627   2.028   5.437   2.918
   36CHL1    H9 2628   1.958   5.351   2.918
   36CHL1   C10 2629   2.040   5.493   2.775
   36CHL1   C19 2630   2.161   5.585   2.757
   36CHL1  H19A 2631   2.154   5.630   2.656
   36CHL1  H19B 2632   2.152   5.660   2.839
   36CHL1  H19C 2633   2.255   5.527   2.767
   36CHL1    C1 2634   2.046   5.371   2.681
   36CHL1   H1A 2635   2.131   5.301   2.698
   36CHL1   H1B 2636   1.958   5.309   2.709
   36CHL1    C2 2637   2.023   5.398   2.527
   36CHL1   H2A 2638   2.009   5.301   2.474
   36CHL1   H2B 2639   2.109   5.444   2.474
   36CHL1   C20 2640   2.167   5.352   3.446
   36CHL1   H20 2641   2.238   5.438   3.450
   36CHL1   C21 2642   2.259   5.237   3.405
   36CHL1  H21A 2643   2.315   5.186   3.487
   36CHL1  H21B 2644   2.336   5.263   3.329
   36CHL1  H21C 2645   2.208   5.159   3.345
   36CHL1   C22 2646   2.116   5.334   3.591
   36CHL1  H22A 2647   2.032   5.405   3.607
   36CHL1  H22B 2648   2.055   5.242   3.576
   36CHL1   C23 2649   2.215   5.329   3.702
   36CHL1  H23A 2650   2.284   5.249   3.669
   36CHL1  H23B 2651   2.274   5.422   3.707
   36CHL1   C24 2652   2.145   5.285   3.829
   36CHL1  H24A 2653   2.041   5.322   3.837
   36CHL1  H24B 2654   2.135   5.175   3.842
   36CHL1   C25 2655   2.224   5.326   3.956
   36CHL1   H25 2656   2.239   5.436   3.944
   36CHL1   C26 2657   2.147   5.295   4.086
   36CHL1  H26A 2658   2.046   5.339   4.070
   36CHL1  H26B 2659   2.133   5.189   4.116
   36CHL1  H26C 2660   2.198   5.351   4.168
   36CHL1   C27 2661   2.364   5.257   3.967
   36CHL1  H27A 2662   2.358   5.166   4.030
   36CHL1  H27B 2663   2.405   5.231   3.867
   36CHL1  H27C 2664   2.433   5.314   4.033
   37CHL1    C3 2665   1.320   4.951   2.440
   37CHL1    H3 2666   1.362   4.848   2.446
   37CHL1    O3 2667   1.259   4.970   2.313
   37CHL1   H3' 2668   1.275   5.064   2.296
   37CHL1    C4 2669   1.211   4.979   2.535
   37CHL1   H4A 2670   1.174   5.082   2.520
   37CHL1   H4B 2671   1.125   4.913   2.512
   37CHL1    C5 2672   1.268   4.955   2.674
   37CHL1    C6 2673   1.236   4.855   2.752
   37CHL1    H6 2674   1.165   4.775   2.726
   37CHL1    C7 2675   1.281   4.846   2.899
   37CHL1   H7A 2676   1.201   4.817   2.970
   37CHL1   H7B 2677   1.353   4.763   2.914
   37CHL1    C8 2678   1.344   4.980   2.951
   37CHL1    H8 2679   1.265   5.054   2.971
   37CHL1   C14 2680   1.431   4.955   3.078
   37CHL1   H14 2681   1.514   4.893   3.039
   37CHL1   C15 2682   1.357   4.883   3.196
   37CHL1  H15A 2683   1.260   4.936   3.205
   37CHL1  H15B 2684   1.344   4.774   3.180
   37CHL1   C16 2685   1.440   4.917   3.320
   37CHL1  H16A 2686   1.379   4.966   3.399
   37CHL1  H16B 2687   1.488   4.828   3.364
   37CHL1   C17 2688   1.554   5.014   3.266
   37CHL1   H17 2689   1.644   4.954   3.240
   37CHL1   C13 2690   1.500   5.076   3.139
   37CHL1   C18 2691   1.397   5.188   3.174
   37CHL1  H18A 2692   1.314   5.148   3.237
   37CHL1  H18B 2693   1.439   5.280   3.219
   37CHL1  H18C 2694   1.357   5.237   3.083
   37CHL1   C12 2695   1.600   5.132   3.035
   37CHL1  H12A 2696   1.648   5.227   3.067
   37CHL1  H12B 2697   1.685   5.063   3.018
   37CHL1   C11 2698   1.536   5.152   2.900
   37CHL1  H11A 2699   1.481   5.247   2.917
   37CHL1  H11B 2700   1.618   5.171   2.827
   37CHL1    C9 2701   1.441   5.034   2.845
   37CHL1    H9 2702   1.513   4.952   2.825
   37CHL1   C10 2703   1.380   5.053   2.710
   37CHL1   C19 2704   1.309   5.193   2.717
   37CHL1  H19A 2705   1.242   5.221   2.633
   37CHL1  H19B 2706   1.254   5.190   2.813
   37CHL1  H19C 2707   1.377   5.278   2.739
   37CHL1    C1 2708   1.490   5.057   2.600
   37CHL1   H1A 2709   1.562   5.142   2.605
   37CHL1   H1B 2710   1.544   4.962   2.582
   37CHL1    C2 2711   1.425   5.057   2.456
   37CHL1   H2A 2712   1.500   5.047   2.375
   37CHL1   H2B 2713   1.384   5.159   2.444
   37CHL1   C20 2714   1.604   5.095   3.382
   37CHL1   H20 2715   1.514   5.152   3.414
   37CHL1   C21 2716   1.704   5.198   3.332
   37CHL1  H21A 2717   1.751   5.265   3.408
   37CHL1  H21B 2718   1.664   5.277   3.265
   37CHL1  H21C 2719   1.789   5.146   3.283
   37CHL1   C22 2720   1.666   5.006   3.501
   37CHL1  H22A 2721   1.588   4.936   3.539
   37CHL1  H22B 2722   1.746   4.938   3.467
   37CHL1   C23 2723   1.694   5.086   3.630
   37CHL1  H23A 2724   1.782   5.151   3.612
   37CHL1  H23B 2725   1.602   5.145   3.654
   37CHL1   C24 2726   1.724   4.985   3.747
   37CHL1  H24A 2727   1.633   4.926   3.774
   37CHL1  H24B 2728   1.808   4.917   3.723
   37CHL1   C25 2729   1.768   5.058   3.878
   37CHL1   H25 2730   1.870   5.100   3.863
   37CHL1   C26 2731   1.676   5.172   3.932
   37CHL1  H26A 2732   1.644   5.251   3.860
   37CHL1  H26B 2733   1.585   5.122   3.971
   37CHL1  H26C 2734   1.736   5.216   4.015
   37CHL1   C27 2735   1.796   4.951   3.988
   37CHL1  H27A 2736   1.871   4.879   3.950
   37CHL1  H27B 2737   1.836   4.990   4.084
   37CHL1  H27C 2738   1.707   4.889   4.011
   38CHL1    C3 2739   4.704   1.221   2.555
   38CHL1    H3 2740   4.630   1.299   2.582
   38CHL1    O3 2741   4.728   1.218   2.414
   38CHL1   H3' 2742   4.758   1.304   2.383
   38CHL1    C4 2743   4.843   1.255   2.613
   38CHL1   H4A 2744   4.931   1.203   2.570
   38CHL1   H4B 2745   4.860   1.359   2.578
   38CHL1    C5 2746   4.858   1.241   2.763
   38CHL1    C6 2747   4.897   1.338   2.839
   38CHL1    H6 2748   4.922   1.433   2.789
   38CHL1    C7 2749   4.908   1.339   2.989
   38CHL1   H7A 2750   5.000   1.393   3.016
   38CHL1   H7B 2751   4.833   1.403   3.040
   38CHL1    C8 2752   4.905   1.193   3.044
   38CHL1    H8 2753   5.003   1.156   3.008
   38CHL1   C14 2754   4.896   1.184   3.193
   38CHL1   H14 2755   4.794   1.223   3.214
   38CHL1   C15 2756   4.981   1.273   3.282
   38CHL1  H15A 2757   5.079   1.292   3.232
   38CHL1  H15B 2758   4.925   1.368   3.297
   38CHL1   C16 2759   4.978   1.204   3.417
   38CHL1  H16A 2760   5.085   1.181   3.438
   38CHL1  H16B 2761   4.932   1.268   3.494
   38CHL1   C17 2762   4.894   1.073   3.404
   38CHL1   H17 2763   4.789   1.102   3.423
   38CHL1   C13 2764   4.902   1.046   3.253
   38CHL1   C18 2765   5.038   0.977   3.221
   38CHL1  H18A 2766   5.053   0.987   3.111
   38CHL1  H18B 2767   5.120   1.033   3.271
   38CHL1  H18C 2768   5.042   0.869   3.245
   38CHL1   C12 2769   4.780   0.971   3.198
   38CHL1  H12A 2770   4.790   0.865   3.229
   38CHL1  H12B 2771   4.679   0.993   3.240
   38CHL1   C11 2772   4.777   0.968   3.046
   38CHL1  H11A 2773   4.861   0.904   3.010
   38CHL1  H11B 2774   4.678   0.929   3.015
   38CHL1    C9 2775   4.795   1.111   2.975
   38CHL1    H9 2776   4.702   1.167   2.998
   38CHL1   C10 2777   4.818   1.111   2.818
   38CHL1   C19 2778   4.923   1.007   2.780
   38CHL1  H19A 2779   5.018   1.051   2.816
   38CHL1  H19B 2780   4.912   0.901   2.812
   38CHL1  H19C 2781   4.924   0.992   2.670
   38CHL1    C1 2782   4.678   1.067   2.752
   38CHL1   H1A 2783   4.657   0.963   2.784
   38CHL1   H1B 2784   4.603   1.136   2.798
   38CHL1    C2 2785   4.653   1.085   2.598
   38CHL1   H2A 2786   4.546   1.076   2.571
   38CHL1   H2B 2787   4.715   1.004   2.554
   38CHL1   C20 2788   4.930   0.964   3.505
   38CHL1   H20 2789   5.009   0.903   3.457
   38CHL1   C21 2790   4.810   0.870   3.527
   38CHL1  H21A 2791   4.838   0.802   3.609
   38CHL1  H21B 2792   4.801   0.809   3.434
   38CHL1  H21C 2793   4.712   0.917   3.551
   38CHL1   C22 2794   4.988   1.017   3.649
   38CHL1  H22A 2795   5.036   0.931   3.701
   38CHL1  H22B 2796   5.075   1.081   3.622
   38CHL1   C23 2797   4.881   1.088   3.732
   38CHL1  H23A 2798   4.798   1.135   3.674
   38CHL1  H23B 2799   4.831   1.009   3.792
   38CHL1   C24 2800   4.940   1.179   3.836
   38CHL1  H24A 2801   4.998   1.106   3.896
   38CHL1  H24B 2802   5.009   1.260   3.804
   38CHL1   C25 2803   4.825   1.252   3.913
   38CHL1   H25 2804   4.754   1.169   3.935
   38CHL1   C26 2805   4.869   1.314   4.045
   38CHL1  H26A 2806   4.933   1.404   4.029
   38CHL1  H26B 2807   4.784   1.341   4.111
   38CHL1  H26C 2808   4.936   1.246   4.100
   38CHL1   C27 2809   4.737   1.347   3.835
   38CHL1  H27A 2810   4.804   1.403   3.767
   38CHL1  H27B 2811   4.668   1.280   3.779
   38CHL1  H27C 2812   4.693   1.422   3.903
   39CHL1    C3 2813   1.246   1.615   2.558
   39CHL1    H3 2814   1.286   1.518   2.595
   39CHL1    O3 2815   1.290   1.638   2.428
   39CHL1   H3' 2816   1.291   1.561   2.370
   39CHL1    C4 2817   1.089   1.614   2.569
   39CHL1   H4A 2818   1.061   1.713   2.528
   39CHL1   H4B 2819   1.030   1.541   2.510
   39CHL1    C5 2820   1.046   1.596   2.716
   39CHL1    C6 2821   0.962   1.499   2.747
   39CHL1    H6 2822   0.904   1.445   2.671
   39CHL1    C7 2823   0.922   1.471   2.893
   39CHL1   H7A 2824   0.819   1.429   2.900
   39CHL1   H7B 2825   0.997   1.402   2.939
   39CHL1    C8 2826   0.946   1.592   2.991
   39CHL1    H8 2827   0.874   1.671   2.959
   39CHL1   C14 2828   0.931   1.554   3.136
   39CHL1   H14 2829   1.016   1.487   3.159
   39CHL1   C15 2830   0.804   1.476   3.172
   39CHL1  H15A 2831   0.712   1.513   3.121
   39CHL1  H15B 2832   0.815   1.370   3.139
   39CHL1   C16 2833   0.796   1.500   3.324
   39CHL1  H16A 2834   0.705   1.559   3.348
   39CHL1  H16B 2835   0.811   1.403   3.376
   39CHL1   C17 2836   0.916   1.595   3.366
   39CHL1   H17 2837   1.002   1.527   3.384
   39CHL1   C13 2838   0.952   1.669   3.233
   39CHL1   C18 2839   0.837   1.775   3.213
   39CHL1  H18A 2840   0.839   1.847   3.297
   39CHL1  H18B 2841   0.860   1.835   3.122
   39CHL1  H18C 2842   0.747   1.712   3.198
   39CHL1   C12 2843   1.095   1.727   3.219
   39CHL1  H12A 2844   1.125   1.811   3.285
   39CHL1  H12B 2845   1.151   1.635   3.249
   39CHL1   C11 2846   1.128   1.762   3.070
   39CHL1  H11A 2847   1.074   1.857   3.053
   39CHL1  H11B 2848   1.236   1.784   3.055
   39CHL1    C9 2849   1.090   1.648   2.965
   39CHL1    H9 2850   1.164   1.567   2.979
   39CHL1   C10 2851   1.115   1.689   2.817
   39CHL1   C19 2852   1.049   1.828   2.787
   39CHL1  H19A 2853   0.937   1.826   2.790
   39CHL1  H19B 2854   1.099   1.907   2.848
   39CHL1  H19C 2855   1.067   1.862   2.683
   39CHL1    C1 2856   1.266   1.695   2.789
   39CHL1   H1A 2857   1.313   1.771   2.855
   39CHL1   H1B 2858   1.305   1.595   2.818
   39CHL1    C2 2859   1.310   1.719   2.647
   39CHL1   H2A 2860   1.421   1.713   2.656
   39CHL1   H2B 2861   1.285   1.817   2.602
   39CHL1   C20 2862   0.890   1.679   3.494
   39CHL1   H20 2863   0.813   1.757   3.474
   39CHL1   C21 2864   1.017   1.753   3.540
   39CHL1  H21A 2865   1.042   1.842   3.479
   39CHL1  H21B 2866   1.108   1.690   3.540
   39CHL1  H21C 2867   1.022   1.793   3.643
   39CHL1   C22 2868   0.831   1.596   3.606
   39CHL1  H22A 2869   0.810   1.655   3.698
   39CHL1  H22B 2870   0.735   1.546   3.581
   39CHL1   C23 2871   0.919   1.482   3.658
   39CHL1  H23A 2872   0.922   1.398   3.586
   39CHL1  H23B 2873   1.026   1.511   3.647
   39CHL1   C24 2874   0.879   1.438   3.795
   39CHL1  H24A 2875   0.839   1.529   3.844
   39CHL1  H24B 2876   0.805   1.355   3.785
   39CHL1   C25 2877   0.989   1.390   3.880
   39CHL1   H25 2878   1.083   1.441   3.851
   39CHL1   C26 2879   0.951   1.412   4.022
   39CHL1  H26A 2880   1.029   1.374   4.092
   39CHL1  H26B 2881   0.926   1.518   4.044
   39CHL1  H26C 2882   0.861   1.356   4.055
   39CHL1   C27 2883   1.007   1.234   3.856
   39CHL1  H27A 2884   0.909   1.184   3.841
   39CHL1  H27B 2885   1.056   1.221   3.757
   39CHL1  H27C 2886   1.059   1.205   3.950
   40CHL1    C3 2887   1.500   1.171   2.349
   40CHL1    H3 2888   1.451   1.267   2.321
   40CHL1    O3 2889   1.548   1.096   2.240
   40CHL1   H3' 2890   1.596   1.152   2.179
   40CHL1    C4 2891   1.614   1.198   2.440
   40CHL1   H4A 2892   1.675   1.106   2.451
   40CHL1   H4B 2893   1.679   1.270   2.385
   40CHL1    C5 2894   1.581   1.264   2.574
   40CHL1    C6 2895   1.620   1.384   2.610
   40CHL1    H6 2896   1.679   1.454   2.550
   40CHL1    C7 2897   1.582   1.441   2.742
   40CHL1   H7A 2898   1.668   1.494   2.788
   40CHL1   H7B 2899   1.508   1.522   2.727
   40CHL1    C8 2900   1.526   1.339   2.843
   40CHL1    H8 2901   1.606   1.273   2.882
   40CHL1   C14 2902   1.468   1.398   2.976
   40CHL1   H14 2903   1.386   1.469   2.951
   40CHL1   C15 2904   1.565   1.480   3.054
   40CHL1  H15A 2905   1.659   1.423   3.072
   40CHL1  H15B 2906   1.580   1.584   3.017
   40CHL1   C16 2907   1.499   1.490   3.195
   40CHL1  H16A 2908   1.581   1.473   3.269
   40CHL1  H16B 2909   1.464   1.591   3.226
   40CHL1   C17 2910   1.383   1.383   3.198
   40CHL1   H17 2911   1.293   1.436   3.160
   40CHL1   C13 2912   1.415   1.293   3.073
   40CHL1   C18 2913   1.520   1.189   3.112
   40CHL1  H18A 2914   1.483   1.101   3.169
   40CHL1  H18B 2915   1.576   1.136   3.031
   40CHL1  H18C 2916   1.598   1.234   3.176
   40CHL1   C12 2917   1.295   1.228   3.005
   40CHL1  H12A 2918   1.259   1.144   3.068
   40CHL1  H12B 2919   1.209   1.296   2.986
   40CHL1   C11 2920   1.336   1.163   2.867
   40CHL1  H11A 2921   1.384   1.069   2.900
   40CHL1  H11B 2922   1.245   1.121   2.819
   40CHL1    C9 2923   1.419   1.258   2.772
   40CHL1    H9 2924   1.351   1.336   2.732
   40CHL1   C10 2925   1.486   1.178   2.658
   40CHL1   C19 2926   1.571   1.059   2.707
   40CHL1  H19A 2927   1.646   1.110   2.771
   40CHL1  H19B 2928   1.509   0.989   2.768
   40CHL1  H19C 2929   1.610   1.001   2.621
   40CHL1    C1 2930   1.365   1.134   2.567
   40CHL1   H1A 2931   1.292   1.071   2.622
   40CHL1   H1B 2932   1.298   1.221   2.549
   40CHL1    C2 2933   1.397   1.077   2.428
   40CHL1   H2A 2934   1.319   1.044   2.356
   40CHL1   H2B 2935   1.459   0.986   2.448
   40CHL1   C20 2936   1.352   1.319   3.340
   40CHL1   H20 2937   1.440   1.254   3.359
   40CHL1   C21 2938   1.218   1.249   3.324
   40CHL1  H21A 2939   1.172   1.206   3.416
   40CHL1  H21B 2940   1.249   1.159   3.267
   40CHL1  H21C 2941   1.138   1.308   3.274
   40CHL1   C22 2942   1.348   1.433   3.447
   40CHL1  H22A 2943   1.445   1.484   3.460
   40CHL1  H22B 2944   1.277   1.507   3.404
   40CHL1   C23 2945   1.295   1.391   3.590
   40CHL1  H23A 2946   1.288   1.482   3.655
   40CHL1  H23B 2947   1.190   1.356   3.581
   40CHL1   C24 2948   1.383   1.287   3.651
   40CHL1  H24A 2949   1.325   1.218   3.716
   40CHL1  H24B 2950   1.427   1.216   3.577
   40CHL1   C25 2951   1.512   1.343   3.718
   40CHL1   H25 2952   1.547   1.421   3.647
   40CHL1   C26 2953   1.495   1.428   3.845
   40CHL1  H26A 2954   1.473   1.363   3.932
   40CHL1  H26B 2955   1.588   1.485   3.867
   40CHL1  H26C 2956   1.409   1.499   3.835
   40CHL1   C27 2957   1.618   1.229   3.737
   40CHL1  H27A 2958   1.646   1.188   3.638
   40CHL1  H27B 2959   1.706   1.280   3.784
   40CHL1  H27C 2960   1.594   1.143   3.803
   41CHL1    C3 2961   1.478   0.509   2.532
   41CHL1    H3 2962   1.550   0.430   2.561
   41CHL1    O3 2963   1.465   0.489   2.389
   41CHL1   H3' 2964   1.420   0.405   2.374
   41CHL1    C4 2965   1.343   0.495   2.608
   41CHL1   H4A 2966   1.283   0.576   2.561
   41CHL1   H4B 2967   1.310   0.394   2.577
   41CHL1    C5 2968   1.349   0.517   2.757
   41CHL1    C6 2969   1.336   0.415   2.839
   41CHL1    H6 2970   1.310   0.314   2.802
   41CHL1    C7 2971   1.346   0.427   2.989
   41CHL1   H7A 2972   1.263   0.375   3.041
   41CHL1   H7B 2973   1.436   0.372   3.023
   41CHL1    C8 2974   1.345   0.577   3.046
   41CHL1    H8 2975   1.240   0.612   3.052
   41CHL1   C14 2976   1.403   0.581   3.193
   41CHL1   H14 2977   1.503   0.535   3.181
   41CHL1   C15 2978   1.328   0.499   3.304
   41CHL1  H15A 2979   1.219   0.516   3.298
   41CHL1  H15B 2980   1.353   0.391   3.304
   41CHL1   C16 2981   1.383   0.560   3.435
   41CHL1  H16A 2982   1.307   0.571   3.514
   41CHL1  H16B 2983   1.454   0.489   3.482
   41CHL1   C17 2984   1.456   0.686   3.393
   41CHL1   H17 2985   1.561   0.650   3.391
   41CHL1   C13 2986   1.413   0.726   3.249
   41CHL1   C18 2987   1.270   0.789   3.248
   41CHL1  H18A 2988   1.233   0.801   3.144
   41CHL1  H18B 2989   1.190   0.733   3.301
   41CHL1  H18C 2990   1.279   0.893   3.287
   41CHL1   C12 2991   1.514   0.794   3.164
   41CHL1  H12A 2992   1.518   0.898   3.203
   41CHL1  H12B 2993   1.616   0.755   3.181
   41CHL1   C11 2994   1.474   0.804   3.014
   41CHL1  H11A 2995   1.385   0.869   2.996
   41CHL1  H11B 2996   1.561   0.838   2.953
   41CHL1    C9 2997   1.439   0.660   2.955
   41CHL1    H9 2998   1.532   0.599   2.964
   41CHL1   C10 2999   1.415   0.650   2.798
   41CHL1   C19 3000   1.305   0.759   2.769
   41CHL1  H19A 3001   1.350   0.857   2.797
   41CHL1  H19B 3002   1.292   0.769   2.660
   41CHL1  H19C 3003   1.214   0.735   2.828
   41CHL1    C1 3004   1.546   0.676   2.721
   41CHL1   H1A 3005   1.577   0.780   2.744
   41CHL1   H1B 3006   1.621   0.604   2.761
   41CHL1    C2 3007   1.547   0.648   2.567
   41CHL1   H2A 3008   1.656   0.648   2.542
   41CHL1   H2B 3009   1.498   0.733   2.515
   41CHL1   C20 3010   1.444   0.799   3.502
   41CHL1   H20 3011   1.336   0.815   3.523
   41CHL1   C21 3012   1.512   0.930   3.456
   41CHL1  H21A 3013   1.610   0.911   3.406
   41CHL1  H21B 3014   1.506   1.004   3.539
   41CHL1  H21C 3015   1.446   0.969   3.376
   41CHL1   C22 3016   1.517   0.762   3.634
   41CHL1  H22A 3017   1.513   0.652   3.648
   41CHL1  H22B 3018   1.625   0.781   3.620
   41CHL1   C23 3019   1.459   0.833   3.759
   41CHL1  H23A 3020   1.523   0.811   3.848
   41CHL1  H23B 3021   1.463   0.943   3.744
   41CHL1   C24 3022   1.328   0.774   3.803
   41CHL1  H24A 3023   1.247   0.797   3.730
   41CHL1  H24B 3024   1.349   0.665   3.798
   41CHL1   C25 3025   1.287   0.811   3.946
   41CHL1   H25 3026   1.368   0.790   4.020
   41CHL1   C26 3027   1.246   0.960   3.961
   41CHL1  H26A 3028   1.147   0.968   3.911
   41CHL1  H26B 3029   1.232   0.985   4.068
   41CHL1  H26C 3030   1.322   1.031   3.922
   41CHL1   C27 3031   1.173   0.712   3.979
   41CHL1  H27A 3032   1.150   0.730   4.086
   41CHL1  H27B 3033   1.090   0.726   3.906
   41CHL1  H27C 3034   1.211   0.609   3.959
   42CHL1    C3 3035   4.215   1.279   2.685
   42CHL1    H3 3036   4.176   1.382   2.691
   42CHL1    O3 3037   4.240   1.246   2.554
   42CHL1   H3' 3038   4.285   1.317   2.508
   42CHL1    C4 3039   4.348   1.260   2.754
   42CHL1   H4A 3040   4.387   1.160   2.724
   42CHL1   H4B 3041   4.432   1.316   2.708
   42CHL1    C5 3042   4.345   1.267   2.904
   42CHL1    C6 3043   4.425   1.341   2.977
   42CHL1    H6 3044   4.497   1.411   2.931
   42CHL1    C7 3045   4.446   1.324   3.126
   42CHL1   H7A 3046   4.554   1.333   3.150
   42CHL1   H7B 3047   4.399   1.407   3.181
   42CHL1    C8 3048   4.390   1.196   3.185
   42CHL1    H8 3049   4.461   1.115   3.157
   42CHL1   C14 3050   4.379   1.205   3.336
   42CHL1   H14 3051   4.328   1.300   3.362
   42CHL1   C15 3052   4.512   1.227   3.410
   42CHL1  H15A 3053   4.596   1.166   3.372
   42CHL1  H15B 3054   4.546   1.333   3.404
   42CHL1   C16 3055   4.474   1.195   3.560
   42CHL1  H16A 3056   4.555   1.136   3.607
   42CHL1  H16B 3057   4.471   1.290   3.617
   42CHL1   C17 3058   4.336   1.134   3.558
   42CHL1   H17 3059   4.258   1.213   3.571
   42CHL1   C13 3060   4.312   1.088   3.407
   42CHL1   C18 3061   4.398   0.954   3.381
   42CHL1  H18A 3062   4.342   0.875   3.435
   42CHL1  H18B 3063   4.396   0.938   3.271
   42CHL1  H18C 3064   4.504   0.957   3.413
   42CHL1   C12 3065   4.171   1.070   3.350
   42CHL1  H12A 3066   4.117   0.986   3.398
   42CHL1  H12B 3067   4.119   1.164   3.380
   42CHL1   C11 3068   4.169   1.057   3.196
   42CHL1  H11A 3069   4.229   0.965   3.179
   42CHL1  H11B 3070   4.071   1.030   3.151
   42CHL1    C9 3071   4.243   1.179   3.124
   42CHL1    H9 3072   4.180   1.269   3.142
   42CHL1   C10 3073   4.252   1.166   2.971
   42CHL1   C19 3074   4.297   1.016   2.940
   42CHL1  H19A 3075   4.332   1.000   2.835
   42CHL1  H19B 3076   4.381   0.981   3.003
   42CHL1  H19C 3077   4.210   0.953   2.969
   42CHL1    C1 3078   4.112   1.192   2.902
   42CHL1   H1A 3079   4.038   1.120   2.941
   42CHL1   H1B 3080   4.078   1.294   2.930
   42CHL1    C2 3081   4.111   1.183   2.749
   42CHL1   H2A 3082   4.009   1.193   2.705
   42CHL1   H2B 3083   4.146   1.083   2.715
   42CHL1   C20 3084   4.309   1.045   3.682
   42CHL1   H20 3085   4.360   0.947   3.670
   42CHL1   C21 3086   4.154   1.007   3.681
   42CHL1  H21A 3087   4.126   0.952   3.588
   42CHL1  H21B 3088   4.086   1.094   3.696
   42CHL1  H21C 3089   4.130   0.929   3.756
   42CHL1   C22 3090   4.342   1.109   3.815
   42CHL1  H22A 3091   4.450   1.130   3.804
   42CHL1  H22B 3092   4.284   1.200   3.841
   42CHL1   C23 3093   4.324   1.011   3.930
   42CHL1  H23A 3094   4.215   0.994   3.947
   42CHL1  H23B 3095   4.377   0.916   3.909
   42CHL1   C24 3096   4.401   1.056   4.059
   42CHL1  H24A 3097   4.383   0.993   4.149
   42CHL1  H24B 3098   4.509   1.058   4.033
   42CHL1   C25 3099   4.375   1.202   4.095
   42CHL1   H25 3100   4.405   1.274   4.016
   42CHL1   C26 3101   4.229   1.227   4.135
   42CHL1  H26A 3102   4.223   1.311   4.208
   42CHL1  H26B 3103   4.177   1.245   4.038
   42CHL1  H26C 3104   4.180   1.138   4.180
   42CHL1   C27 3105   4.473   1.235   4.204
   42CHL1  H27A 3106   4.459   1.155   4.280
   42CHL1  H27B 3107   4.579   1.224   4.172
   42CHL1  H27C 3108   4.455   1.336   4.246
   43CHL1    C3 3109   4.716   0.553   2.458
   43CHL1    H3 3110   4.770   0.460   2.488
   43CHL1    O3 3111   4.754   0.598   2.329
   43CHL1   H3' 3112   4.714   0.535   2.269
   43CHL1    C4 3113   4.564   0.544   2.468
   43CHL1   H4A 3114   4.516   0.638   2.433
   43CHL1   H4B 3115   4.538   0.461   2.398
   43CHL1    C5 3116   4.513   0.511   2.606
   43CHL1    C6 3117   4.437   0.402   2.631
   43CHL1    H6 3118   4.410   0.338   2.546
   43CHL1    C7 3119   4.382   0.370   2.768
   43CHL1   H7A 3120   4.274   0.360   2.747
   43CHL1   H7B 3121   4.427   0.274   2.804
   43CHL1    C8 3122   4.407   0.480   2.873
   43CHL1    H8 3123   4.337   0.566   2.859
   43CHL1   C14 3124   4.390   0.420   3.011
   43CHL1   H14 3125   4.473   0.346   3.013
   43CHL1   C15 3126   4.261   0.348   3.049
   43CHL1  H15A 3127   4.183   0.413   3.005
   43CHL1  H15B 3128   4.254   0.256   2.988
   43CHL1   C16 3129   4.260   0.336   3.202
   43CHL1  H16A 3130   4.163   0.369   3.245
   43CHL1  H16B 3131   4.279   0.231   3.235
   43CHL1   C17 3132   4.374   0.422   3.252
   43CHL1   H17 3133   4.459   0.351   3.265
   43CHL1   C13 3134   4.416   0.515   3.132
   43CHL1   C18 3135   4.315   0.643   3.126
   43CHL1  H18A 3136   4.209   0.614   3.140
   43CHL1  H18B 3137   4.345   0.703   3.215
   43CHL1  H18C 3138   4.332   0.698   3.031
   43CHL1   C12 3139   4.569   0.558   3.122
   43CHL1  H12A 3140   4.591   0.627   3.206
   43CHL1  H12B 3141   4.623   0.461   3.127
   43CHL1   C11 3142   4.589   0.625   2.986
   43CHL1  H11A 3143   4.532   0.720   2.993
   43CHL1  H11B 3144   4.696   0.650   2.969
   43CHL1    C9 3145   4.540   0.542   2.861
   43CHL1    H9 3146   4.596   0.446   2.860
   43CHL1   C10 3147   4.567   0.600   2.723
   43CHL1   C19 3148   4.491   0.737   2.719
   43CHL1  H19A 3149   4.536   0.791   2.805
   43CHL1  H19B 3150   4.500   0.805   2.631
   43CHL1  H19C 3151   4.382   0.720   2.737
   43CHL1    C1 3152   4.719   0.616   2.704
   43CHL1   H1A 3153   4.750   0.697   2.773
   43CHL1   H1B 3154   4.769   0.523   2.739
   43CHL1    C2 3155   4.761   0.657   2.557
   43CHL1   H2A 3156   4.869   0.682   2.550
   43CHL1   H2B 3157   4.714   0.757   2.546
   43CHL1   C20 3158   4.347   0.485   3.391
   43CHL1   H20 3159   4.264   0.559   3.384
   43CHL1   C21 3160   4.468   0.559   3.449
   43CHL1  H21A 3161   4.515   0.631   3.380
   43CHL1  H21B 3162   4.541   0.477   3.465
   43CHL1  H21C 3163   4.461   0.613   3.546
   43CHL1   C22 3164   4.299   0.378   3.499
   43CHL1  H22A 3165   4.195   0.350   3.473
   43CHL1  H22B 3166   4.357   0.284   3.483
   43CHL1   C23 3167   4.298   0.421   3.645
   43CHL1  H23A 3168   4.397   0.442   3.691
   43CHL1  H23B 3169   4.232   0.510   3.653
   43CHL1   C24 3170   4.248   0.311   3.743
   43CHL1  H24A 3171   4.137   0.312   3.743
   43CHL1  H24B 3172   4.284   0.210   3.717
   43CHL1   C25 3173   4.282   0.348   3.889
   43CHL1   H25 3174   4.391   0.369   3.900
   43CHL1   C26 3175   4.202   0.466   3.943
   43CHL1  H26A 3176   4.236   0.502   4.042
   43CHL1  H26B 3177   4.221   0.553   3.877
   43CHL1  H26C 3178   4.094   0.444   3.938
   43CHL1   C27 3179   4.246   0.235   3.981
   43CHL1  H27A 3180   4.138   0.216   3.969
   43CHL1  H27B 3181   4.295   0.142   3.943
   43CHL1  H27C 3182   4.266   0.258   4.088
   44CHL1    C3 3183   6.894   5.489   2.789
   44CHL1    H3 3184   6.798   5.445   2.822
   44CHL1    O3 3185   6.921   5.449   2.659
   44CHL1   H3' 3186   6.922   5.353   2.653
   44CHL1    C4 3187   6.891   5.646   2.810
   44CHL1   H4A 3188   6.990   5.687   2.781
   44CHL1   H4B 3189   6.814   5.694   2.745
   44CHL1    C5 3190   6.872   5.688   2.947
   44CHL1    C6 3191   6.759   5.746   2.988
   44CHL1    H6 3192   6.674   5.766   2.922
   44CHL1    C7 3193   6.744   5.792   3.130
   44CHL1   H7A 3194   6.716   5.899   3.132
   44CHL1   H7B 3195   6.663   5.729   3.174
   44CHL1    C8 3196   6.873   5.785   3.220
   44CHL1    H8 3197   6.931   5.873   3.185
   44CHL1   C14 3198   6.831   5.790   3.367
   44CHL1   H14 3199   6.767   5.700   3.376
   44CHL1   C15 3200   6.729   5.904   3.408
   44CHL1  H15A 3201   6.767   6.006   3.387
   44CHL1  H15B 3202   6.629   5.893   3.361
   44CHL1   C16 3203   6.734   5.890   3.564
   44CHL1  H16A 3204   6.754   5.994   3.598
   44CHL1  H16B 3205   6.637   5.856   3.608
   44CHL1   C17 3206   6.839   5.784   3.602
   44CHL1   H17 3207   6.772   5.696   3.606
   44CHL1   C13 3208   6.929   5.765   3.474
   44CHL1   C18 3209   7.027   5.883   3.468
   44CHL1  H18A 3210   7.121   5.878   3.527
   44CHL1  H18B 3211   7.065   5.891   3.364
   44CHL1  H18C 3212   6.974   5.979   3.480
   44CHL1   C12 3213   7.008   5.632   3.449
   44CHL1  H12A 3214   7.099   5.628   3.513
   44CHL1  H12B 3215   6.956   5.534   3.455
   44CHL1   C11 3216   7.060   5.629   3.303
   44CHL1  H11A 3217   7.134   5.711   3.288
   44CHL1  H11B 3218   7.108   5.531   3.283
   44CHL1    C9 3219   6.947   5.658   3.194
   44CHL1    H9 3220   6.870   5.577   3.200
   44CHL1   C10 3221   6.984   5.639   3.041
   44CHL1   C19 3222   7.117   5.707   3.012
   44CHL1  H19A 3223   7.156   5.693   2.909
   44CHL1  H19B 3224   7.100   5.813   3.041
   44CHL1  H19C 3225   7.200   5.683   3.082
   44CHL1    C1 3226   7.004   5.486   3.023
   44CHL1   H1A 3227   7.088   5.459   3.091
   44CHL1   H1B 3228   6.913   5.438   3.066
   44CHL1    C2 3229   7.010   5.439   2.874
   44CHL1   H2A 3230   7.026   5.329   2.874
   44CHL1   H2B 3231   7.101   5.477   2.823
   44CHL1   C20 3232   6.902   5.795   3.740
   44CHL1   H20 3233   6.984   5.870   3.738
   44CHL1   C21 3234   6.951   5.652   3.790
   44CHL1  H21A 3235   6.871   5.577   3.773
   44CHL1  H21B 3236   7.041   5.616   3.736
   44CHL1  H21C 3237   6.973   5.650   3.899
   44CHL1   C22 3238   6.812   5.865   3.845
   44CHL1  H22A 3239   6.785   5.965   3.805
   44CHL1  H22B 3240   6.716   5.809   3.850
   44CHL1   C23 3241   6.887   5.887   3.977
   44CHL1  H23A 3242   6.919   5.795   4.032
   44CHL1  H23B 3243   6.978   5.943   3.949
   44CHL1   C24 3244   6.802   5.975   4.076
   44CHL1  H24A 3245   6.876   6.042   4.127
   44CHL1  H24B 3246   6.725   6.030   4.017
   44CHL1   C25 3247   6.723   5.909   4.187
   44CHL1   H25 3248   6.800   5.852   4.244
   44CHL1   C26 3249   6.665   6.012   4.285
   44CHL1  H26A 3250   6.622   5.963   4.375
   44CHL1  H26B 3251   6.741   6.092   4.303
   44CHL1  H26C 3252   6.578   6.056   4.233
   44CHL1   C27 3253   6.626   5.800   4.136
   44CHL1  H27A 3254   6.669   5.730   4.062
   44CHL1  H27B 3255   6.579   5.732   4.211
   44CHL1  H27C 3256   6.540   5.842   4.079
   45CHL1    C3 3257   3.938   6.297   2.362
   45CHL1    H3 3258   3.900   6.401   2.367
   45CHL1    O3 3259   3.986   6.252   2.236
   45CHL1   H3' 3260   4.072   6.290   2.213
   45CHL1    C4 3261   4.043   6.288   2.469
   45CHL1   H4A 3262   4.077   6.182   2.469
   45CHL1   H4B 3263   4.125   6.360   2.450
   45CHL1    C5 3264   4.007   6.298   2.611
   45CHL1    C6 3265   4.079   6.380   2.690
   45CHL1    H6 3266   4.162   6.437   2.647
   45CHL1    C7 3267   4.050   6.403   2.837
   45CHL1   H7A 3268   4.147   6.400   2.892
   45CHL1   H7B 3269   3.999   6.499   2.859
   45CHL1    C8 3270   3.956   6.284   2.890
   45CHL1    H8 3271   4.020   6.195   2.902
   45CHL1   C14 3272   3.916   6.321   3.033
   45CHL1   H14 3273   3.845   6.404   3.010
   45CHL1   C15 3274   4.024   6.367   3.131
   45CHL1  H15A 3275   4.103   6.290   3.119
   45CHL1  H15B 3276   4.054   6.470   3.099
   45CHL1   C16 3277   3.968   6.350   3.270
   45CHL1  H16A 3278   4.017   6.278   3.338
   45CHL1  H16B 3279   3.953   6.446   3.324
   45CHL1   C17 3280   3.826   6.281   3.244
   45CHL1   H17 3281   3.750   6.362   3.238
   45CHL1   C13 3282   3.835   6.214   3.100
   45CHL1   C18 3283   3.909   6.077   3.111
   45CHL1  H18A 3284   3.847   6.005   3.169
   45CHL1  H18B 3285   3.931   6.043   3.008
   45CHL1  H18C 3286   4.002   6.085   3.172
   45CHL1   C12 3287   3.710   6.205   3.008
   45CHL1  H12A 3288   3.647   6.122   3.046
   45CHL1  H12B 3289   3.649   6.297   3.005
   45CHL1   C11 3290   3.743   6.164   2.864
   45CHL1  H11A 3291   3.785   6.062   2.876
   45CHL1  H11B 3292   3.649   6.148   2.807
   45CHL1    C9 3293   3.837   6.263   2.805
   45CHL1    H9 3294   3.787   6.361   2.791
   45CHL1   C10 3295   3.883   6.229   2.658
   45CHL1   C19 3296   3.905   6.073   2.666
   45CHL1  H19A 3297   3.965   6.042   2.577
   45CHL1  H19B 3298   3.957   6.056   2.762
   45CHL1  H19C 3299   3.810   6.016   2.665
   45CHL1    C1 3300   3.773   6.259   2.548
   45CHL1   H1A 3301   3.688   6.192   2.575
   45CHL1   H1B 3302   3.750   6.368   2.554
   45CHL1    C2 3303   3.818   6.216   2.400
   45CHL1   H2A 3304   3.735   6.219   2.327
   45CHL1   H2B 3305   3.852   6.110   2.400
   45CHL1   C20 3306   3.778   6.185   3.355
   45CHL1   H20 3307   3.846   6.097   3.364
   45CHL1   C21 3308   3.631   6.138   3.320
   45CHL1  H21A 3309   3.629   6.057   3.243
   45CHL1  H21B 3310   3.572   6.223   3.279
   45CHL1  H21C 3311   3.574   6.102   3.408
   45CHL1   C22 3312   3.763   6.260   3.494
   45CHL1  H22A 3313   3.794   6.365   3.477
   45CHL1  H22B 3314   3.655   6.264   3.521
   45CHL1   C23 3315   3.843   6.192   3.598
   45CHL1  H23A 3316   3.793   6.096   3.622
   45CHL1  H23B 3317   3.942   6.154   3.563
   45CHL1   C24 3318   3.857   6.278   3.720
   45CHL1  H24A 3319   3.908   6.374   3.695
   45CHL1  H24B 3320   3.755   6.303   3.757
   45CHL1   C25 3321   3.948   6.212   3.828
   45CHL1   H25 3322   3.886   6.122   3.850
   45CHL1   C26 3323   4.092   6.204   3.783
   45CHL1  H26A 3324   4.107   6.158   3.682
   45CHL1  H26B 3325   4.146   6.300   3.794
   45CHL1  H26C 3326   4.142   6.139   3.858
   45CHL1   C27 3327   3.956   6.284   3.962
   45CHL1  H27A 3328   3.974   6.393   3.950
   45CHL1  H27B 3329   3.854   6.289   4.006
   45CHL1  H27C 3330   4.028   6.239   4.033
   46CHL1    C3 3331   4.318   6.897   2.579
   46CHL1    H3 3332   4.269   6.993   2.605
   46CHL1    O3 3333   4.355   6.894   2.443
   46CHL1   H3' 3334   4.428   6.956   2.445
   46CHL1    C4 3335   4.446   6.877   2.669
   46CHL1   H4A 3336   4.491   6.781   2.636
   46CHL1   H4B 3337   4.519   6.958   2.645
   46CHL1    C5 3338   4.417   6.884   2.818
   46CHL1    C6 3339   4.466   6.983   2.900
   46CHL1    H6 3340   4.539   7.051   2.853
   46CHL1    C7 3341   4.437   6.997   3.048
   46CHL1   H7A 3342   4.525   7.017   3.112
   46CHL1   H7B 3343   4.368   7.083   3.060
   46CHL1    C8 3344   4.370   6.869   3.099
   46CHL1    H8 3345   4.441   6.785   3.115
   46CHL1   C14 3346   4.309   6.901   3.233
   46CHL1   H14 3347   4.239   6.986   3.220
   46CHL1   C15 3348   4.399   6.972   3.344
   46CHL1  H15A 3349   4.492   6.911   3.357
   46CHL1  H15B 3350   4.435   7.072   3.314
   46CHL1   C16 3351   4.312   6.958   3.463
   46CHL1  H16A 3352   4.379   6.904   3.533
   46CHL1  H16B 3353   4.298   7.062   3.501
   46CHL1   C17 3354   4.189   6.875   3.429
   46CHL1   H17 3355   4.113   6.950   3.398
   46CHL1   C13 3356   4.225   6.795   3.302
   46CHL1   C18 3357   4.307   6.675   3.334
   46CHL1  H18A 3358   4.357   6.624   3.248
   46CHL1  H18B 3359   4.397   6.699   3.395
   46CHL1  H18C 3360   4.249   6.599   3.390
   46CHL1   C12 3361   4.118   6.747   3.194
   46CHL1  H12A 3362   4.069   6.657   3.237
   46CHL1  H12B 3363   4.040   6.824   3.181
   46CHL1   C11 3364   4.183   6.709   3.059
   46CHL1  H11A 3365   4.253   6.627   3.084
   46CHL1  H11B 3366   4.103   6.671   2.991
   46CHL1    C9 3367   4.262   6.820   2.996
   46CHL1    H9 3368   4.198   6.911   2.995
   46CHL1   C10 3369   4.309   6.787   2.849
   46CHL1   C19 3370   4.361   6.644   2.857
   46CHL1  H19A 3371   4.412   6.629   2.955
   46CHL1  H19B 3372   4.281   6.568   2.848
   46CHL1  H19C 3373   4.428   6.614   2.774
   46CHL1    C1 3374   4.188   6.795   2.756
   46CHL1   H1A 3375   4.135   6.698   2.763
   46CHL1   H1B 3376   4.118   6.878   2.781
   46CHL1    C2 3377   4.208   6.799   2.609
   46CHL1   H2A 3378   4.109   6.821   2.561
   46CHL1   H2B 3379   4.247   6.700   2.577
   46CHL1   C20 3380   4.130   6.803   3.543
   46CHL1   H20 3381   4.209   6.729   3.569
   46CHL1   C21 3382   4.002   6.725   3.506
   46CHL1  H21A 3383   4.016   6.637   3.439
   46CHL1  H21B 3384   3.929   6.791   3.453
   46CHL1  H21C 3385   3.949   6.684   3.595
   46CHL1   C22 3386   4.101   6.909   3.662
   46CHL1  H22A 3387   4.203   6.948   3.685
   46CHL1  H22B 3388   4.041   7.000   3.638
   46CHL1   C23 3389   4.032   6.843   3.784
   46CHL1  H23A 3390   3.923   6.831   3.769
   46CHL1  H23B 3391   4.073   6.740   3.789
   46CHL1   C24 3392   4.062   6.907   3.919
   46CHL1  H24A 3393   4.166   6.903   3.957
   46CHL1  H24B 3394   4.036   7.015   3.920
   46CHL1   C25 3395   3.966   6.851   4.030
   46CHL1   H25 3396   3.867   6.891   4.000
   46CHL1   C26 3397   3.964   6.699   4.028
   46CHL1  H26A 3398   3.913   6.658   4.118
   46CHL1  H26B 3399   3.917   6.664   3.934
   46CHL1  H26C 3400   4.071   6.669   4.036
   46CHL1   C27 3401   4.002   6.906   4.173
   46CHL1  H27A 3402   3.983   7.014   4.163
   46CHL1  H27B 3403   3.937   6.862   4.252
   46CHL1  H27C 3404   4.108   6.882   4.198
   47CHL1    C3 3405   6.902   0.699   2.412
   47CHL1    H3 3406   6.804   0.657   2.443
   47CHL1    O3 3407   6.910   0.693   2.270
   47CHL1   H3' 3408   7.000   0.693   2.238
   47CHL1    C4 3409   6.889   0.845   2.448
   47CHL1   H4A 3410   6.961   0.913   2.398
   47CHL1   H4B 3411   6.791   0.879   2.408
   47CHL1    C5 3412   6.891   0.867   2.600
   47CHL1    C6 3413   6.807   0.948   2.661
   47CHL1    H6 3414   6.734   1.009   2.606
   47CHL1    C7 3415   6.808   0.964   2.813
   47CHL1   H7A 3416   6.793   1.069   2.847
   47CHL1   H7B 3417   6.724   0.906   2.856
   47CHL1    C8 3418   6.926   0.897   2.891
   47CHL1    H8 3419   7.011   0.968   2.897
   47CHL1   C14 3420   6.887   0.865   3.036
   47CHL1   H14 3421   6.799   0.798   3.042
   47CHL1   C15 3422   6.836   0.987   3.123
   47CHL1  H15A 3423   6.908   1.071   3.122
   47CHL1  H15B 3424   6.738   1.023   3.086
   47CHL1   C16 3425   6.835   0.930   3.271
   47CHL1  H16A 3426   6.887   1.007   3.333
   47CHL1  H16B 3427   6.730   0.909   3.300
   47CHL1   C17 3428   6.915   0.795   3.256
   47CHL1   H17 3429   6.838   0.715   3.251
   47CHL1   C13 3430   6.992   0.795   3.120
   47CHL1   C18 3431   7.116   0.884   3.126
   47CHL1  H18A 3432   7.204   0.841   3.179
   47CHL1  H18B 3433   7.163   0.914   3.029
   47CHL1  H18C 3434   7.081   0.973   3.183
   47CHL1   C12 3435   7.023   0.663   3.053
   47CHL1  H12A 3436   7.116   0.617   3.091
   47CHL1  H12B 3437   6.941   0.589   3.068
   47CHL1   C11 3438   7.062   0.687   2.904
   47CHL1  H11A 3439   7.160   0.738   2.908
   47CHL1  H11B 3440   7.087   0.585   2.867
   47CHL1    C9 3441   6.957   0.767   2.824
   47CHL1    H9 3442   6.864   0.706   2.827
   47CHL1   C10 3443   6.994   0.781   2.672
   47CHL1   C19 3444   7.131   0.845   2.655
   47CHL1  H19A 3445   7.127   0.947   2.699
   47CHL1  H19B 3446   7.215   0.786   2.698
   47CHL1  H19C 3447   7.161   0.851   2.548
   47CHL1    C1 3448   6.997   0.633   2.627
   47CHL1   H1A 3449   7.085   0.582   2.673
   47CHL1   H1B 3450   6.904   0.580   2.658
   47CHL1    C2 3451   7.013   0.626   2.471
   47CHL1   H2A 3452   6.999   0.519   2.443
   47CHL1   H2B 3453   7.116   0.653   2.440
   47CHL1   C20 3454   6.996   0.771   3.387
   47CHL1   H20 3455   7.086   0.836   3.390
   47CHL1   C21 3456   7.041   0.627   3.374
   47CHL1  H21A 3457   7.127   0.630   3.305
   47CHL1  H21B 3458   6.967   0.564   3.320
   47CHL1  H21C 3459   7.055   0.571   3.469
   47CHL1   C22 3460   6.921   0.790   3.523
   47CHL1  H22A 3461   6.997   0.760   3.599
   47CHL1  H22B 3462   6.886   0.894   3.541
   47CHL1   C23 3463   6.804   0.700   3.545
   47CHL1  H23A 3464   6.719   0.735   3.482
   47CHL1  H23B 3465   6.817   0.593   3.519
   47CHL1   C24 3466   6.763   0.709   3.696
   47CHL1  H24A 3467   6.852   0.687   3.759
   47CHL1  H24B 3468   6.733   0.814   3.718
   47CHL1   C25 3469   6.653   0.609   3.738
   47CHL1   H25 3470   6.684   0.511   3.696
   47CHL1   C26 3471   6.632   0.601   3.889
   47CHL1  H26A 3472   6.727   0.560   3.930
   47CHL1  H26B 3473   6.607   0.692   3.948
   47CHL1  H26C 3474   6.567   0.518   3.926
   47CHL1   C27 3475   6.519   0.637   3.678
   47CHL1  H27A 3476   6.477   0.731   3.719
   47CHL1  H27B 3477   6.528   0.632   3.567
   47CHL1  H27C 3478   6.454   0.555   3.716
   48CHL1    C3 3479   1.998   0.271   2.556
   48CHL1    H3 3480   2.092   0.214   2.572
   48CHL1    O3 3481   1.994   0.290   2.418
   48CHL1   H3' 3482   1.910   0.336   2.409
   48CHL1    C4 3483   1.876   0.184   2.596
   48CHL1   H4A 3484   1.784   0.242   2.575
   48CHL1   H4B 3485   1.879   0.084   2.549
   48CHL1    C5 3486   1.883   0.159   2.744
   48CHL1    C6 3487   1.888   0.036   2.794
   48CHL1    H6 3488   1.887  -0.051   2.727
   48CHL1    C7 3489   1.867   0.001   2.942
   48CHL1   H7A 3490   1.808  -0.093   2.942
   48CHL1   H7B 3491   1.969  -0.028   2.978
   48CHL1    C8 3492   1.823   0.120   3.031
   48CHL1    H8 3493   1.717   0.145   3.009
   48CHL1   C14 3494   1.846   0.099   3.183
   48CHL1   H14 3495   1.954   0.081   3.200
   48CHL1   C15 3496   1.772  -0.026   3.232
   48CHL1  H15A 3497   1.671  -0.026   3.185
   48CHL1  H15B 3498   1.837  -0.114   3.207
   48CHL1   C16 3499   1.780  -0.016   3.384
   48CHL1  H16A 3500   1.679  -0.039   3.425
   48CHL1  H16B 3501   1.855  -0.085   3.427
   48CHL1   C17 3502   1.832   0.135   3.413
   48CHL1   H17 3503   1.941   0.134   3.436
   48CHL1   C13 3504   1.819   0.216   3.279
   48CHL1   C18 3505   1.667   0.259   3.256
   48CHL1  H18A 3506   1.596   0.175   3.272
   48CHL1  H18B 3507   1.623   0.338   3.320
   48CHL1  H18C 3508   1.648   0.289   3.150
   48CHL1   C12 3509   1.925   0.323   3.238
   48CHL1  H12A 3510   1.902   0.410   3.303
   48CHL1  H12B 3511   2.028   0.288   3.260
   48CHL1   C11 3512   1.901   0.359   3.088
   48CHL1  H11A 3513   1.808   0.421   3.086
   48CHL1  H11B 3514   1.980   0.425   3.048
   48CHL1    C9 3515   1.909   0.241   2.988
   48CHL1    H9 3516   2.017   0.213   2.996
   48CHL1   C10 3517   1.886   0.285   2.842
   48CHL1   C19 3518   1.743   0.346   2.827
   48CHL1  H19A 3519   1.714   0.435   2.888
   48CHL1  H19B 3520   1.731   0.384   2.724
   48CHL1  H19C 3521   1.668   0.266   2.844
   48CHL1    C1 3522   1.992   0.384   2.784
   48CHL1   H1A 3523   1.975   0.483   2.832
   48CHL1   H1B 3524   2.093   0.346   2.812
   48CHL1    C2 3525   1.996   0.399   2.632
   48CHL1   H2A 3526   2.088   0.450   2.595
   48CHL1   H2B 3527   1.910   0.461   2.599
   48CHL1   C20 3528   1.759   0.199   3.534
   48CHL1   H20 3529   1.652   0.183   3.510
   48CHL1   C21 3530   1.790   0.346   3.550
   48CHL1  H21A 3531   1.742   0.405   3.469
   48CHL1  H21B 3532   1.900   0.362   3.552
   48CHL1  H21C 3533   1.756   0.388   3.647
   48CHL1   C22 3534   1.771   0.133   3.674
   48CHL1  H22A 3535   1.720   0.205   3.741
   48CHL1  H22B 3536   1.711   0.039   3.672
   48CHL1   C23 3537   1.912   0.112   3.724
   48CHL1  H23A 3538   1.934   0.007   3.694
   48CHL1  H23B 3539   1.989   0.185   3.693
   48CHL1   C24 3540   1.908   0.103   3.880
   48CHL1  H24A 3541   1.892   0.204   3.924
   48CHL1  H24B 3542   1.825   0.040   3.918
   48CHL1   C25 3543   2.038   0.037   3.942
   48CHL1   H25 3544   2.067  -0.055   3.888
   48CHL1   C26 3545   2.158   0.133   3.920
   48CHL1  H26A 3546   2.135   0.232   3.965
   48CHL1  H26B 3547   2.249   0.093   3.970
   48CHL1  H26C 3548   2.190   0.137   3.814
   48CHL1   C27 3549   2.020   0.015   4.090
   48CHL1  H27A 3550   1.972  -0.084   4.105
   48CHL1  H27B 3551   2.116   0.011   4.145
   48CHL1  H27C 3552   1.951   0.094   4.126
   49CHL1    C3 3553   6.854   4.610   2.681
   49CHL1    H3 3554   6.850   4.720   2.665
   49CHL1    O3 3555   6.920   4.564   2.563
   49CHL1   H3' 3556   6.886   4.475   2.555
   49CHL1    C4 3557   6.943   4.570   2.805
   49CHL1   H4A 3558   6.978   4.465   2.792
   49CHL1   H4B 3559   7.031   4.636   2.792
   49CHL1    C5 3560   6.867   4.597   2.933
   49CHL1    C6 3561   6.925   4.671   3.032
   49CHL1    H6 3562   7.026   4.711   3.019
   49CHL1    C7 3563   6.854   4.693   3.167
   49CHL1   H7A 3564   6.928   4.669   3.246
   49CHL1   H7B 3565   6.832   4.801   3.181
   49CHL1    C8 3566   6.716   4.610   3.179
   49CHL1    H8 3567   6.750   4.511   3.215
   49CHL1   C14 3568   6.633   4.670   3.293
   49CHL1   H14 3569   6.592   4.764   3.251
   49CHL1   C15 3570   6.699   4.698   3.423
   49CHL1  H15A 3571   6.767   4.612   3.444
   49CHL1  H15B 3572   6.760   4.791   3.418
   49CHL1   C16 3573   6.589   4.707   3.523
   49CHL1  H16A 3574   6.599   4.633   3.606
   49CHL1  H16B 3575   6.587   4.810   3.564
   49CHL1   C17 3576   6.454   4.672   3.446
   49CHL1   H17 3577   6.400   4.760   3.406
   49CHL1   C13 3578   6.505   4.591   3.321
   49CHL1   C18 3579   6.540   4.450   3.368
   49CHL1  H18A 3580   6.448   4.390   3.380
   49CHL1  H18B 3581   6.602   4.395   3.295
   49CHL1  H18C 3582   6.591   4.451   3.466
   49CHL1   C12 3583   6.420   4.598   3.187
   49CHL1  H12A 3584   6.319   4.553   3.196
   49CHL1  H12B 3585   6.401   4.706   3.171
   49CHL1   C11 3586   6.491   4.541   3.067
   49CHL1  H11A 3587   6.502   4.433   3.091
   49CHL1  H11B 3588   6.422   4.567   2.983
   49CHL1    C9 3589   6.638   4.598   3.051
   49CHL1    H9 3590   6.625   4.707   3.030
   49CHL1   C10 3591   6.716   4.543   2.928
   49CHL1   C19 3592   6.715   4.392   2.934
   49CHL1  H19A 3593   6.608   4.365   2.921
   49CHL1  H19B 3594   6.781   4.341   2.861
   49CHL1  H19C 3595   6.740   4.354   3.036
   49CHL1    C1 3596   6.637   4.594   2.806
   49CHL1   H1A 3597   6.534   4.553   2.816
   49CHL1   H1B 3598   6.627   4.704   2.819
   49CHL1    C2 3599   6.710   4.558   2.676
   49CHL1   H2A 3600   6.662   4.616   2.595
   49CHL1   H2B 3601   6.695   4.451   2.649
   49CHL1   C20 3602   6.349   4.615   3.544
   49CHL1   H20 3603   6.384   4.521   3.592
   49CHL1   C21 3604   6.229   4.560   3.456
   49CHL1  H21A 3605   6.180   4.644   3.402
   49CHL1  H21B 3606   6.147   4.516   3.516
   49CHL1  H21C 3607   6.259   4.478   3.387
   49CHL1   C22 3608   6.305   4.711   3.658
   49CHL1  H22A 3609   6.386   4.783   3.681
   49CHL1  H22B 3610   6.218   4.763   3.612
   49CHL1   C23 3611   6.280   4.647   3.795
   49CHL1  H23A 3612   6.182   4.594   3.791
   49CHL1  H23B 3613   6.347   4.563   3.822
   49CHL1   C24 3614   6.284   4.751   3.902
   49CHL1  H24A 3615   6.369   4.819   3.881
   49CHL1  H24B 3616   6.195   4.818   3.894
   49CHL1   C25 3617   6.299   4.692   4.048
   49CHL1   H25 3618   6.396   4.639   4.054
   49CHL1   C26 3619   6.312   4.803   4.161
   49CHL1  H26A 3620   6.211   4.848   4.172
   49CHL1  H26B 3621   6.343   4.755   4.256
   49CHL1  H26C 3622   6.393   4.873   4.132
   49CHL1   C27 3623   6.174   4.606   4.087
   49CHL1  H27A 3624   6.177   4.560   4.188
   49CHL1  H27B 3625   6.084   4.669   4.071
   49CHL1  H27C 3626   6.164   4.531   4.006
   50CHL1    C3 3627   5.233   6.073   2.516
   50CHL1    H3 3628   5.148   6.009   2.484
   50CHL1    O3 3629   5.300   6.120   2.399
   50CHL1   H3' 3630   5.341   6.043   2.360
   50CHL1    C4 3631   5.170   6.193   2.587
   50CHL1   H4A 3632   5.238   6.278   2.608
   50CHL1   H4B 3633   5.094   6.241   2.521
   50CHL1    C5 3634   5.107   6.163   2.722
   50CHL1    C6 3635   4.982   6.205   2.749
   50CHL1    H6 3636   4.918   6.257   2.677
   50CHL1    C7 3637   4.928   6.186   2.887
   50CHL1   H7A 3638   4.876   6.281   2.912
   50CHL1   H7B 3639   4.853   6.104   2.881
   50CHL1    C8 3640   5.023   6.146   2.998
   50CHL1    H8 3641   5.071   6.240   3.032
   50CHL1   C14 3642   4.936   6.081   3.114
   50CHL1   H14 3643   4.892   5.989   3.069
   50CHL1   C15 3644   4.811   6.157   3.172
   50CHL1  H15A 3645   4.837   6.265   3.181
   50CHL1  H15B 3646   4.729   6.138   3.100
   50CHL1   C16 3647   4.784   6.085   3.308
   50CHL1  H16A 3648   4.772   6.159   3.390
   50CHL1  H16B 3649   4.699   6.015   3.295
   50CHL1   C17 3650   4.902   5.988   3.330
   50CHL1   H17 3651   4.873   5.885   3.300
   50CHL1   C13 3652   5.010   6.045   3.240
   50CHL1   C18 3653   5.080   6.167   3.303
   50CHL1  H18A 3654   5.020   6.260   3.292
   50CHL1  H18B 3655   5.109   6.158   3.410
   50CHL1  H18C 3656   5.174   6.187   3.247
   50CHL1   C12 3657   5.119   5.939   3.180
   50CHL1  H12A 3658   5.193   5.924   3.261
   50CHL1  H12B 3659   5.055   5.856   3.142
   50CHL1   C11 3660   5.213   5.988   3.063
   50CHL1  H11A 3661   5.275   6.069   3.108
   50CHL1  H11B 3662   5.274   5.906   3.022
   50CHL1    C9 3663   5.122   6.035   2.954
   50CHL1    H9 3664   5.056   5.952   2.919
   50CHL1   C10 3665   5.193   6.092   2.827
   50CHL1   C19 3666   5.315   6.176   2.870
   50CHL1  H19A 3667   5.369   6.235   2.793
   50CHL1  H19B 3668   5.282   6.253   2.943
   50CHL1  H19C 3669   5.389   6.106   2.915
   50CHL1    C1 3670   5.238   5.969   2.738
   50CHL1   H1A 3671   5.292   5.895   2.802
   50CHL1   H1B 3672   5.142   5.923   2.706
   50CHL1    C2 3673   5.321   5.985   2.609
   50CHL1   H2A 3674   5.351   5.890   2.560
   50CHL1   H2B 3675   5.412   6.050   2.614
   50CHL1   C20 3676   4.934   5.977   3.486
   50CHL1   H20 3677   4.934   6.081   3.526
   50CHL1   C21 3678   5.065   5.899   3.505
   50CHL1  H21A 3679   5.081   5.881   3.614
   50CHL1  H21B 3680   5.153   5.948   3.459
   50CHL1  H21C 3681   5.050   5.804   3.450
   50CHL1   C22 3682   4.810   5.909   3.565
   50CHL1  H22A 3683   4.712   5.959   3.550
   50CHL1  H22B 3684   4.805   5.803   3.532
   50CHL1   C23 3685   4.834   5.901   3.720
   50CHL1  H23A 3686   4.742   5.849   3.753
   50CHL1  H23B 3687   4.926   5.847   3.750
   50CHL1   C24 3688   4.826   6.042   3.786
   50CHL1  H24A 3689   4.900   6.118   3.751
   50CHL1  H24B 3690   4.722   6.076   3.765
   50CHL1   C25 3691   4.821   6.038   3.944
   50CHL1   H25 3692   4.769   5.942   3.967
   50CHL1   C26 3693   4.959   6.025   4.008
   50CHL1  H26A 3694   5.016   6.109   3.963
   50CHL1  H26B 3695   4.972   6.032   4.118
   50CHL1  H26C 3696   5.023   5.942   3.973
   50CHL1   C27 3697   4.738   6.147   4.001
   50CHL1  H27A 3698   4.629   6.137   3.986
   50CHL1  H27B 3699   4.756   6.137   4.110
   50CHL1  H27C 3700   4.769   6.253   3.986
   51CHL1    C3 3701   5.073   6.659   2.584
   51CHL1    H3 3702   5.152   6.730   2.617
   51CHL1    O3 3703   5.096   6.631   2.447
   51CHL1   H3' 3704   5.014   6.584   2.429
   51CHL1    C4 3705   5.064   6.534   2.661
   51CHL1   H4A 3706   4.985   6.474   2.611
   51CHL1   H4B 3707   5.155   6.471   2.665
   51CHL1    C5 3708   5.033   6.559   2.807
   51CHL1    C6 3709   5.118   6.515   2.903
   51CHL1    H6 3710   5.200   6.447   2.874
   51CHL1    C7 3711   5.106   6.543   3.050
   51CHL1   H7A 3712   5.126   6.456   3.115
   51CHL1   H7B 3713   5.167   6.629   3.086
   51CHL1    C8 3714   4.961   6.584   3.086
   51CHL1    H8 3715   4.894   6.496   3.075
   51CHL1   C14 3716   4.947   6.647   3.226
   51CHL1   H14 3717   5.007   6.740   3.220
   51CHL1   C15 3718   5.015   6.568   3.339
   51CHL1  H15A 3719   4.967   6.469   3.325
   51CHL1  H15B 3720   5.126   6.562   3.340
   51CHL1   C16 3721   4.957   6.630   3.465
   51CHL1  H16A 3722   4.921   6.549   3.532
   51CHL1  H16B 3723   5.027   6.698   3.519
   51CHL1   C17 3724   4.843   6.725   3.416
   51CHL1   H17 3725   4.889   6.824   3.395
   51CHL1   C13 3726   4.804   6.676   3.275
   51CHL1   C18 3727   4.713   6.554   3.281
   51CHL1  H18A 3728   4.621   6.580   3.338
   51CHL1  H18B 3729   4.685   6.518   3.180
   51CHL1  H18C 3730   4.766   6.472   3.333
   51CHL1   C12 3731   4.758   6.794   3.178
   51CHL1  H12A 3732   4.657   6.827   3.211
   51CHL1  H12B 3733   4.834   6.875   3.184
   51CHL1   C11 3734   4.764   6.754   3.025
   51CHL1  H11A 3735   4.688   6.675   3.011
   51CHL1  H11B 3736   4.735   6.844   2.966
   51CHL1    C9 3737   4.898   6.689   2.985
   51CHL1    H9 3738   4.975   6.769   2.992
   51CHL1   C10 3739   4.907   6.641   2.834
   51CHL1   C19 3740   4.787   6.547   2.795
   51CHL1  H19A 3741   4.779   6.458   2.861
   51CHL1  H19B 3742   4.696   6.608   2.812
   51CHL1  H19C 3743   4.790   6.513   2.689
   51CHL1    C1 3744   4.905   6.763   2.744
   51CHL1   H1A 3745   4.801   6.803   2.753
   51CHL1   H1B 3746   4.972   6.840   2.787
   51CHL1    C2 3747   4.937   6.732   2.602
   51CHL1   H2A 3748   4.944   6.828   2.546
   51CHL1   H2B 3749   4.865   6.664   2.552
   51CHL1   C20 3750   4.731   6.751   3.527
   51CHL1   H20 3751   4.631   6.750   3.478
   51CHL1   C21 3752   4.743   6.891   3.587
   51CHL1  H21A 3753   4.687   6.907   3.682
   51CHL1  H21B 3754   4.693   6.959   3.515
   51CHL1  H21C 3755   4.847   6.928   3.601
   51CHL1   C22 3756   4.721   6.642   3.637
   51CHL1  H22A 3757   4.719   6.539   3.595
   51CHL1  H22B 3758   4.807   6.641   3.706
   51CHL1   C23 3759   4.590   6.652   3.723
   51CHL1  H23A 3760   4.590   6.742   3.788
   51CHL1  H23B 3761   4.509   6.655   3.647
   51CHL1   C24 3762   4.563   6.531   3.817
   51CHL1  H24A 3763   4.573   6.442   3.752
   51CHL1  H24B 3764   4.629   6.524   3.905
   51CHL1   C25 3765   4.416   6.528   3.876
   51CHL1   H25 3766   4.416   6.606   3.955
   51CHL1   C26 3767   4.303   6.559   3.773
   51CHL1  H26A 3768   4.312   6.667   3.747
   51CHL1  H26B 3769   4.326   6.489   3.690
   51CHL1  H26C 3770   4.208   6.529   3.822
   51CHL1   C27 3771   4.398   6.395   3.948
   51CHL1  H27A 3772   4.479   6.365   4.017
   51CHL1  H27B 3773   4.303   6.401   4.005
   51CHL1  H27C 3774   4.390   6.318   3.867
   52CHL1    C3 3775   6.698   6.682   2.645
   52CHL1    H3 3776   6.635   6.716   2.731
   52CHL1    O3 3777   6.632   6.679   2.520
   52CHL1   H3' 3778   6.588   6.593   2.517
   52CHL1    C4 3779   6.804   6.795   2.631
   52CHL1   H4A 3780   6.868   6.787   2.541
   52CHL1   H4B 3781   6.750   6.891   2.618
   52CHL1    C5 3782   6.903   6.799   2.748
   52CHL1    C6 3783   6.911   6.907   2.821
   52CHL1    H6 3784   6.846   6.991   2.793
   52CHL1    C7 3785   6.994   6.923   2.945
   52CHL1   H7A 3786   7.058   7.014   2.948
   52CHL1   H7B 3787   6.940   6.915   3.042
   52CHL1    C8 3788   7.106   6.810   2.963
   52CHL1    H8 3789   7.188   6.843   2.897
   52CHL1   C14 3790   7.160   6.811   3.100
   52CHL1   H14 3791   7.068   6.794   3.160
   52CHL1   C15 3792   7.226   6.934   3.166
   52CHL1  H15A 3793   7.286   6.982   3.086
   52CHL1  H15B 3794   7.146   7.007   3.191
   52CHL1   C16 3795   7.311   6.870   3.284
   52CHL1  H16A 3796   7.419   6.894   3.281
   52CHL1  H16B 3797   7.279   6.921   3.377
   52CHL1   C17 3798   7.297   6.712   3.277
   52CHL1   H17 3799   7.213   6.681   3.344
   52CHL1   C13 3800   7.253   6.689   3.131
   52CHL1   C18 3801   7.375   6.697   3.040
   52CHL1  H18A 3802   7.435   6.606   3.060
   52CHL1  H18B 3803   7.346   6.716   2.934
   52CHL1  H18C 3804   7.445   6.780   3.063
   52CHL1   C12 3805   7.178   6.562   3.100
   52CHL1  H12A 3806   7.244   6.474   3.112
   52CHL1  H12B 3807   7.091   6.549   3.169
   52CHL1   C11 3808   7.126   6.557   2.957
   52CHL1  H11A 3809   7.209   6.549   2.883
   52CHL1  H11B 3810   7.075   6.458   2.949
   52CHL1    C9 3811   7.039   6.677   2.926
   52CHL1    H9 3812   6.957   6.672   3.001
   52CHL1   C10 3813   6.967   6.665   2.789
   52CHL1   C19 3814   7.069   6.637   2.667
   52CHL1  H19A 3815   7.135   6.720   2.636
   52CHL1  H19B 3816   7.139   6.562   2.709
   52CHL1  H19C 3817   7.013   6.599   2.579
   52CHL1    C1 3818   6.860   6.549   2.781
   52CHL1   H1A 3819   6.920   6.455   2.780
   52CHL1   H1B 3820   6.798   6.548   2.873
   52CHL1    C2 3821   6.767   6.544   2.666
   52CHL1   H2A 3822   6.679   6.481   2.690
   52CHL1   H2B 3823   6.815   6.504   2.574
   52CHL1   C20 3824   7.430   6.655   3.325
   52CHL1   H20 3825   7.505   6.692   3.252
   52CHL1   C21 3826   7.417   6.500   3.330
   52CHL1  H21A 3827   7.317   6.463   3.362
   52CHL1  H21B 3828   7.491   6.454   3.399
   52CHL1  H21C 3829   7.429   6.468   3.225
   52CHL1   C22 3830   7.472   6.712   3.462
   52CHL1  H22A 3831   7.573   6.671   3.485
   52CHL1  H22B 3832   7.498   6.819   3.445
   52CHL1   C23 3833   7.376   6.694   3.583
   52CHL1  H23A 3834   7.293   6.767   3.584
   52CHL1  H23B 3835   7.320   6.600   3.562
   52CHL1   C24 3836   7.467   6.694   3.715
   52CHL1  H24A 3837   7.545   6.618   3.694
   52CHL1  H24B 3838   7.514   6.794   3.720
   52CHL1   C25 3839   7.395   6.659   3.845
   52CHL1   H25 3840   7.358   6.555   3.837
   52CHL1   C26 3841   7.479   6.689   3.974
   52CHL1  H26A 3842   7.450   6.625   4.060
   52CHL1  H26B 3843   7.583   6.659   3.950
   52CHL1  H26C 3844   7.484   6.797   3.999
   52CHL1   C27 3845   7.264   6.743   3.863
   52CHL1  H27A 3846   7.219   6.729   3.963
   52CHL1  H27B 3847   7.298   6.848   3.850
   52CHL1  H27C 3848   7.186   6.715   3.789
   53CHL1    C3 3849   0.692   6.381   2.464
   53CHL1    H3 3850   0.752   6.291   2.438
   53CHL1    O3 3851   0.698   6.461   2.349
   53CHL1   H3' 3852   0.633   6.526   2.377
   53CHL1    C4 3853   0.548   6.332   2.484
   53CHL1   H4A 3854   0.483   6.423   2.487
   53CHL1   H4B 3855   0.519   6.280   2.391
   53CHL1    C5 3856   0.534   6.255   2.610
   53CHL1    C6 3857   0.469   6.136   2.613
   53CHL1    H6 3858   0.434   6.092   2.518
   53CHL1    C7 3859   0.447   6.053   2.740
   53CHL1   H7A 3860   0.350   5.998   2.737
   53CHL1   H7B 3861   0.517   5.967   2.739
   53CHL1    C8 3862   0.482   6.132   2.873
   53CHL1    H8 3863   0.394   6.194   2.899
   53CHL1   C14 3864   0.493   6.047   2.992
   53CHL1   H14 3865   0.590   5.996   2.975
   53CHL1   C15 3866   0.395   5.933   3.017
   53CHL1  H15A 3867   0.291   5.973   3.013
   53CHL1  H15B 3868   0.397   5.848   2.945
   53CHL1   C16 3869   0.425   5.887   3.160
   53CHL1  H16A 3870   0.335   5.883   3.225
   53CHL1  H16B 3871   0.468   5.785   3.166
   53CHL1   C17 3872   0.524   5.988   3.224
   53CHL1   H17 3873   0.627   5.951   3.203
   53CHL1   C13 3874   0.516   6.109   3.133
   53CHL1   C18 3875   0.392   6.185   3.173
   53CHL1  H18A 3876   0.395   6.225   3.277
   53CHL1  H18B 3877   0.376   6.273   3.107
   53CHL1  H18C 3878   0.299   6.125   3.161
   53CHL1   C12 3879   0.639   6.193   3.121
   53CHL1  H12A 3880   0.653   6.262   3.207
   53CHL1  H12B 3881   0.728   6.128   3.109
   53CHL1   C11 3882   0.632   6.291   3.000
   53CHL1  H11A 3883   0.545   6.355   3.026
   53CHL1  H11B 3884   0.728   6.347   3.000
   53CHL1    C9 3885   0.603   6.221   2.861
   53CHL1    H9 3886   0.689   6.153   2.841
   53CHL1   C10 3887   0.599   6.315   2.734
   53CHL1   C19 3888   0.501   6.427   2.771
   53CHL1  H19A 3889   0.520   6.477   2.868
   53CHL1  H19B 3890   0.497   6.518   2.707
   53CHL1  H19C 3891   0.397   6.393   2.793
   53CHL1    C1 3892   0.739   6.367   2.708
   53CHL1   H1A 3893   0.770   6.429   2.796
   53CHL1   H1B 3894   0.813   6.284   2.713
   53CHL1    C2 3895   0.749   6.454   2.588
   53CHL1   H2A 3896   0.854   6.481   2.564
   53CHL1   H2B 3897   0.689   6.545   2.608
   53CHL1   C20 3898   0.514   6.011   3.379
   53CHL1   H20 3899   0.421   6.064   3.411
   53CHL1   C21 3900   0.623   6.100   3.427
   53CHL1  H21A 3901   0.627   6.099   3.538
   53CHL1  H21B 3902   0.595   6.204   3.397
   53CHL1  H21C 3903   0.724   6.090   3.383
   53CHL1   C22 3904   0.512   5.877   3.455
   53CHL1  H22A 3905   0.422   5.827   3.415
   53CHL1  H22B 3906   0.596   5.811   3.424
   53CHL1   C23 3907   0.496   5.889   3.606
   53CHL1  H23A 3908   0.595   5.899   3.655
   53CHL1  H23B 3909   0.441   5.979   3.641
   53CHL1   C24 3910   0.444   5.764   3.670
   53CHL1  H24A 3911   0.343   5.743   3.629
   53CHL1  H24B 3912   0.511   5.677   3.652
   53CHL1   C25 3913   0.431   5.775   3.825
   53CHL1   H25 3914   0.410   5.673   3.863
   53CHL1   C26 3915   0.566   5.789   3.894
   53CHL1  H26A 3916   0.634   5.712   3.851
   53CHL1  H26B 3917   0.607   5.890   3.876
   53CHL1  H26C 3918   0.553   5.777   4.004
   53CHL1   C27 3919   0.323   5.882   3.858
   53CHL1  H27A 3920   0.315   5.880   3.969
   53CHL1  H27B 3921   0.363   5.981   3.830
   53CHL1  H27C 3922   0.229   5.859   3.802
   54CHL1    C3 3923   5.168   0.567   2.660
   54CHL1    H3 3924   5.180   0.458   2.674
   54CHL1    O3 3925   5.116   0.593   2.525
   54CHL1   H3' 3926   5.123   0.688   2.511
   54CHL1    C4 3927   5.071   0.629   2.766
   54CHL1   H4A 3928   5.048   0.736   2.751
   54CHL1   H4B 3929   4.973   0.584   2.742
   54CHL1    C5 3930   5.105   0.591   2.909
   54CHL1    C6 3931   5.027   0.512   2.984
   54CHL1    H6 3932   4.934   0.467   2.945
   54CHL1    C7 3933   5.050   0.498   3.131
   54CHL1   H7A 3934   4.966   0.547   3.185
   54CHL1   H7B 3935   5.058   0.392   3.162
   54CHL1    C8 3936   5.176   0.572   3.183
   54CHL1    H8 3937   5.140   0.676   3.200
   54CHL1   C14 3938   5.220   0.522   3.325
   54CHL1   H14 3939   5.242   0.415   3.304
   54CHL1   C15 3940   5.115   0.540   3.438
   54CHL1  H15A 3941   5.075   0.644   3.432
   54CHL1  H15B 3942   5.034   0.466   3.420
   54CHL1   C16 3943   5.198   0.511   3.563
   54CHL1  H16A 3944   5.166   0.579   3.645
   54CHL1  H16B 3945   5.179   0.404   3.586
   54CHL1   C17 3946   5.345   0.526   3.526
   54CHL1   H17 3947   5.381   0.426   3.496
   54CHL1   C13 3948   5.344   0.586   3.378
   54CHL1   C18 3949   5.321   0.742   3.389
   54CHL1  H18A 3950   5.242   0.776   3.460
   54CHL1  H18B 3951   5.412   0.788   3.433
   54CHL1  H18C 3952   5.290   0.786   3.292
   54CHL1   C12 3953   5.460   0.556   3.273
   54CHL1  H12A 3954   5.551   0.602   3.317
   54CHL1  H12B 3955   5.467   0.446   3.264
   54CHL1   C11 3956   5.426   0.618   3.133
   54CHL1  H11A 3957   5.430   0.728   3.140
   54CHL1  H11B 3958   5.501   0.576   3.062
   54CHL1    C9 3959   5.289   0.569   3.076
   54CHL1    H9 3960   5.306   0.461   3.055
   54CHL1   C10 3961   5.248   0.640   2.945
   54CHL1   C19 3962   5.248   0.797   2.963
   54CHL1  H19A 3963   5.209   0.824   3.063
   54CHL1  H19B 3964   5.354   0.830   2.953
   54CHL1  H19C 3965   5.187   0.856   2.890
   54CHL1    C1 3966   5.354   0.602   2.826
   54CHL1   H1A 3967   5.439   0.664   2.861
   54CHL1   H1B 3968   5.368   0.493   2.845
   54CHL1    C2 3969   5.296   0.640   2.687
   54CHL1   H2A 3970   5.364   0.626   2.601
   54CHL1   H2B 3971   5.280   0.750   2.688
   54CHL1   C20 3972   5.425   0.597   3.633
   54CHL1   H20 3973   5.389   0.702   3.648
   54CHL1   C21 3974   5.572   0.607   3.598
   54CHL1  H21A 3975   5.600   0.503   3.571
   54CHL1  H21B 3976   5.629   0.641   3.687
   54CHL1  H21C 3977   5.579   0.671   3.507
   54CHL1   C22 3978   5.404   0.535   3.774
   54CHL1  H22A 3979   5.482   0.579   3.840
   54CHL1  H22B 3980   5.305   0.562   3.818
   54CHL1   C23 3981   5.420   0.383   3.777
   54CHL1  H23A 3982   5.339   0.331   3.720
   54CHL1  H23B 3983   5.524   0.357   3.749
   54CHL1   C24 3984   5.394   0.334   3.922
   54CHL1  H24A 3985   5.459   0.400   3.984
   54CHL1  H24B 3986   5.292   0.367   3.951
   54CHL1   C25 3987   5.438   0.185   3.946
   54CHL1   H25 3988   5.379   0.125   3.873
   54CHL1   C26 3989   5.585   0.173   3.915
   54CHL1  H26A 3990   5.610   0.212   3.814
   54CHL1  H26B 3991   5.661   0.229   3.975
   54CHL1  H26C 3992   5.613   0.066   3.922
   54CHL1   C27 3993   5.412   0.133   4.085
   54CHL1  H27A 3994   5.307   0.097   4.092
   54CHL1  H27B 3995   5.468   0.039   4.103
   54CHL1  H27C 3996   5.426   0.211   4.162
   55CHL1    C3 3997   5.926   1.388   2.432
   55CHL1    H3 3998   5.915   1.499   2.423
   55CHL1    O3 3999   5.965   1.329   2.307
   55CHL1   H3' 4000   6.036   1.366   2.255
   55CHL1    C4 4001   6.041   1.358   2.534
   55CHL1   H4A 4002   6.049   1.247   2.535
   55CHL1   H4B 4003   6.133   1.403   2.493
   55CHL1    C5 4004   6.019   1.391   2.681
   55CHL1    C6 4005   6.120   1.454   2.743
   55CHL1    H6 4006   6.210   1.482   2.686
   55CHL1    C7 4007   6.118   1.480   2.894
   55CHL1   H7A 4008   6.219   1.447   2.927
   55CHL1   H7B 4009   6.105   1.587   2.921
   55CHL1    C8 4010   6.002   1.391   2.966
   55CHL1    H8 4011   6.045   1.288   2.970
   55CHL1   C14 4012   5.981   1.459   3.099
   55CHL1   H14 4013   5.940   1.561   3.087
   55CHL1   C15 4014   6.103   1.482   3.188
   55CHL1  H15A 4015   6.174   1.397   3.190
   55CHL1  H15B 4016   6.163   1.572   3.162
   55CHL1   C16 4017   6.038   1.486   3.333
   55CHL1  H16A 4018   6.076   1.392   3.379
   55CHL1  H16B 4019   6.061   1.570   3.401
   55CHL1   C17 4020   5.888   1.479   3.308
   55CHL1   H17 4021   5.843   1.579   3.290
   55CHL1   C13 4022   5.863   1.405   3.178
   55CHL1   C18 4023   5.883   1.247   3.199
   55CHL1  H18A 4024   5.870   1.187   3.107
   55CHL1  H18B 4025   5.973   1.224   3.260
   55CHL1  H18C 4026   5.787   1.224   3.251
   55CHL1   C12 4027   5.733   1.436   3.093
   55CHL1  H12A 4028   5.648   1.393   3.151
   55CHL1  H12B 4029   5.722   1.546   3.080
   55CHL1   C11 4030   5.739   1.371   2.957
   55CHL1  H11A 4031   5.724   1.261   2.971
   55CHL1  H11B 4032   5.650   1.395   2.896
   55CHL1    C9 4033   5.875   1.406   2.882
   55CHL1    H9 4034   5.864   1.515   2.865
   55CHL1   C10 4035   5.893   1.336   2.744
   55CHL1   C19 4036   5.893   1.181   2.769
   55CHL1  H19A 4037   5.802   1.150   2.824
   55CHL1  H19B 4038   5.915   1.113   2.684
   55CHL1  H19C 4039   5.979   1.156   2.834
   55CHL1    C1 4040   5.777   1.372   2.639
   55CHL1   H1A 4041   5.679   1.331   2.670
   55CHL1   H1B 4042   5.765   1.483   2.646
   55CHL1    C2 4043   5.797   1.329   2.495
   55CHL1   H2A 4044   5.717   1.363   2.426
   55CHL1   H2B 4045   5.816   1.219   2.496
   55CHL1   C20 4046   5.827   1.427   3.437
   55CHL1   H20 4047   5.859   1.324   3.463
   55CHL1   C21 4048   5.675   1.425   3.429
   55CHL1  H21A 4049   5.639   1.354   3.351
   55CHL1  H21B 4050   5.641   1.528   3.405
   55CHL1  H21C 4051   5.636   1.376   3.521
   55CHL1   C22 4052   5.869   1.531   3.549
   55CHL1  H22A 4053   5.973   1.504   3.579
   55CHL1  H22B 4054   5.865   1.634   3.506
   55CHL1   C23 4055   5.790   1.533   3.679
   55CHL1  H23A 4056   5.689   1.577   3.660
   55CHL1  H23B 4057   5.767   1.428   3.707
   55CHL1   C24 4058   5.860   1.609   3.796
   55CHL1  H24A 4059   5.956   1.561   3.823
   55CHL1  H24B 4060   5.885   1.712   3.761
   55CHL1   C25 4061   5.777   1.633   3.920
   55CHL1   H25 4062   5.680   1.669   3.880
   55CHL1   C26 4063   5.762   1.508   4.005
   55CHL1  H26A 4064   5.703   1.423   3.964
   55CHL1  H26B 4065   5.855   1.452   4.025
   55CHL1  H26C 4066   5.724   1.545   4.103
   55CHL1   C27 4067   5.834   1.750   4.003
   55CHL1  H27A 4068   5.938   1.732   4.036
   55CHL1  H27B 4069   5.831   1.842   3.940
   55CHL1  H27C 4070   5.770   1.774   4.091
   56CHL1    C3 4071   6.387   0.900   2.500
   56CHL1    H3 4072   6.496   0.919   2.507
   56CHL1    O3 4073   6.358   0.871   2.360
   56CHL1   H3' 4074   6.329   0.779   2.356
   56CHL1    C4 4075   6.358   0.780   2.592
   56CHL1   H4A 4076   6.262   0.732   2.564
   56CHL1   H4B 4077   6.424   0.693   2.572
   56CHL1    C5 4078   6.376   0.818   2.740
   56CHL1    C6 4079   6.449   0.732   2.818
   56CHL1    H6 4080   6.483   0.636   2.777
   56CHL1    C7 4081   6.455   0.752   2.965
   56CHL1   H7A 4082   6.448   0.654   3.017
   56CHL1   H7B 4083   6.560   0.788   2.970
   56CHL1    C8 4084   6.370   0.859   3.037
   56CHL1    H8 4085   6.272   0.809   3.050
   56CHL1   C14 4086   6.422   0.899   3.170
   56CHL1   H14 4087   6.523   0.939   3.147
   56CHL1   C15 4088   6.443   0.784   3.267
   56CHL1  H15A 4089   6.345   0.732   3.274
   56CHL1  H15B 4090   6.514   0.704   3.237
   56CHL1   C16 4091   6.463   0.871   3.401
   56CHL1  H16A 4092   6.378   0.837   3.464
   56CHL1  H16B 4093   6.561   0.849   3.448
   56CHL1   C17 4094   6.427   1.022   3.373
   56CHL1   H17 4095   6.522   1.076   3.351
   56CHL1   C13 4096   6.348   1.019   3.238
   56CHL1   C18 4097   6.201   0.976   3.274
   56CHL1  H18A 4098   6.199   0.883   3.336
   56CHL1  H18B 4099   6.149   1.051   3.338
   56CHL1  H18C 4100   6.145   0.953   3.181
   56CHL1   C12 4101   6.356   1.147   3.150
   56CHL1  H12A 4102   6.304   1.234   3.196
   56CHL1  H12B 4103   6.462   1.174   3.133
   56CHL1   C11 4104   6.297   1.121   3.003
   56CHL1  H11A 4105   6.187   1.106   3.017
   56CHL1  H11B 4106   6.314   1.203   2.931
   56CHL1    C9 4107   6.365   0.990   2.941
   56CHL1    H9 4108   6.471   1.020   2.924
   56CHL1   C10 4109   6.312   0.942   2.799
   56CHL1   C19 4110   6.161   0.915   2.800
   56CHL1  H19A 4111   6.133   0.839   2.877
   56CHL1  H19B 4112   6.103   1.008   2.817
   56CHL1  H19C 4113   6.121   0.886   2.701
   56CHL1    C1 4114   6.348   1.058   2.699
   56CHL1   H1A 4115   6.292   1.152   2.717
   56CHL1   H1B 4116   6.457   1.080   2.706
   56CHL1    C2 4117   6.312   1.032   2.547
   56CHL1   H2A 4118   6.346   1.122   2.491
   56CHL1   H2B 4119   6.202   1.024   2.533
   56CHL1   C20 4120   6.363   1.093   3.493
   56CHL1   H20 4121   6.272   1.033   3.514
   56CHL1   C21 4122   6.326   1.245   3.462
   56CHL1  H21A 4123   6.309   1.299   3.558
   56CHL1  H21B 4124   6.228   1.239   3.410
   56CHL1  H21C 4125   6.408   1.292   3.404
   56CHL1   C22 4126   6.457   1.082   3.611
   56CHL1  H22A 4127   6.487   0.977   3.631
   56CHL1  H22B 4128   6.551   1.138   3.592
   56CHL1   C23 4129   6.390   1.136   3.733
   56CHL1  H23A 4130   6.376   1.246   3.730
   56CHL1  H23B 4131   6.285   1.101   3.733
   56CHL1   C24 4132   6.474   1.092   3.862
   56CHL1  H24A 4133   6.418   1.118   3.954
   56CHL1  H24B 4134   6.484   0.982   3.858
   56CHL1   C25 4135   6.615   1.157   3.876
   56CHL1   H25 4136   6.661   1.122   3.781
   56CHL1   C26 4137   6.611   1.311   3.871
   56CHL1  H26A 4138   6.541   1.346   3.950
   56CHL1  H26B 4139   6.711   1.355   3.889
   56CHL1  H26C 4140   6.586   1.356   3.773
   56CHL1   C27 4141   6.700   1.091   3.987
   56CHL1  H27A 4142   6.685   0.981   3.993
   56CHL1  H27B 4143   6.806   1.122   3.975
   56CHL1  H27C 4144   6.665   1.127   4.086
   57OSM      N 4145   3.496   3.762   6.306
   57OSM    C15 4146   3.416   3.811   6.421
   57OSM   H15A 4147   3.439   3.915   6.438
   57OSM   H15B 4148   3.444   3.762   6.512
   57OSM   H15C 4149   3.308   3.812   6.407
   57OSM    C14 4150   3.475   3.618   6.279
   57OSM   H14A 4151   3.551   3.584   6.209
   57OSM   H14B 4152   3.380   3.589   6.237
   57OSM   H14C 4153   3.484   3.559   6.368
   57OSM    C13 4154   3.461   3.831   6.177
   57OSM   H13A 4155   3.461   3.938   6.191
   57OSM   H13B 4156   3.361   3.808   6.142
   57OSM   H13C 4157   3.526   3.803   6.095
   57OSM    C12 4158   3.638   3.788   6.325
   57OSM   H12A 4159   3.644   3.896   6.329
   57OSM   H12B 4160   3.695   3.757   6.239
   57OSM    C11 4161   3.707   3.727   6.447
   57OSM   H11A 4162   3.673   3.767   6.545
   57OSM   H11B 4163   3.814   3.757   6.448
   57OSM      P 4164   3.778   3.485   6.370
   57OSM    O13 4165   3.895   3.443   6.446
   57OSM    O14 4166   3.688   3.375   6.334
   57OSM    O11 4167   3.825   3.567   6.240
   57OSM    O12 4168   3.692   3.588   6.456
   57OSM    C1S 4169   3.957   3.598   6.197
   57OSM    H1S 4170   4.029   3.514   6.204
   57OSM    H1T 4171   4.008   3.680   6.252
   57OSM     NF 4172   4.092   3.669   6.007
   57OSM    HNF 4173   4.114   3.766   5.998
   57OSM    C2S 4174   3.955   3.637   6.048
   57OSM    H2S 4175   3.923   3.542   5.999
   57OSM    C3S 4176   3.849   3.744   6.025
   57OSM    H3S 4177   3.864   3.836   6.086
   57OSM     O3 4178   3.714   3.692   6.048
   57OSM    HO3 4179   3.731   3.600   6.067
   57OSM    C4S 4180   3.858   3.783   5.881
   57OSM    H4S 4181   3.814   3.716   5.806
   57OSM    C5S 4182   3.898   3.898   5.830
   57OSM    H5S 4183   3.927   3.983   5.893
   57OSM    C6S 4184   3.920   3.918   5.679
   57OSM    H6S 4185   4.024   3.953   5.668
   57OSM    H6T 4186   3.872   4.012   5.644
   57OSM    C7S 4187   3.878   3.809   5.574
   57OSM    H7S 4188   3.773   3.777   5.593
   57OSM    H7T 4189   3.933   3.720   5.611
   57OSM    C8S 4190   3.904   3.857   5.426
   57OSM    H8S 4191   3.900   3.762   5.368
   57OSM    H8T 4192   4.005   3.900   5.409
   57OSM    C9S 4193   3.799   3.955   5.366
   57OSM    H9S 4194   3.791   4.053   5.418
   57OSM    H9T 4195   3.695   3.916   5.378
   57OSM   C10S 4196   3.833   3.989   5.216
   57OSM   H10S 4197   3.846   3.898   5.154
   57OSM   H10T 4198   3.928   4.047   5.221
   57OSM   C11S 4199   3.729   4.081   5.155
   57OSM   H11S 4200   3.741   4.184   5.196
   57OSM   H11T 4201   3.625   4.055   5.183
   57OSM   C12S 4202   3.744   4.091   4.998
   57OSM   H12S 4203   3.709   3.995   4.956
   57OSM   H12T 4204   3.851   4.107   4.973
   57OSM   C13S 4205   3.654   4.196   4.935
   57OSM   H13S 4206   3.668   4.297   4.980
   57OSM   H13T 4207   3.547   4.170   4.951
   57OSM   C14S 4208   3.669   4.191   4.785
   57OSM   H14S 4209   3.592   4.123   4.743
   57OSM   H14T 4210   3.772   4.160   4.757
   57OSM   C15S 4211   3.633   4.330   4.726
   57OSM   H15S 4212   3.704   4.409   4.758
   57OSM   H15T 4213   3.543   4.368   4.780
   57OSM   C16S 4214   3.610   4.327   4.575
   57OSM   H16S 4215   3.551   4.236   4.549
   57OSM   H16T 4216   3.710   4.318   4.527
   57OSM   C17S 4217   3.538   4.446   4.520
   57OSM   H17S 4218   3.526   4.436   4.410
   57OSM   H17T 4219   3.602   4.531   4.551
   57OSM   C18S 4220   3.391   4.465   4.566
   57OSM   H18S 4221   3.394   4.526   4.659
   57OSM   H18T 4222   3.331   4.374   4.587
   57OSM   H18U 4223   3.353   4.526   4.481
   57OSM    C1F 4224   4.179   3.564   5.981
   57OSM     OF 4225   4.138   3.449   5.993
   57OSM    C2F 4226   4.317   3.598   5.940
   57OSM    H2F 4227   4.391   3.555   6.011
   57OSM    H2G 4228   4.322   3.708   5.955
   57OSM    C3F 4229   4.354   3.574   5.792
   57OSM    H3F 4230   4.343   3.467   5.763
   57OSM    H3G 4231   4.462   3.599   5.789
   57OSM    C4F 4232   4.284   3.664   5.689
   57OSM    H4F 4233   4.293   3.773   5.708
   57OSM    H4G 4234   4.174   3.646   5.694
   57OSM    C5F 4235   4.334   3.634   5.546
   57OSM    H5F 4236   4.310   3.530   5.515
   57OSM    H5G 4237   4.444   3.646   5.540
   57OSM    C6F 4238   4.279   3.733   5.445
   57OSM    H6F 4239   4.339   3.826   5.443
   57OSM    H6G 4240   4.172   3.759   5.459
   57OSM    C7F 4241   4.287   3.674   5.301
   57OSM    H7F 4242   4.227   3.581   5.298
   57OSM    H7G 4243   4.397   3.657   5.294
   57OSM    C8F 4244   4.237   3.774   5.195
   57OSM    H8F 4245   4.137   3.813   5.220
   57OSM    H8G 4246   4.233   3.702   5.111
   57OSM    C9F 4247   4.337   3.885   5.170
   57OSM    H9F 4248   4.440   3.865   5.205
   57OSM   C10F 4249   4.306   4.011   5.134
   57OSM   H10F 4250   4.380   4.093   5.129
   57OSM   C11F 4251   4.170   4.062   5.110
   57OSM   H11F 4252   4.160   4.161   5.160
   57OSM   H11G 4253   4.089   3.995   5.146
   57OSM   C12F 4254   4.159   4.106   4.959
   57OSM   H12F 4255   4.246   4.169   4.932
   57OSM   H12G 4256   4.070   4.167   4.931
   57OSM   C13F 4257   4.164   3.982   4.865
   57OSM   H13F 4258   4.251   3.913   4.874
   57OSM   H13G 4259   4.168   4.017   4.760
   57OSM   C14F 4260   4.035   3.889   4.873
   57OSM   H14F 4261   3.945   3.951   4.853
   57OSM   H14G 4262   4.042   3.839   4.972
   57OSM   C15F 4263   4.027   3.771   4.773
   57OSM   H15F 4264   3.978   3.689   4.831
   57OSM   H15G 4265   4.128   3.735   4.746
   57OSM   C16F 4266   3.949   3.797   4.642
   57OSM   H16F 4267   4.020   3.849   4.575
   57OSM   H16G 4268   3.869   3.874   4.650
   57OSM   C17F 4269   3.903   3.670   4.581
   57OSM   H17F 4270   3.840   3.710   4.498
   57OSM   H17G 4271   3.850   3.609   4.657
   57OSM   C18F 4272   4.013   3.577   4.523
   57OSM   H18F 4273   3.976   3.504   4.447
   57OSM   H18G 4274   4.063   3.532   4.611
   57OSM   H18H 4275   4.078   3.644   4.462
   58OSM      N 4276   3.711   3.084   6.743
   58OSM    C15 4277   3.781   3.188   6.662
   58OSM   H15A 4278   3.770   3.165   6.557
   58OSM   H15B 4279   3.886   3.182   6.687
   58OSM   H15C 4280   3.747   3.287   6.687
   58OSM    C14 4281   3.772   2.950   6.722
   58OSM   H14A 4282   3.744   2.905   6.628
   58OSM   H14B 4283   3.735   2.888   6.801
   58OSM   H14C 4284   3.879   2.955   6.720
   58OSM    C13 4285   3.732   3.112   6.892
   58OSM   H13A 4286   3.678   3.041   6.952
   58OSM   H13B 4287   3.697   3.212   6.914
   58OSM   H13C 4288   3.833   3.103   6.928
   58OSM    C12 4289   3.558   3.086   6.719
   58OSM   H12A 4290   3.525   3.189   6.724
   58OSM   H12B 4291   3.520   3.032   6.805
   58OSM    C11 4292   3.499   3.023   6.585
   58OSM   H11A 4293   3.567   3.055   6.504
   58OSM   H11B 4294   3.396   3.062   6.565
   58OSM      P 4295   3.521   2.783   6.482
   58OSM    O13 4296   3.650   2.719   6.512
   58OSM    O14 4297   3.397   2.703   6.473
   58OSM    O11 4298   3.531   2.870   6.350
   58OSM    O12 4299   3.496   2.885   6.605
   58OSM    C1S 4300   3.650   2.901   6.275
   58OSM    H1S 4301   3.723   2.819   6.289
   58OSM    H1T 4302   3.703   2.992   6.311
   58OSM     NF 4303   3.741   2.897   6.053
   58OSM    HNF 4304   3.782   2.988   6.051
   58OSM    C2S 4305   3.614   2.904   6.127
   58OSM    H2S 4306   3.553   2.815   6.098
   58OSM    C3S 4307   3.532   3.030   6.088
   58OSM    H3S 4308   3.606   3.113   6.098
   58OSM     O3 4309   3.429   3.058   6.183
   58OSM    HO3 4310   3.440   2.988   6.248
   58OSM    C4S 4311   3.468   3.019   5.955
   58OSM    H4S 4312   3.426   2.921   5.929
   58OSM    C5S 4313   3.471   3.112   5.859
   58OSM    H5S 4314   3.531   3.203   5.874
   58OSM    C6S 4315   3.414   3.100   5.715
   58OSM    H6S 4316   3.349   3.189   5.704
   58OSM    H6T 4317   3.353   3.007   5.707
   58OSM    C7S 4318   3.519   3.110   5.602
   58OSM    H7S 4319   3.587   3.022   5.603
   58OSM    H7T 4320   3.570   3.206   5.623
   58OSM    C8S 4321   3.450   3.129   5.469
   58OSM    H8S 4322   3.400   3.228   5.473
   58OSM    H8T 4323   3.371   3.051   5.469
   58OSM    C9S 4324   3.542   3.125   5.344
   58OSM    H9S 4325   3.590   3.025   5.345
   58OSM    H9T 4326   3.624   3.196   5.365
   58OSM   C10S 4327   3.473   3.172   5.216
   58OSM   H10S 4328   3.461   3.282   5.222
   58OSM   H10T 4329   3.376   3.121   5.197
   58OSM   C11S 4330   3.551   3.141   5.083
   58OSM   H11S 4331   3.579   3.034   5.094
   58OSM   H11T 4332   3.644   3.202   5.083
   58OSM   C12S 4333   3.469   3.171   4.961
   58OSM   H12S 4334   3.536   3.200   4.877
   58OSM   H12T 4335   3.425   3.270   4.987
   58OSM   C13S 4336   3.374   3.054   4.932
   58OSM   H13S 4337   3.310   3.044   5.022
   58OSM   H13T 4338   3.431   2.958   4.936
   58OSM   C14S 4339   3.290   3.061   4.807
   58OSM   H14S 4340   3.353   3.075   4.717
   58OSM   H14T 4341   3.212   3.141   4.811
   58OSM   C15S 4342   3.202   2.935   4.792
   58OSM   H15S 4343   3.111   2.948   4.731
   58OSM   H15T 4344   3.164   2.917   4.895
   58OSM   C16S 4345   3.272   2.797   4.755
   58OSM   H16S 4346   3.300   2.746   4.850
   58OSM   H16T 4347   3.362   2.831   4.700
   58OSM   C17S 4348   3.181   2.707   4.677
   58OSM   H17S 4349   3.245   2.619   4.653
   58OSM   H17T 4350   3.156   2.760   4.583
   58OSM   C18S 4351   3.056   2.659   4.758
   58OSM   H18S 4352   3.006   2.748   4.802
   58OSM   H18T 4353   3.081   2.589   4.840
   58OSM   H18U 4354   2.992   2.602   4.687
   58OSM    C1F 4355   3.815   2.793   6.033
   58OSM     OF 4356   3.773   2.677   6.045
   58OSM    C2F 4357   3.958   2.827   5.993
   58OSM    H2F 4358   4.026   2.795   6.075
   58OSM    H2G 4359   3.978   2.934   5.971
   58OSM    C3F 4360   4.013   2.750   5.870
   58OSM    H3F 4361   3.981   2.793   5.773
   58OSM    H3G 4362   4.005   2.641   5.886
   58OSM    C4F 4363   4.165   2.765   5.869
   58OSM    H4F 4364   4.205   2.722   5.963
   58OSM    H4G 4365   4.185   2.874   5.872
   58OSM    C5F 4366   4.222   2.697   5.736
   58OSM    H5F 4367   4.184   2.593   5.745
   58OSM    H5G 4368   4.332   2.694   5.748
   58OSM    C6F 4369   4.178   2.766   5.610
   58OSM    H6F 4370   4.178   2.877   5.613
   58OSM    H6G 4371   4.069   2.741   5.609
   58OSM    C7F 4372   4.248   2.696   5.495
   58OSM    H7F 4373   4.356   2.693   5.523
   58OSM    H7G 4374   4.247   2.767   5.410
   58OSM    C8F 4375   4.205   2.555   5.457
   58OSM    H8F 4376   4.107   2.578   5.410
   58OSM    H8G 4377   4.181   2.493   5.547
   58OSM    C9F 4378   4.291   2.490   5.358
   58OSM    H9F 4379   4.337   2.394   5.388
   58OSM   C10F 4380   4.301   2.520   5.229
   58OSM   H10F 4381   4.371   2.461   5.168
   58OSM   C11F 4382   4.229   2.631   5.160
   58OSM   H11F 4383   4.300   2.717   5.162
   58OSM   H11G 4384   4.136   2.661   5.213
   58OSM   C12F 4385   4.192   2.605   5.008
   58OSM   H12F 4386   4.105   2.668   4.978
   58OSM   H12G 4387   4.155   2.501   4.995
   58OSM   C13F 4388   4.317   2.618   4.926
   58OSM   H13F 4389   4.405   2.558   4.959
   58OSM   H13G 4390   4.341   2.726   4.938
   58OSM   C14F 4391   4.296   2.621   4.768
   58OSM   H14F 4392   4.373   2.691   4.730
   58OSM   H14G 4393   4.201   2.676   4.757
   58OSM   C15F 4394   4.304   2.483   4.697
   58OSM   H15F 4395   4.221   2.418   4.734
   58OSM   H15G 4396   4.400   2.436   4.726
   58OSM   C16F 4397   4.298   2.498   4.549
   58OSM   H16F 4398   4.383   2.558   4.508
   58OSM   H16G 4399   4.201   2.544   4.522
   58OSM   C17F 4400   4.303   2.360   4.476
   58OSM   H17F 4401   4.281   2.360   4.367
   58OSM   H17G 4402   4.237   2.291   4.534
   58OSM   C18F 4403   4.437   2.306   4.490
   58OSM   H18F 4404   4.504   2.375   4.434
   58OSM   H18G 4405   4.443   2.202   4.453
   58OSM   H18H 4406   4.473   2.293   4.594
   59OSM      N 4407   3.864   4.404   6.808
   59OSM    C15 4408   4.012   4.363   6.819
   59OSM   H15A 4409   4.049   4.342   6.720
   59OSM   H15B 4410   4.043   4.277   6.878
   59OSM   H15C 4411   4.078   4.444   6.846
   59OSM    C14 4412   3.789   4.278   6.791
   59OSM   H14A 4413   3.685   4.302   6.776
   59OSM   H14B 4414   3.798   4.216   6.879
   59OSM   H14C 4415   3.829   4.219   6.710
   59OSM    C13 4416   3.828   4.453   6.943
   59OSM   H13A 4417   3.852   4.372   7.010
   59OSM   H13B 4418   3.721   4.474   6.946
   59OSM   H13C 4419   3.884   4.543   6.961
   59OSM    C12 4420   3.833   4.507   6.704
   59OSM   H12A 4421   3.892   4.595   6.725
   59OSM   H12B 4422   3.728   4.530   6.700
   59OSM    C11 4423   3.856   4.482   6.553
   59OSM   H11A 4424   3.844   4.581   6.505
   59OSM   H11B 4425   3.781   4.406   6.522
   59OSM      P 4426   4.019   4.303   6.453
   59OSM    O13 4427   4.167   4.273   6.460
   59OSM    O14 4428   3.925   4.207   6.508
   59OSM    O11 4429   3.977   4.337   6.308
   59OSM    O12 4430   3.991   4.440   6.523
   59OSM    C1S 4431   4.064   4.353   6.199
   59OSM    H1S 4432   4.094   4.249   6.175
   59OSM    H1T 4433   4.157   4.409   6.223
   59OSM     NF 4434   4.055   4.422   5.966
   59OSM    HNF 4435   4.098   4.510   5.946
   59OSM    C2S 4436   3.980   4.419   6.085
   59OSM    H2S 4437   3.886   4.360   6.071
   59OSM    C3S 4438   3.924   4.560   6.126
   59OSM    H3S 4439   4.012   4.628   6.136
   59OSM     O3 4440   3.842   4.564   6.250
   59OSM    HO3 4441   3.877   4.482   6.286
   59OSM    C4S 4442   3.828   4.600   6.016
   59OSM    H4S 4443   3.734   4.544   6.005
   59OSM    C5S 4444   3.845   4.713   5.945
   59OSM    H5S 4445   3.939   4.770   5.947
   59OSM    C6S 4446   3.743   4.769   5.848
   59OSM    H6S 4447   3.693   4.849   5.905
   59OSM    H6T 4448   3.656   4.701   5.831
   59OSM    C7S 4449   3.794   4.833   5.715
   59OSM    H7S 4450   3.856   4.758   5.663
   59OSM    H7T 4451   3.859   4.920   5.740
   59OSM    C8S 4452   3.695   4.879   5.615
   59OSM    H8S 4453   3.645   4.971   5.652
   59OSM    H8T 4454   3.622   4.797   5.596
   59OSM    C9S 4455   3.752   4.918   5.475
   59OSM    H9S 4456   3.791   4.826   5.428
   59OSM    H9T 4457   3.841   4.984   5.488
   59OSM   C10S 4458   3.658   4.993   5.383
   59OSM   H10S 4459   3.622   5.085   5.435
   59OSM   H10T 4460   3.569   4.935   5.353
   59OSM   C11S 4461   3.721   5.039   5.253
   59OSM   H11S 4462   3.777   4.950   5.216
   59OSM   H11T 4463   3.809   5.103   5.274
   59OSM   C12S 4464   3.634   5.098   5.152
   59OSM   H12S 4465   3.579   5.179   5.204
   59OSM   H12T 4466   3.561   5.025   5.111
   59OSM   C13S 4467   3.707   5.164   5.039
   59OSM   H13S 4468   3.766   5.084   4.990
   59OSM   H13T 4469   3.784   5.229   5.086
   59OSM   C14S 4470   3.618   5.231   4.930
   59OSM   H14S 4471   3.589   5.322   4.986
   59OSM   H14T 4472   3.522   5.176   4.913
   59OSM   C15S 4473   3.695   5.268   4.801
   59OSM   H15S 4474   3.698   5.187   4.725
   59OSM   H15T 4475   3.796   5.309   4.819
   59OSM   C16S 4476   3.617   5.390   4.737
   59OSM   H16S 4477   3.640   5.471   4.809
   59OSM   H16T 4478   3.507   5.370   4.739
   59OSM   C17S 4479   3.659   5.442   4.596
   59OSM   H17S 4480   3.622   5.545   4.614
   59OSM   H17T 4481   3.591   5.395   4.523
   59OSM   C18S 4482   3.805   5.457   4.553
   59OSM   H18S 4483   3.868   5.365   4.553
   59OSM   H18T 4484   3.852   5.536   4.615
   59OSM   H18U 4485   3.816   5.491   4.448
   59OSM    C1F 4486   4.087   4.308   5.911
   59OSM     OF 4487   4.034   4.205   5.943
   59OSM    C2F 4488   4.201   4.316   5.804
   59OSM    H2F 4489   4.292   4.270   5.847
   59OSM    H2G 4490   4.226   4.423   5.788
   59OSM    C3F 4491   4.161   4.239   5.676
   59OSM    H3F 4492   4.117   4.145   5.714
   59OSM    H3G 4493   4.248   4.220   5.610
   59OSM    C4F 4494   4.073   4.331   5.593
   59OSM    H4F 4495   4.120   4.430   5.574
   59OSM    H4G 4496   3.974   4.355   5.636
   59OSM    C5F 4497   4.063   4.266   5.452
   59OSM    H5F 4498   4.022   4.166   5.476
   59OSM    H5G 4499   4.162   4.253   5.404
   59OSM    C6F 4500   3.975   4.340   5.349
   59OSM    H6F 4501   3.885   4.380   5.401
   59OSM    H6G 4502   3.942   4.266   5.274
   59OSM    C7F 4503   4.058   4.449   5.281
   59OSM    H7F 4504   4.151   4.405   5.239
   59OSM    H7G 4505   4.090   4.531   5.350
   59OSM    C8F 4506   4.001   4.519   5.157
   59OSM    H8F 4507   4.076   4.596   5.129
   59OSM    H8G 4508   3.911   4.573   5.195
   59OSM    C9F 4509   3.962   4.426   5.041
   59OSM    H9F 4510   3.921   4.327   5.065
   59OSM   C10F 4511   3.968   4.463   4.913
   59OSM   H10F 4512   3.922   4.398   4.836
   59OSM   C11F 4513   4.011   4.602   4.858
   59OSM   H11F 4514   4.095   4.643   4.919
   59OSM   H11G 4515   3.924   4.670   4.867
   59OSM   C12F 4516   4.049   4.596   4.705
   59OSM   H12F 4517   4.134   4.525   4.691
   59OSM   H12G 4518   4.098   4.693   4.681
   59OSM   C13F 4519   3.936   4.567   4.608
   59OSM   H13F 4520   3.861   4.650   4.607
   59OSM   H13G 4521   3.891   4.478   4.657
   59OSM   C14F 4522   3.974   4.515   4.469
   59OSM   H14F 4523   4.013   4.603   4.414
   59OSM   H14G 4524   3.877   4.499   4.416
   59OSM   C15F 4525   4.071   4.394   4.461
   59OSM   H15F 4526   4.153   4.406   4.535
   59OSM   H15G 4527   4.123   4.383   4.363
   59OSM   C16F 4528   3.994   4.264   4.493
   59OSM   H16F 4529   3.904   4.251   4.430
   59OSM   H16G 4530   3.965   4.262   4.600
   59OSM   C17F 4531   4.096   4.150   4.478
   59OSM   H17F 4532   4.043   4.064   4.525
   59OSM   H17G 4533   4.188   4.172   4.535
   59OSM   C18F 4534   4.123   4.110   4.330
   59OSM   H18F 4535   4.229   4.079   4.315
   59OSM   H18G 4536   4.114   4.187   4.251
   59OSM   H18H 4537   4.051   4.030   4.300
   60OSM      N 4538   5.026   3.119   6.276
   60OSM    C15 4539   4.889   3.174   6.239
   60OSM   H15A 4540   4.876   3.191   6.133
   60OSM   H15B 4541   4.864   3.262   6.296
   60OSM   H15C 4542   4.805   3.109   6.262
   60OSM    C14 4543   5.029   3.085   6.419
   60OSM   H14A 4544   5.130   3.086   6.457
   60OSM   H14B 4545   4.982   2.988   6.424
   60OSM   H14C 4546   4.966   3.159   6.466
   60OSM    C13 4547   5.060   3.004   6.192
   60OSM   H13A 4548   4.973   2.941   6.182
   60OSM   H13B 4549   5.149   2.961   6.236
   60OSM   H13C 4550   5.081   3.034   6.091
   60OSM    C12 4551   5.118   3.232   6.252
   60OSM   H12A 4552   5.089   3.319   6.310
   60OSM   H12B 4553   5.092   3.268   6.154
   60OSM    C11 4554   5.276   3.227   6.256
   60OSM   H11A 4555   5.325   3.326   6.245
   60OSM   H11B 4556   5.290   3.160   6.168
   60OSM      P 4557   5.414   3.047   6.388
   60OSM    O13 4558   5.487   3.059   6.516
   60OSM    O14 4559   5.323   2.934   6.376
   60OSM    O11 4560   5.510   3.061   6.260
   60OSM    O12 4561   5.324   3.174   6.379
   60OSM    C1S 4562   5.500   2.956   6.163
   60OSM    H1S 4563   5.398   2.920   6.141
   60OSM    H1T 4564   5.560   2.868   6.196
   60OSM     NF 4565   5.567   2.859   5.944
   60OSM    HNF 4566   5.656   2.814   5.941
   60OSM    C2S 4567   5.544   2.994   6.015
   60OSM    H2S 4568   5.453   3.037   5.967
   60OSM    C3S 4569   5.671   3.091   6.009
   60OSM    H3S 4570   5.750   3.025   6.052
   60OSM     O3 4571   5.658   3.206   6.083
   60OSM    HO3 4572   5.587   3.186   6.145
   60OSM    C4S 4573   5.704   3.120   5.861
   60OSM    H4S 4574   5.778   3.057   5.809
   60OSM    C5S 4575   5.652   3.210   5.783
   60OSM    H5S 4576   5.577   3.274   5.833
   60OSM    C6S 4577   5.684   3.252   5.644
   60OSM    H6S 4578   5.748   3.343   5.648
   60OSM    H6T 4579   5.587   3.290   5.606
   60OSM    C7S 4580   5.737   3.142   5.546
   60OSM    H7S 4581   5.673   3.051   5.546
   60OSM    H7T 4582   5.835   3.111   5.589
   60OSM    C8S 4583   5.770   3.201   5.406
   60OSM    H8S 4584   5.842   3.285   5.419
   60OSM    H8T 4585   5.677   3.244   5.363
   60OSM    C9S 4586   5.842   3.107   5.313
   60OSM    H9S 4587   5.777   3.019   5.292
   60OSM    H9T 4588   5.934   3.074   5.366
   60OSM   C10S 4589   5.881   3.177   5.184
   60OSM   H10S 4590   5.949   3.263   5.204
   60OSM   H10T 4591   5.784   3.213   5.144
   60OSM   C11S 4592   5.959   3.089   5.080
   60OSM   H11S 4593   5.976   3.145   4.986
   60OSM   H11T 4594   5.908   2.995   5.050
   60OSM   C12S 4595   6.093   3.052   5.139
   60OSM   H12S 4596   6.081   2.979   5.221
   60OSM   H12T 4597   6.131   3.145   5.186
   60OSM   C13S 4598   6.191   3.011   5.025
   60OSM   H13S 4599   6.292   3.004   5.073
   60OSM   H13T 4600   6.192   3.093   4.951
   60OSM   C14S 4601   6.149   2.884   4.943
   60OSM   H14S 4602   6.041   2.900   4.924
   60OSM   H14T 4603   6.163   2.793   5.006
   60OSM   C15S 4604   6.226   2.871   4.806
   60OSM   H15S 4605   6.332   2.891   4.834
   60OSM   H15T 4606   6.186   2.955   4.745
   60OSM   C16S 4607   6.201   2.741   4.727
   60OSM   H16S 4608   6.249   2.663   4.790
   60OSM   H16T 4609   6.253   2.750   4.629
   60OSM   C17S 4610   6.051   2.708   4.716
   60OSM   H17S 4611   5.995   2.798   4.683
   60OSM   H17T 4612   6.010   2.683   4.816
   60OSM   C18S 4613   6.025   2.592   4.622
   60OSM   H18S 4614   5.918   2.593   4.592
   60OSM   H18T 4615   6.044   2.496   4.675
   60OSM   H18U 4616   6.087   2.586   4.530
   60OSM    C1F 4617   5.467   2.785   5.900
   60OSM     OF 4618   5.347   2.809   5.917
   60OSM    C2F 4619   5.509   2.667   5.820
   60OSM    H2F 4620   5.475   2.577   5.875
   60OSM    H2G 4621   5.619   2.653   5.829
   60OSM    C3F 4622   5.464   2.670   5.670
   60OSM    H3F 4623   5.354   2.670   5.654
   60OSM    H3G 4624   5.502   2.581   5.615
   60OSM    C4F 4625   5.524   2.792   5.588
   60OSM    H4F 4626   5.634   2.777   5.579
   60OSM    H4G 4627   5.499   2.883   5.646
   60OSM    C5F 4628   5.460   2.791   5.445
   60OSM    H5F 4629   5.350   2.787   5.460
   60OSM    H5G 4630   5.488   2.697   5.393
   60OSM    C6F 4631   5.500   2.911   5.358
   60OSM    H6F 4632   5.610   2.922   5.355
   60OSM    H6G 4633   5.464   3.001   5.411
   60OSM    C7F 4634   5.442   2.917   5.216
   60OSM    H7F 4635   5.332   2.926   5.227
   60OSM    H7G 4636   5.463   2.826   5.155
   60OSM    C8F 4637   5.498   3.047   5.145
   60OSM    H8F 4638   5.609   3.059   5.138
   60OSM    H8G 4639   5.469   3.138   5.202
   60OSM    C9F 4640   5.446   3.056   5.003
   60OSM    H9F 4641   5.364   3.127   4.983
   60OSM   C10F 4642   5.501   3.000   4.894
   60OSM   H10F 4643   5.474   3.035   4.793
   60OSM   C11F 4644   5.629   2.917   4.889
   60OSM   H11F 4645   5.612   2.813   4.852
   60OSM   H11G 4646   5.671   2.905   4.991
   60OSM   C12F 4647   5.732   2.968   4.785
   60OSM   H12F 4648   5.825   2.909   4.798
   60OSM   H12G 4649   5.761   3.075   4.791
   60OSM   C13F 4650   5.685   2.930   4.643
   60OSM   H13F 4651   5.587   2.981   4.632
   60OSM   H13G 4652   5.676   2.819   4.635
   60OSM   C14F 4653   5.777   2.974   4.533
   60OSM   H14F 4654   5.879   2.951   4.569
   60OSM   H14G 4655   5.771   3.085   4.525
   60OSM   C15F 4656   5.753   2.914   4.392
   60OSM   H15F 4657   5.644   2.901   4.377
   60OSM   H15G 4658   5.797   2.812   4.394
   60OSM   C16F 4659   5.814   3.004   4.286
   60OSM   H16F 4660   5.758   3.099   4.300
   60OSM   H16G 4661   5.794   2.957   4.188
   60OSM   C17F 4662   5.966   3.018   4.312
   60OSM   H17F 4663   6.014   2.919   4.298
   60OSM   H17G 4664   5.992   3.070   4.407
   60OSM   C18F 4665   6.029   3.105   4.200
   60OSM   H18F 4666   5.981   3.081   4.103
   60OSM   H18G 4667   6.140   3.107   4.206
   60OSM   H18H 4668   5.984   3.204   4.220
   61OSM      N 4669   0.370   3.156   6.218
   61OSM    C15 4670   0.400   3.194   6.078
   61OSM   H15A 4671   0.452   3.289   6.079
   61OSM   H15B 4672   0.310   3.203   6.019
   61OSM   H15C 4673   0.466   3.121   6.035
   61OSM    C14 4674   0.281   3.272   6.263
   61OSM   H14A 4675   0.247   3.257   6.365
   61OSM   H14B 4676   0.199   3.288   6.195
   61OSM   H14C 4677   0.332   3.367   6.267
   61OSM    C13 4678   0.281   3.045   6.202
   61OSM   H13A 4679   0.196   3.070   6.139
   61OSM   H13B 4680   0.243   3.009   6.296
   61OSM   H13C 4681   0.324   2.962   6.148
   61OSM    C12 4682   0.501   3.142   6.296
   61OSM   H12A 4683   0.553   3.059   6.250
   61OSM   H12B 4684   0.486   3.108   6.397
   61OSM    C11 4685   0.597   3.262   6.304
   61OSM   H11A 4686   0.664   3.244   6.391
   61OSM   H11B 4687   0.550   3.359   6.331
   61OSM      P 4688   0.695   3.413   6.120
   61OSM    O13 4689   0.566   3.474   6.078
   61OSM    O14 4690   0.777   3.494   6.215
   61OSM    O11 4691   0.784   3.375   5.996
   61OSM    O12 4692   0.665   3.272   6.185
   61OSM    C1S 4693   0.748   3.264   5.910
   61OSM    H1S 4694   0.645   3.228   5.931
   61OSM    H1T 4695   0.823   3.182   5.911
   61OSM     NF 4696   0.689   3.217   5.676
   61OSM    HNF 4697   0.746   3.138   5.654
   61OSM    C2S 4698   0.760   3.312   5.764
   61OSM    H2S 4699   0.708   3.409   5.749
   61OSM    C3S 4700   0.919   3.336   5.747
   61OSM    H3S 4701   0.970   3.238   5.764
   61OSM     O3 4702   0.968   3.438   5.831
   61OSM    HO3 4703   0.893   3.463   5.884
   61OSM    C4S 4704   0.936   3.362   5.599
   61OSM    H4S 4705   0.883   3.453   5.564
   61OSM    C5S 4706   1.023   3.292   5.519
   61OSM    H5S 4707   1.071   3.207   5.569
   61OSM    C6S 4708   1.049   3.321   5.377
   61OSM    H6S 4709   1.050   3.232   5.312
   61OSM    H6T 4710   1.152   3.361   5.369
   61OSM    C7S 4711   0.959   3.434   5.310
   61OSM    H7S 4712   0.970   3.534   5.356
   61OSM    H7T 4713   0.851   3.407   5.311
   61OSM    C8S 4714   0.987   3.453   5.156
   61OSM    H8S 4715   0.971   3.356   5.105
   61OSM    H8T 4716   1.094   3.481   5.147
   61OSM    C9S 4717   0.895   3.563   5.093
   61OSM    H9S 4718   0.903   3.662   5.142
   61OSM    H9T 4719   0.791   3.525   5.101
   61OSM   C10S 4720   0.931   3.586   4.942
   61OSM   H10S 4721   0.925   3.490   4.888
   61OSM   H10T 4722   1.036   3.624   4.941
   61OSM   C11S 4723   0.819   3.676   4.883
   61OSM   H11S 4724   0.812   3.774   4.936
   61OSM   H11T 4725   0.723   3.623   4.901
   61OSM   C12S 4726   0.819   3.682   4.731
   61OSM   H12S 4727   0.728   3.735   4.697
   61OSM   H12T 4728   0.823   3.578   4.690
   61OSM   C13S 4729   0.947   3.758   4.673
   61OSM   H13S 4730   1.042   3.708   4.700
   61OSM   H13T 4731   0.945   3.850   4.735
   61OSM   C14S 4732   0.926   3.779   4.521
   61OSM   H14S 4733   0.831   3.832   4.501
   61OSM   H14T 4734   0.922   3.681   4.470
   61OSM   C15S 4735   1.047   3.849   4.459
   61OSM   H15S 4736   1.046   3.850   4.348
   61OSM   H15T 4737   1.143   3.799   4.479
   61OSM   C16S 4738   1.057   3.994   4.506
   61OSM   H16S 4739   1.101   4.000   4.607
   61OSM   H16T 4740   0.956   4.040   4.519
   61OSM   C17S 4741   1.135   4.079   4.412
   61OSM   H17S 4742   1.221   4.020   4.375
   61OSM   H17T 4743   1.163   4.176   4.459
   61OSM   C18S 4744   1.055   4.111   4.283
   61OSM   H18S 4745   1.096   4.208   4.248
   61OSM   H18T 4746   0.947   4.127   4.303
   61OSM   H18U 4747   1.062   4.035   4.202
   61OSM    C1F 4748   0.555   3.208   5.672
   61OSM     OF 4749   0.493   3.294   5.735
   61OSM    C2F 4750   0.492   3.086   5.604
   61OSM    H2F 4751   0.384   3.107   5.593
   61OSM    H2G 4752   0.510   2.985   5.647
   61OSM    C3F 4753   0.554   3.068   5.461
   61OSM    H3F 4754   0.506   2.975   5.424
   61OSM    H3G 4755   0.663   3.050   5.466
   61OSM    C4F 4756   0.530   3.177   5.368
   61OSM    H4F 4757   0.555   3.280   5.402
   61OSM    H4G 4758   0.419   3.179   5.364
   61OSM    C5F 4759   0.578   3.145   5.223
   61OSM    H5F 4760   0.533   3.051   5.183
   61OSM    H5G 4761   0.687   3.125   5.222
   61OSM    C6F 4762   0.540   3.253   5.121
   61OSM    H6F 4763   0.566   3.355   5.157
   61OSM    H6G 4764   0.431   3.250   5.105
   61OSM    C7F 4765   0.613   3.222   4.986
   61OSM    H7F 4766   0.584   3.119   4.958
   61OSM    H7G 4767   0.722   3.220   5.005
   61OSM    C8F 4768   0.582   3.324   4.876
   61OSM    H8F 4769   0.621   3.281   4.781
   61OSM    H8G 4770   0.634   3.419   4.900
   61OSM    C9F 4771   0.437   3.367   4.848
   61OSM    H9F 4772   0.373   3.380   4.937
   61OSM   C10F 4773   0.368   3.356   4.731
   61OSM   H10F 4774   0.263   3.387   4.737
   61OSM   C11F 4775   0.424   3.309   4.604
   61OSM   H11F 4776   0.359   3.235   4.553
   61OSM   H11G 4777   0.523   3.261   4.618
   61OSM   C12F 4778   0.464   3.438   4.529
   61OSM   H12F 4779   0.527   3.405   4.444
   61OSM   H12G 4780   0.524   3.513   4.585
   61OSM   C13F 4781   0.346   3.523   4.468
   61OSM   H13F 4782   0.274   3.541   4.550
   61OSM   H13G 4783   0.283   3.465   4.397
   61OSM   C14F 4784   0.381   3.658   4.412
   61OSM   H14F 4785   0.403   3.732   4.492
   61OSM   H14G 4786   0.291   3.704   4.366
   61OSM   C15F 4787   0.481   3.661   4.298
   61OSM   H15F 4788   0.436   3.594   4.223
   61OSM   H15G 4789   0.570   3.612   4.343
   61OSM   C16F 4790   0.520   3.785   4.237
   61OSM   H16F 4791   0.422   3.836   4.224
   61OSM   H16G 4792   0.567   3.770   4.137
   61OSM   C17F 4793   0.614   3.876   4.311
   61OSM   H17F 4794   0.716   3.831   4.319
   61OSM   H17G 4795   0.583   3.886   4.417
   61OSM   C18F 4796   0.623   4.013   4.252
   61OSM   H18F 4797   0.523   4.061   4.241
   61OSM   H18G 4798   0.675   4.012   4.154
   61OSM   H18H 4799   0.681   4.080   4.319
   62OSM      N 4800   5.703   1.254   6.504
   62OSM    C15 4801   5.643   1.398   6.516
   62OSM   H15A 4802   5.621   1.424   6.618
   62OSM   H15B 4803   5.547   1.395   6.468
   62OSM   H15C 4804   5.707   1.466   6.462
   62OSM    C14 4805   5.847   1.269   6.526
   62OSM   H14A 4806   5.873   1.272   6.630
   62OSM   H14B 4807   5.900   1.346   6.471
   62OSM   H14C 4808   5.900   1.181   6.490
   62OSM    C13 4809   5.632   1.175   6.610
   62OSM   H13A 4810   5.635   1.068   6.599
   62OSM   H13B 4811   5.526   1.186   6.592
   62OSM   H13C 4812   5.647   1.214   6.710
   62OSM    C12 4813   5.672   1.203   6.365
   62OSM   H12A 4814   5.695   1.282   6.294
   62OSM   H12B 4815   5.568   1.182   6.344
   62OSM    C11 4816   5.735   1.076   6.308
   62OSM   H11A 4817   5.846   1.077   6.312
   62OSM   H11B 4818   5.703   1.081   6.202
   62OSM      P 4819   5.546   0.895   6.344
   62OSM    O13 4820   5.518   0.772   6.419
   62OSM    O14 4821   5.440   1.002   6.348
   62OSM    O11 4822   5.561   0.849   6.199
   62OSM    O12 4823   5.682   0.965   6.381
   62OSM    C1S 4824   5.672   0.774   6.154
   62OSM    H1S 4825   5.710   0.710   6.237
   62OSM    H1T 4826   5.760   0.836   6.128
   62OSM     NF 4827   5.747   0.594   5.984
   62OSM    HNF 4828   5.784   0.615   5.894
   62OSM    C2S 4829   5.644   0.686   6.028
   62OSM    H2S 4830   5.560   0.619   6.055
   62OSM    C3S 4831   5.590   0.775   5.915
   62OSM    H3S 4832   5.669   0.847   5.884
   62OSM     O3 4833   5.486   0.860   5.960
   62OSM    HO3 4834   5.500   0.855   6.055
   62OSM    C4S 4835   5.552   0.700   5.793
   62OSM    H4S 4836   5.635   0.712   5.721
   62OSM    C5S 4837   5.439   0.622   5.770
   62OSM    H5S 4838   5.365   0.600   5.849
   62OSM    C6S 4839   5.439   0.546   5.643
   62OSM    H6S 4840   5.355   0.473   5.641
   62OSM    H6T 4841   5.534   0.489   5.631
   62OSM    C7S 4842   5.414   0.637   5.522
   62OSM    H7S 4843   5.490   0.717   5.514
   62OSM    H7T 4844   5.314   0.685   5.531
   62OSM    C8S 4845   5.417   0.557   5.394
   62OSM    H8S 4846   5.342   0.475   5.396
   62OSM    H8T 4847   5.521   0.518   5.396
   62OSM    C9S 4848   5.409   0.654   5.275
   62OSM    H9S 4849   5.496   0.721   5.279
   62OSM    H9T 4850   5.315   0.712   5.289
   62OSM   C10S 4851   5.394   0.576   5.148
   62OSM   H10S 4852   5.296   0.522   5.155
   62OSM   H10T 4853   5.472   0.498   5.141
   62OSM   C11S 4854   5.407   0.679   5.035
   62OSM   H11S 4855   5.505   0.730   5.033
   62OSM   H11T 4856   5.326   0.753   5.054
   62OSM   C12S 4857   5.384   0.614   4.897
   62OSM   H12S 4858   5.278   0.600   4.866
   62OSM   H12T 4859   5.420   0.509   4.900
   62OSM   C13S 4860   5.458   0.691   4.790
   62OSM   H13S 4861   5.565   0.666   4.808
   62OSM   H13T 4862   5.445   0.801   4.790
   62OSM   C14S 4863   5.423   0.642   4.645
   62OSM   H14S 4864   5.404   0.533   4.639
   62OSM   H14T 4865   5.511   0.675   4.585
   62OSM   C15S 4866   5.290   0.707   4.590
   62OSM   H15S 4867   5.314   0.813   4.566
   62OSM   H15T 4868   5.212   0.696   4.669
   62OSM   C16S 4869   5.242   0.651   4.451
   62OSM   H16S 4870   5.151   0.706   4.419
   62OSM   H16T 4871   5.216   0.544   4.466
   62OSM   C17S 4872   5.349   0.663   4.345
   62OSM   H17S 4873   5.455   0.638   4.367
   62OSM   H17T 4874   5.350   0.771   4.318
   62OSM   C18S 4875   5.326   0.582   4.213
   62OSM   H18S 4876   5.218   0.588   4.187
   62OSM   H18T 4877   5.350   0.475   4.226
   62OSM   H18U 4878   5.388   0.625   4.131
   62OSM    C1F 4879   5.810   0.502   6.058
   62OSM     OF 4880   5.770   0.479   6.170
   62OSM    C2F 4881   5.931   0.438   6.004
   62OSM    H2F 4882   5.912   0.330   6.017
   62OSM    H2G 4883   6.013   0.460   6.076
   62OSM    C3F 4884   5.972   0.478   5.861
   62OSM    H3F 4885   6.073   0.441   5.832
   62OSM    H3G 4886   5.997   0.586   5.854
   62OSM    C4F 4887   5.877   0.431   5.746
   62OSM    H4F 4888   5.769   0.450   5.766
   62OSM    H4G 4889   5.877   0.320   5.739
   62OSM    C5F 4890   5.924   0.489   5.611
   62OSM    H5F 4891   6.028   0.464   5.582
   62OSM    H5G 4892   5.923   0.600   5.615
   62OSM    C6F 4893   5.829   0.436   5.493
   62OSM    H6F 4894   5.719   0.445   5.509
   62OSM    H6G 4895   5.832   0.325   5.486
   62OSM    C7F 4896   5.868   0.495   5.357
   62OSM    H7F 4897   5.974   0.468   5.337
   62OSM    H7G 4898   5.865   0.605   5.370
   62OSM    C8F 4899   5.780   0.447   5.237
   62OSM    H8F 4900   5.676   0.453   5.274
   62OSM    H8G 4901   5.790   0.339   5.213
   62OSM    C9F 4902   5.809   0.532   5.111
   62OSM    H9F 4903   5.782   0.638   5.125
   62OSM   C10F 4904   5.852   0.494   4.993
   62OSM   H10F 4905   5.864   0.568   4.913
   62OSM   C11F 4906   5.883   0.353   4.949
   62OSM   H11F 4907   5.807   0.280   4.985
   62OSM   H11G 4908   5.979   0.320   4.993
   62OSM   C12F 4909   5.887   0.358   4.796
   62OSM   H12F 4910   5.959   0.439   4.773
   62OSM   H12G 4911   5.795   0.389   4.742
   62OSM   C13F 4912   5.928   0.221   4.736
   62OSM   H13F 4913   5.844   0.149   4.742
   62OSM   H13G 4914   6.001   0.193   4.815
   62OSM   C14F 4915   5.999   0.233   4.593
   62OSM   H14F 4916   6.069   0.320   4.588
   62OSM   H14G 4917   5.924   0.260   4.516
   62OSM   C15F 4918   6.078   0.102   4.564
   62OSM   H15F 4919   6.108   0.058   4.661
   62OSM   H15G 4920   6.168   0.132   4.506
   62OSM   C16F 4921   6.000   0.003   4.476
   62OSM   H16F 4922   5.900  -0.018   4.518
   62OSM   H16G 4923   6.060  -0.090   4.464
   62OSM   C17F 4924   5.971   0.054   4.332
   62OSM   H17F 4925   6.060   0.042   4.265
   62OSM   H17G 4926   5.938   0.160   4.326
   62OSM   C18F 4927   5.851  -0.018   4.272
   62OSM   H18F 4928   5.875  -0.086   4.187
   62OSM   H18G 4929   5.792   0.058   4.217
   62OSM   H18H 4930   5.791  -0.081   4.341
   63OSM      N 4931   5.030   1.734   6.625
   63OSM    C15 4932   5.026   1.889   6.618
   63OSM   H15A 4933   4.945   1.928   6.678
   63OSM   H15B 4934   5.008   1.932   6.521
   63OSM   H15C 4935   5.117   1.923   6.666
   63OSM    C14 4936   5.146   1.690   6.554
   63OSM   H14A 4937   5.231   1.748   6.588
   63OSM   H14B 4938   5.135   1.709   6.448
   63OSM   H14C 4939   5.166   1.586   6.575
   63OSM    C13 4940   5.041   1.692   6.769
   63OSM   H13A 4941   5.071   1.589   6.781
   63OSM   H13B 4942   4.941   1.695   6.809
   63OSM   H13C 4943   5.092   1.767   6.828
   63OSM    C12 4944   4.909   1.671   6.564
   63OSM   H12A 4945   4.933   1.566   6.561
   63OSM   H12B 4946   4.892   1.705   6.463
   63OSM    C11 4947   4.779   1.683   6.642
   63OSM   H11A 4948   4.782   1.646   6.747
   63OSM   H11B 4949   4.695   1.627   6.595
   63OSM      P 4950   4.642   1.890   6.541
   63OSM    O13 4951   4.497   1.856   6.565
   63OSM    O14 4952   4.690   2.034   6.546
   63OSM    O11 4953   4.684   1.821   6.402
   63OSM    O12 4954   4.730   1.816   6.649
   63OSM    C1S 4955   4.785   1.889   6.324
   63OSM    H1S 4956   4.883   1.873   6.374
   63OSM    H1T 4957   4.768   1.999   6.323
   63OSM     NF 4958   4.899   1.913   6.104
   63OSM    HNF 4959   4.858   1.978   6.041
   63OSM    C2S 4960   4.803   1.836   6.178
   63OSM    H2S 4961   4.841   1.731   6.186
   63OSM    C3S 4962   4.662   1.833   6.109
   63OSM    H3S 4963   4.646   1.935   6.068
   63OSM     O3 4964   4.550   1.799   6.188
   63OSM    HO3 4965   4.592   1.791   6.274
   63OSM    C4S 4966   4.659   1.732   5.997
   63OSM    H4S 4967   4.668   1.625   6.019
   63OSM    C5S 4968   4.636   1.767   5.871
   63OSM    H5S 4969   4.622   1.875   5.854
   63OSM    C6S 4970   4.629   1.663   5.758
   63OSM    H6S 4971   4.725   1.608   5.750
   63OSM    H6T 4972   4.623   1.714   5.659
   63OSM    C7S 4973   4.529   1.556   5.753
   63OSM    H7S 4974   4.428   1.600   5.770
   63OSM    H7T 4975   4.548   1.487   5.838
   63OSM    C8S 4976   4.534   1.460   5.628
   63OSM    H8S 4977   4.477   1.367   5.647
   63OSM    H8T 4978   4.641   1.432   5.614
   63OSM    C9S 4979   4.487   1.520   5.498
   63OSM    H9S 4980   4.529   1.474   5.406
   63OSM    H9T 4981   4.523   1.625   5.485
   63OSM   C10S 4982   4.334   1.525   5.494
   63OSM   H10S 4983   4.286   1.561   5.587
   63OSM   H10T 4984   4.295   1.421   5.489
   63OSM   C11S 4985   4.278   1.614   5.380
   63OSM   H11S 4986   4.283   1.722   5.406
   63OSM   H11T 4987   4.168   1.605   5.370
   63OSM   C12S 4988   4.330   1.586   5.235
   63OSM   H12S 4989   4.343   1.477   5.218
   63OSM   H12T 4990   4.433   1.627   5.234
   63OSM   C13S 4991   4.246   1.633   5.116
   63OSM   H13S 4992   4.300   1.598   5.026
   63OSM   H13T 4993   4.259   1.742   5.098
   63OSM   C14S 4994   4.107   1.574   5.110
   63OSM   H14S 4995   4.030   1.637   5.158
   63OSM   H14T 4996   4.102   1.472   5.154
   63OSM   C15S 4997   4.067   1.573   4.965
   63OSM   H15S 4998   4.127   1.501   4.905
   63OSM   H15T 4999   4.080   1.674   4.922
   63OSM   C16S 5000   3.926   1.528   4.952
   63OSM   H16S 5001   3.873   1.595   5.023
   63OSM   H16T 5002   3.906   1.424   4.986
   63OSM   C17S 5003   3.860   1.547   4.809
   63OSM   H17S 5004   3.915   1.475   4.745
   63OSM   H17T 5005   3.883   1.649   4.771
   63OSM   C18S 5006   3.718   1.509   4.810
   63OSM   H18S 5007   3.700   1.402   4.832
   63OSM   H18T 5008   3.671   1.526   4.710
   63OSM   H18U 5009   3.656   1.568   4.880
   63OSM    C1F 5010   5.037   1.905   6.109
   63OSM     OF 5011   5.086   1.834   6.201
   63OSM    C2F 5012   5.111   1.978   6.007
   63OSM    H2F 5013   5.201   2.025   6.053
   63OSM    H2G 5014   5.062   2.073   5.978
   63OSM    C3F 5015   5.153   1.888   5.886
   63OSM    H3F 5016   5.213   1.800   5.918
   63OSM    H3G 5017   5.228   1.944   5.826
   63OSM    C4F 5018   5.042   1.852   5.790
   63OSM    H4F 5019   4.954   1.820   5.849
   63OSM    H4G 5020   5.074   1.767   5.727
   63OSM    C5F 5021   4.998   1.964   5.696
   63OSM    H5F 5022   5.090   1.993   5.641
   63OSM    H5G 5023   4.964   2.046   5.762
   63OSM    C6F 5024   4.897   1.905   5.599
   63OSM    H6F 5025   4.843   1.836   5.668
   63OSM    H6G 5026   4.946   1.849   5.517
   63OSM    C7F 5027   4.794   2.000   5.538
   63OSM    H7F 5028   4.838   2.100   5.518
   63OSM    H7G 5029   4.717   2.020   5.616
   63OSM    C8F 5030   4.735   1.937   5.416
   63OSM    H8F 5031   4.649   2.003   5.394
   63OSM    H8G 5032   4.693   1.835   5.428
   63OSM    C9F 5033   4.832   1.946   5.305
   63OSM    H9F 5034   4.926   1.993   5.337
   63OSM   C10F 5035   4.830   1.880   5.188
   63OSM   H10F 5036   4.915   1.879   5.118
   63OSM   C11F 5037   4.721   1.780   5.145
   63OSM   H11F 5038   4.617   1.815   5.161
   63OSM   H11G 5039   4.724   1.684   5.201
   63OSM   C12F 5040   4.726   1.744   4.992
   63OSM   H12F 5041   4.732   1.842   4.938
   63OSM   H12G 5042   4.625   1.705   4.972
   63OSM   C13F 5043   4.829   1.649   4.945
   63OSM   H13F 5044   4.801   1.561   5.007
   63OSM   H13G 5045   4.933   1.688   4.955
   63OSM   C14F 5046   4.829   1.633   4.795
   63OSM   H14F 5047   4.879   1.721   4.750
   63OSM   H14G 5048   4.725   1.633   4.754
   63OSM   C15F 5049   4.896   1.501   4.755
   63OSM   H15F 5050   4.831   1.428   4.807
   63OSM   H15G 5051   4.998   1.486   4.797
   63OSM   C16F 5052   4.906   1.480   4.598
   63OSM   H16F 5053   4.956   1.384   4.574
   63OSM   H16G 5054   4.965   1.568   4.564
   63OSM   C17F 5055   4.777   1.480   4.520
   63OSM   H17F 5056   4.803   1.492   4.413
   63OSM   H17G 5057   4.708   1.564   4.541
   63OSM   C18F 5058   4.695   1.350   4.542
   63OSM   H18F 5059   4.644   1.349   4.640
   63OSM   H18G 5060   4.744   1.250   4.536
   63OSM   H18H 5061   4.603   1.344   4.480
   64OSM      N 5062   1.686   3.748   6.248
   64OSM    C15 5063   1.584   3.737   6.351
   64OSM   H15A 5064   1.498   3.682   6.315
   64OSM   H15B 5065   1.541   3.833   6.374
   64OSM   H15C 5066   1.626   3.698   6.443
   64OSM    C14 5067   1.779   3.856   6.278
   64OSM   H14A 5068   1.842   3.827   6.362
   64OSM   H14B 5069   1.729   3.945   6.313
   64OSM   H14C 5070   1.846   3.887   6.199
   64OSM    C13 5071   1.759   3.615   6.229
   64OSM   H13A 5072   1.679   3.544   6.211
   64OSM   H13B 5073   1.813   3.594   6.320
   64OSM   H13C 5074   1.836   3.622   6.154
   64OSM    C12 5075   1.617   3.784   6.112
   64OSM   H12A 5076   1.539   3.711   6.100
   64OSM   H12B 5077   1.692   3.760   6.037
   64OSM    C11 5078   1.565   3.929   6.093
   64OSM   H11A 5079   1.526   3.951   5.992
   64OSM   H11B 5080   1.653   3.996   6.106
   64OSM      P 5081   1.472   4.083   6.276
   64OSM    O13 5082   1.344   4.094   6.346
   64OSM    O14 5083   1.596   4.089   6.353
   64OSM    O11 5084   1.477   4.194   6.170
   64OSM    O12 5085   1.468   3.954   6.186
   64OSM    C1S 5086   1.356   4.255   6.115
   64OSM    H1S 5087   1.316   4.323   6.193
   64OSM    H1T 5088   1.285   4.173   6.090
   64OSM     NF 5089   1.260   4.401   5.950
   64OSM    HNF 5090   1.208   4.335   5.896
   64OSM    C2S 5091   1.383   4.345   5.989
   64OSM    H2S 5092   1.449   4.428   6.021
   64OSM    C3S 5093   1.450   4.263   5.875
   64OSM    H3S 5094   1.383   4.176   5.862
   64OSM     O3 5095   1.575   4.201   5.909
   64OSM    HO3 5096   1.561   4.191   6.004
   64OSM    C4S 5097   1.457   4.342   5.739
   64OSM    H4S 5098   1.380   4.311   5.667
   64OSM    C5S 5099   1.553   4.434   5.703
   64OSM    H5S 5100   1.628   4.470   5.774
   64OSM    C6S 5101   1.558   4.497   5.562
   64OSM    H6S 5102   1.659   4.473   5.522
   64OSM    H6T 5103   1.546   4.608   5.569
   64OSM    C7S 5104   1.461   4.453   5.448
   64OSM    H7S 5105   1.357   4.487   5.471
   64OSM    H7T 5106   1.467   4.342   5.445
   64OSM    C8S 5107   1.500   4.510   5.312
   64OSM    H8S 5108   1.581   4.443   5.276
   64OSM    H8T 5109   1.555   4.607   5.321
   64OSM    C9S 5110   1.380   4.526   5.219
   64OSM    H9S 5111   1.299   4.583   5.270
   64OSM    H9T 5112   1.354   4.422   5.191
   64OSM   C10S 5113   1.427   4.597   5.093
   64OSM   H10S 5114   1.509   4.538   5.045
   64OSM   H10T 5115   1.475   4.694   5.117
   64OSM   C11S 5116   1.321   4.627   4.991
   64OSM   H11S 5117   1.367   4.693   4.915
   64OSM   H11T 5118   1.248   4.686   5.051
   64OSM   C12S 5119   1.252   4.510   4.928
   64OSM   H12S 5120   1.194   4.460   5.009
   64OSM   H12T 5121   1.328   4.436   4.896
   64OSM   C13S 5122   1.152   4.555   4.822
   64OSM   H13S 5123   1.204   4.626   4.753
   64OSM   H13T 5124   1.076   4.618   4.872
   64OSM   C14S 5125   1.082   4.442   4.742
   64OSM   H14S 5126   1.162   4.380   4.698
   64OSM   H14T 5127   1.022   4.493   4.663
   64OSM   C15S 5128   1.003   4.348   4.836
   64OSM   H15S 5129   0.943   4.418   4.897
   64OSM   H15T 5130   1.068   4.296   4.909
   64OSM   C16S 5131   0.902   4.260   4.759
   64OSM   H16S 5132   0.942   4.222   4.664
   64OSM   H16T 5133   0.817   4.319   4.718
   64OSM   C17S 5134   0.833   4.157   4.844
   64OSM   H17S 5135   0.778   4.204   4.928
   64OSM   H17T 5136   0.922   4.105   4.885
   64OSM   C18S 5137   0.746   4.062   4.757
   64OSM   H18S 5138   0.726   3.968   4.813
   64OSM   H18T 5139   0.792   4.035   4.660
   64OSM   H18U 5140   0.648   4.113   4.741
   64OSM    C1F 5141   1.195   4.483   6.030
   64OSM     OF 5142   1.255   4.532   6.120
   64OSM    C2F 5143   1.052   4.510   6.011
   64OSM    H2F 5144   0.991   4.506   6.104
   64OSM    H2G 5145   1.015   4.428   5.946
   64OSM    C3F 5146   1.043   4.650   5.943
   64OSM    H3F 5147   1.128   4.660   5.873
   64OSM    H3G 5148   1.063   4.729   6.020
   64OSM    C4F 5149   0.909   4.672   5.865
   64OSM    H4F 5150   0.824   4.662   5.935
   64OSM    H4G 5151   0.915   4.598   5.782
   64OSM    C5F 5152   0.903   4.804   5.794
   64OSM    H5F 5153   1.002   4.836   5.757
   64OSM    H5G 5154   0.873   4.876   5.873
   64OSM    C6F 5155   0.810   4.815   5.677
   64OSM    H6F 5156   0.852   4.756   5.592
   64OSM    H6G 5157   0.812   4.921   5.646
   64OSM    C7F 5158   0.667   4.782   5.685
   64OSM    H7F 5159   0.637   4.823   5.784
   64OSM    H7G 5160   0.660   4.672   5.695
   64OSM    C8F 5161   0.569   4.835   5.570
   64OSM    H8F 5162   0.469   4.789   5.589
   64OSM    H8G 5163   0.602   4.796   5.472
   64OSM    C9F 5164   0.547   4.987   5.572
   64OSM    H9F 5165   0.507   5.032   5.664
   64OSM   C10F 5166   0.587   5.073   5.480
   64OSM   H10F 5167   0.571   5.179   5.506
   64OSM   C11F 5168   0.665   5.056   5.351
   64OSM   H11F 5169   0.671   4.948   5.322
   64OSM   H11G 5170   0.770   5.091   5.353
   64OSM   C12F 5171   0.604   5.127   5.227
   64OSM   H12F 5172   0.585   5.229   5.268
   64OSM   H12G 5173   0.504   5.085   5.204
   64OSM   C13F 5174   0.700   5.138   5.108
   64OSM   H13F 5175   0.755   5.042   5.100
   64OSM   H13G 5176   0.771   5.223   5.125
   64OSM   C14F 5177   0.641   5.179   4.967
   64OSM   H14F 5178   0.584   5.275   4.974
   64OSM   H14G 5179   0.568   5.102   4.936
   64OSM   C15F 5180   0.746   5.188   4.857
   64OSM   H15F 5181   0.815   5.274   4.877
   64OSM   H15G 5182   0.701   5.203   4.757
   64OSM   C16F 5183   0.824   5.055   4.854
   64OSM   H16F 5184   0.747   4.979   4.829
   64OSM   H16G 5185   0.879   5.021   4.944
   64OSM   C17F 5186   0.925   5.056   4.734
   64OSM   H17F 5187   1.005   5.132   4.739
   64OSM   H17G 5188   0.875   5.073   4.637
   64OSM   C18F 5189   0.988   4.920   4.717
   64OSM   H18F 5190   1.048   4.889   4.805
   64OSM   H18G 5191   1.056   4.918   4.630
   64OSM   H18H 5192   0.913   4.841   4.696
   65OSM      N 5193   4.492   0.689   6.397
   65OSM    C15 5194   4.350   0.742   6.401
   65OSM   H15A 5195   4.337   0.814   6.481
   65OSM   H15B 5196   4.276   0.667   6.423
   65OSM   H15C 5197   4.324   0.807   6.319
   65OSM    C14 5198   4.491   0.605   6.276
   65OSM   H14A 5199   4.590   0.564   6.266
   65OSM   H14B 5200   4.457   0.663   6.191
   65OSM   H14C 5201   4.423   0.522   6.284
   65OSM    C13 5202   4.611   0.800   6.394
   65OSM   H13A 5203   4.704   0.746   6.392
   65OSM   H13B 5204   4.598   0.870   6.475
   65OSM   H13C 5205   4.601   0.854   6.301
   65OSM    C12 5206   4.516   0.601   6.519
   65OSM   H12A 5207   4.468   0.649   6.604
   65OSM   H12B 5208   4.621   0.595   6.543
   65OSM    C11 5209   4.461   0.456   6.530
   65OSM   H11A 5210   4.465   0.413   6.632
   65OSM   H11B 5211   4.534   0.395   6.473
   65OSM      P 5212   4.285   0.297   6.449
   65OSM    O13 5213   4.361   0.207   6.533
   65OSM    O14 5214   4.134   0.284   6.457
   65OSM    O11 5215   4.335   0.284   6.295
   65OSM    O12 5216   4.320   0.448   6.483
   65OSM    C1S 5217   4.329   0.169   6.218
   65OSM    H1S 5218   4.252   0.097   6.253
   65OSM    H1T 5219   4.423   0.111   6.216
   65OSM     NF 5220   4.233   0.097   5.997
   65OSM    HNF 5221   4.295   0.033   5.953
   65OSM    C2S 5222   4.297   0.210   6.071
   65OSM    H2S 5223   4.224   0.294   6.071
   65OSM    C3S 5224   4.429   0.246   6.004
   65OSM    H3S 5225   4.487   0.153   5.987
   65OSM     O3 5226   4.526   0.306   6.092
   65OSM    HO3 5227   4.481   0.319   6.175
   65OSM    C4S 5228   4.401   0.328   5.882
   65OSM    H4S 5229   4.357   0.270   5.799
   65OSM    C5S 5230   4.406   0.462   5.877
   65OSM    H5S 5231   4.411   0.526   5.967
   65OSM    C6S 5232   4.385   0.549   5.757
   65OSM    H6S 5233   4.439   0.643   5.780
   65OSM    H6T 5234   4.277   0.569   5.743
   65OSM    C7S 5235   4.418   0.507   5.617
   65OSM    H7S 5236   4.365   0.416   5.583
   65OSM    H7T 5237   4.523   0.471   5.619
   65OSM    C8S 5238   4.421   0.621   5.510
   65OSM    H8S 5239   4.498   0.688   5.554
   65OSM    H8T 5240   4.319   0.666   5.514
   65OSM    C9S 5241   4.467   0.587   5.366
   65OSM    H9S 5242   4.448   0.480   5.344
   65OSM    H9T 5243   4.576   0.597   5.384
   65OSM   C10S 5244   4.412   0.684   5.262
   65OSM   H10S 5245   4.440   0.788   5.290
   65OSM   H10T 5246   4.302   0.676   5.278
   65OSM   C11S 5247   4.449   0.651   5.119
   65OSM   H11S 5248   4.442   0.541   5.113
   65OSM   H11T 5249   4.556   0.672   5.099
   65OSM   C12S 5250   4.354   0.715   5.019
   65OSM   H12S 5251   4.336   0.815   5.064
   65OSM   H12T 5252   4.249   0.679   5.012
   65OSM   C13S 5253   4.409   0.731   4.881
   65OSM   H13S 5254   4.513   0.770   4.889
   65OSM   H13T 5255   4.351   0.812   4.832
   65OSM   C14S 5256   4.403   0.618   4.783
   65OSM   H14S 5257   4.308   0.563   4.770
   65OSM   H14T 5258   4.477   0.547   4.826
   65OSM   C15S 5259   4.466   0.657   4.655
   65OSM   H15S 5260   4.576   0.661   4.674
   65OSM   H15T 5261   4.443   0.759   4.616
   65OSM   C16S 5262   4.444   0.556   4.542
   65OSM   H16S 5263   4.338   0.574   4.515
   65OSM   H16T 5264   4.454   0.452   4.580
   65OSM   C17S 5265   4.530   0.568   4.416
   65OSM   H17S 5266   4.630   0.523   4.430
   65OSM   H17T 5267   4.530   0.677   4.394
   65OSM   C18S 5268   4.460   0.489   4.305
   65OSM   H18S 5269   4.428   0.389   4.340
   65OSM   H18T 5270   4.512   0.469   4.209
   65OSM   H18U 5271   4.364   0.537   4.278
   65OSM    C1F 5272   4.110   0.046   6.032
   65OSM     OF 5273   4.042   0.097   6.122
   65OSM    C2F 5274   4.058  -0.086   5.969
   65OSM    H2F 5275   3.985  -0.130   6.041
   65OSM    H2G 5276   4.146  -0.152   5.957
   65OSM    C3F 5277   3.989  -0.057   5.834
   65OSM    H3F 5278   3.897   0.003   5.852
   65OSM    H3G 5279   3.948  -0.148   5.784
   65OSM    C4F 5280   4.080  -0.006   5.723
   65OSM    H4F 5281   4.151  -0.086   5.694
   65OSM    H4G 5282   4.135   0.085   5.757
   65OSM    C5F 5283   3.997   0.015   5.589
   65OSM    H5F 5284   3.898   0.049   5.626
   65OSM    H5G 5285   3.986  -0.085   5.541
   65OSM    C6F 5286   4.070   0.103   5.488
   65OSM    H6F 5287   4.023   0.095   5.388
   65OSM    H6G 5288   4.179   0.082   5.480
   65OSM    C7F 5289   4.072   0.253   5.515
   65OSM    H7F 5290   4.125   0.276   5.610
   65OSM    H7G 5291   3.965   0.278   5.531
   65OSM    C8F 5292   4.121   0.347   5.403
   65OSM    H8F 5293   4.075   0.317   5.307
   65OSM    H8G 5294   4.229   0.329   5.382
   65OSM    C9F 5295   4.093   0.495   5.426
   65OSM    H9F 5296   4.161   0.532   5.504
   65OSM   C10F 5297   4.010   0.587   5.362
   65OSM   H10F 5298   4.014   0.693   5.392
   65OSM   C11F 5299   3.929   0.543   5.247
   65OSM   H11F 5300   3.828   0.585   5.271
   65OSM   H11G 5301   3.906   0.435   5.238
   65OSM   C12F 5302   3.977   0.588   5.108
   65OSM   H12F 5303   4.081   0.551   5.109
   65OSM   H12G 5304   3.981   0.699   5.107
   65OSM   C13F 5305   3.896   0.535   4.981
   65OSM   H13F 5306   3.846   0.624   4.938
   65OSM   H13G 5307   3.821   0.457   5.008
   65OSM   C14F 5308   3.996   0.483   4.876
   65OSM   H14F 5309   4.049   0.394   4.915
   65OSM   H14G 5310   4.071   0.564   4.871
   65OSM   C15F 5311   3.939   0.451   4.743
   65OSM   H15F 5312   3.896   0.543   4.697
   65OSM   H15G 5313   3.852   0.383   4.755
   65OSM   C16F 5314   4.048   0.393   4.647
   65OSM   H16F 5315   4.119   0.324   4.698
   65OSM   H16G 5316   4.109   0.479   4.614
   65OSM   C17F 5317   4.003   0.312   4.521
   65OSM   H17F 5318   3.945   0.383   4.458
   65OSM   H17G 5319   3.927   0.235   4.545
   65OSM   C18F 5320   4.116   0.239   4.440
   65OSM   H18F 5321   4.068   0.209   4.345
   65OSM   H18G 5322   4.147   0.149   4.497
   65OSM   H18H 5323   4.200   0.304   4.409
   66OSM      N 5324   2.424   1.597   6.562
   66OSM    C15 5325   2.523   1.607   6.672
   66OSM   H15A 5326   2.474   1.595   6.767
   66OSM   H15B 5327   2.563   1.707   6.678
   66OSM   H15C 5328   2.602   1.537   6.650
   66OSM    C14 5329   2.379   1.453   6.542
   66OSM   H14A 5330   2.317   1.424   6.626
   66OSM   H14B 5331   2.460   1.382   6.536
   66OSM   H14C 5332   2.314   1.446   6.456
   66OSM    C13 5333   2.311   1.685   6.580
   66OSM   H13A 5334   2.259   1.704   6.487
   66OSM   H13B 5335   2.339   1.783   6.618
   66OSM   H13C 5336   2.246   1.653   6.660
   66OSM    C12 5337   2.495   1.633   6.434
   66OSM   H12A 5338   2.574   1.562   6.415
   66OSM   H12B 5339   2.547   1.725   6.456
   66OSM    C11 5340   2.413   1.658   6.303
   66OSM   H11A 5341   2.352   1.570   6.277
   66OSM   H11B 5342   2.489   1.665   6.223
   66OSM      P 5343   2.394   1.916   6.313
   66OSM    O13 5344   2.290   2.025   6.308
   66OSM    O14 5345   2.497   1.921   6.423
   66OSM    O11 5346   2.462   1.919   6.177
   66OSM    O12 5347   2.323   1.771   6.315
   66OSM    C1S 5348   2.395   1.864   6.062
   66OSM    H1S 5349   2.323   1.781   6.080
   66OSM    H1T 5350   2.469   1.834   5.985
   66OSM     NF 5351   2.232   1.929   5.882
   66OSM    HNF 5352   2.268   1.937   5.789
   66OSM    C2S 5353   2.321   1.985   5.990
   66OSM    H2S 5354   2.264   2.033   6.072
   66OSM    C3S 5355   2.424   2.093   5.934
   66OSM    H3S 5356   2.516   2.039   5.902
   66OSM     O3 5357   2.477   2.181   6.032
   66OSM    HO3 5358   2.447   2.145   6.116
   66OSM    C4S 5359   2.358   2.188   5.834
   66OSM    H4S 5360   2.276   2.251   5.873
   66OSM    C5S 5361   2.394   2.190   5.703
   66OSM    H5S 5362   2.474   2.117   5.679
   66OSM    C6S 5363   2.348   2.269   5.588
   66OSM    H6S 5364   2.306   2.213   5.501
   66OSM    H6T 5365   2.429   2.339   5.559
   66OSM    C7S 5366   2.232   2.364   5.623
   66OSM    H7S 5367   2.276   2.451   5.677
   66OSM    H7T 5368   2.155   2.321   5.691
   66OSM    C8S 5369   2.165   2.434   5.501
   66OSM    H8S 5370   2.082   2.500   5.530
   66OSM    H8T 5371   2.130   2.357   5.428
   66OSM    C9S 5372   2.267   2.523   5.421
   66OSM    H9S 5373   2.357   2.463   5.396
   66OSM    H9T 5374   2.297   2.611   5.481
   66OSM   C10S 5375   2.202   2.564   5.288
   66OSM   H10S 5376   2.160   2.473   5.240
   66OSM   H10T 5377   2.280   2.603   5.218
   66OSM   C11S 5378   2.099   2.676   5.306
   66OSM   H11S 5379   2.057   2.670   5.409
   66OSM   H11T 5380   2.011   2.647   5.245
   66OSM   C12S 5381   2.155   2.814   5.273
   66OSM   H12S 5382   2.247   2.847   5.325
   66OSM   H12T 5383   2.071   2.870   5.318
   66OSM   C13S 5384   2.171   2.857   5.123
   66OSM   H13S 5385   2.077   2.855   5.064
   66OSM   H13T 5386   2.247   2.796   5.070
   66OSM   C14S 5387   2.214   3.003   5.105
   66OSM   H14S 5388   2.302   3.027   5.170
   66OSM   H14T 5389   2.133   3.072   5.138
   66OSM   C15S 5390   2.272   3.029   4.966
   66OSM   H15S 5391   2.191   3.021   4.890
   66OSM   H15T 5392   2.346   2.947   4.962
   66OSM   C16S 5393   2.338   3.163   4.935
   66OSM   H16S 5394   2.421   3.179   5.008
   66OSM   H16T 5395   2.264   3.242   4.960
   66OSM   C17S 5396   2.376   3.175   4.785
   66OSM   H17S 5397   2.479   3.136   4.776
   66OSM   H17T 5398   2.384   3.283   4.765
   66OSM   C18S 5399   2.294   3.113   4.674
   66OSM   H18S 5400   2.351   3.142   4.584
   66OSM   H18T 5401   2.195   3.161   4.659
   66OSM   H18U 5402   2.294   3.002   4.682
   66OSM    C1F 5403   2.118   1.868   5.909
   66OSM     OF 5404   2.066   1.878   6.020
   66OSM    C2F 5405   2.031   1.813   5.790
   66OSM    H2F 5406   1.944   1.879   5.770
   66OSM    H2G 5407   2.005   1.716   5.836
   66OSM    C3F 5408   2.107   1.789   5.659
   66OSM    H3F 5409   2.193   1.718   5.667
   66OSM    H3G 5410   2.143   1.889   5.626
   66OSM    C4F 5411   2.018   1.740   5.541
   66OSM    H4F 5412   1.933   1.805   5.512
   66OSM    H4G 5413   1.977   1.640   5.566
   66OSM    C5F 5414   2.102   1.725   5.411
   66OSM    H5F 5415   2.175   1.652   5.452
   66OSM    H5G 5416   2.149   1.825   5.402
   66OSM    C6F 5417   2.035   1.674   5.279
   66OSM    H6F 5418   1.948   1.739   5.256
   66OSM    H6G 5419   1.988   1.575   5.295
   66OSM    C7F 5420   2.129   1.667   5.161
   66OSM    H7F 5421   2.221   1.607   5.177
   66OSM    H7G 5422   2.177   1.761   5.128
   66OSM    C8F 5423   2.059   1.603   5.039
   66OSM    H8F 5424   1.981   1.674   5.003
   66OSM    H8G 5425   2.017   1.509   5.082
   66OSM    C9F 5426   2.161   1.568   4.927
   66OSM    H9F 5427   2.199   1.466   4.942
   66OSM   C10F 5428   2.201   1.647   4.829
   66OSM   H10F 5429   2.277   1.602   4.764
   66OSM   C11F 5430   2.152   1.789   4.804
   66OSM   H11F 5431   2.071   1.814   4.875
   66OSM   H11G 5432   2.098   1.793   4.707
   66OSM   C12F 5433   2.255   1.900   4.815
   66OSM   H12F 5434   2.309   1.897   4.912
   66OSM   H12G 5435   2.205   1.999   4.814
   66OSM   C13F 5436   2.356   1.887   4.697
   66OSM   H13F 5437   2.387   1.780   4.687
   66OSM   H13G 5438   2.447   1.939   4.734
   66OSM   C14F 5439   2.324   1.953   4.565
   66OSM   H14F 5440   2.246   1.892   4.514
   66OSM   H14G 5441   2.418   1.954   4.506
   66OSM   C15F 5442   2.291   2.104   4.570
   66OSM   H15F 5443   2.378   2.154   4.616
   66OSM   H15G 5444   2.197   2.121   4.627
   66OSM   C16F 5445   2.267   2.178   4.431
   66OSM   H16F 5446   2.357   2.148   4.372
   66OSM   H16G 5447   2.285   2.287   4.445
   66OSM   C17F 5448   2.131   2.159   4.369
   66OSM   H17F 5449   2.056   2.183   4.447
   66OSM   H17G 5450   2.108   2.053   4.347
   66OSM   C18F 5451   2.112   2.241   4.237
   66OSM   H18F 5452   2.177   2.190   4.162
   66OSM   H18G 5453   2.148   2.345   4.247
   66OSM   H18H 5454   2.006   2.236   4.205
   67OSM      N 5455   2.728   6.082   6.755
   67OSM    C15 5456   2.766   6.076   6.903
   67OSM   H15A 5457   2.744   5.978   6.943
   67OSM   H15B 5458   2.712   6.151   6.958
   67OSM   H15C 5459   2.871   6.096   6.917
   67OSM    C14 5460   2.585   6.029   6.741
   67OSM   H14A 5461   2.509   6.099   6.773
   67OSM   H14B 5462   2.567   5.935   6.792
   67OSM   H14C 5463   2.566   6.007   6.637
   67OSM    C13 5464   2.742   6.225   6.709
   67OSM   H13A 5465   2.836   6.265   6.742
   67OSM   H13B 5466   2.672   6.289   6.762
   67OSM   H13C 5467   2.736   6.239   6.602
   67OSM    C12 5468   2.822   5.985   6.670
   67OSM   H12A 5469   2.767   5.978   6.577
   67OSM   H12B 5470   2.825   5.886   6.714
   67OSM    C11 5471   2.967   6.030   6.629
   67OSM   H11A 5472   3.013   5.941   6.580
   67OSM   H11B 5473   3.008   6.050   6.731
   67OSM      P 5474   3.095   6.242   6.520
   67OSM    O13 5475   3.042   6.351   6.439
   67OSM    O14 5476   3.154   6.263   6.651
   67OSM    O11 5477   3.190   6.143   6.430
   67OSM    O12 5478   2.969   6.149   6.547
   67OSM    C1S 5479   3.144   6.101   6.298
   67OSM    H1S 5480   3.035   6.086   6.284
   67OSM    H1T 5481   3.199   6.008   6.273
   67OSM     NF 5482   3.120   6.146   6.065
   67OSM    HNF 5483   3.163   6.071   6.014
   67OSM    C2S 5484   3.191   6.192   6.181
   67OSM    H2S 5485   3.149   6.292   6.204
   67OSM    C3S 5486   3.350   6.183   6.175
   67OSM    H3S 5487   3.396   6.084   6.157
   67OSM     O3 5488   3.412   6.232   6.290
   67OSM    HO3 5489   3.344   6.240   6.358
   67OSM    C4S 5490   3.391   6.272   6.061
   67OSM    H4S 5491   3.383   6.381   6.071
   67OSM    C5S 5492   3.445   6.224   5.948
   67OSM    H5S 5493   3.484   6.121   5.943
   67OSM    C6S 5494   3.491   6.317   5.832
   67OSM    H6S 5495   3.600   6.300   5.821
   67OSM    H6T 5496   3.498   6.425   5.856
   67OSM    C7S 5497   3.419   6.303   5.701
   67OSM    H7S 5498   3.311   6.324   5.709
   67OSM    H7T 5499   3.435   6.201   5.659
   67OSM    C8S 5500   3.480   6.396   5.592
   67OSM    H8S 5501   3.586   6.365   5.582
   67OSM    H8T 5502   3.483   6.504   5.615
   67OSM    C9S 5503   3.416   6.365   5.459
   67OSM    H9S 5504   3.307   6.380   5.475
   67OSM    H9T 5505   3.430   6.255   5.450
   67OSM   C10S 5506   3.465   6.447   5.338
   67OSM   H10S 5507   3.572   6.422   5.322
   67OSM   H10T 5508   3.458   6.557   5.358
   67OSM   C11S 5509   3.408   6.402   5.205
   67OSM   H11S 5510   3.298   6.401   5.221
   67OSM   H11T 5511   3.431   6.297   5.176
   67OSM   C12S 5512   3.447   6.498   5.089
   67OSM   H12S 5513   3.557   6.493   5.078
   67OSM   H12T 5514   3.427   6.601   5.125
   67OSM   C13S 5515   3.386   6.461   4.962
   67OSM   H13S 5516   3.276   6.456   4.976
   67OSM   H13T 5517   3.428   6.366   4.922
   67OSM   C14S 5518   3.418   6.560   4.845
   67OSM   H14S 5519   3.528   6.573   4.838
   67OSM   H14T 5520   3.379   6.660   4.872
   67OSM   C15S 5521   3.343   6.524   4.714
   67OSM   H15S 5522   3.236   6.510   4.738
   67OSM   H15T 5523   3.384   6.427   4.677
   67OSM   C16S 5524   3.361   6.624   4.599
   67OSM   H16S 5525   3.470   6.644   4.595
   67OSM   H16T 5526   3.332   6.729   4.621
   67OSM   C17S 5527   3.306   6.576   4.467
   67OSM   H17S 5528   3.357   6.481   4.440
   67OSM   H17T 5529   3.336   6.646   4.386
   67OSM   C18S 5530   3.150   6.577   4.455
   67OSM   H18S 5531   3.112   6.539   4.358
   67OSM   H18T 5532   3.109   6.680   4.466
   67OSM   H18U 5533   3.093   6.517   4.529
   67OSM    C1F 5534   2.992   6.165   6.032
   67OSM     OF 5535   2.916   6.218   6.112
   67OSM    C2F 5536   2.929   6.105   5.907
   67OSM    H2F 5537   2.852   6.184   5.896
   67OSM    H2G 5538   2.871   6.011   5.921
   67OSM    C3F 5539   3.028   6.110   5.789
   67OSM    H3F 5540   3.098   6.024   5.793
   67OSM    H3G 5541   3.098   6.197   5.794
   67OSM    C4F 5542   2.961   6.101   5.658
   67OSM    H4F 5543   2.871   6.166   5.663
   67OSM    H4G 5544   2.917   5.999   5.653
   67OSM    C5F 5545   3.050   6.130   5.536
   67OSM    H5F 5546   3.148   6.078   5.547
   67OSM    H5G 5547   3.056   6.241   5.540
   67OSM    C6F 5548   2.992   6.097   5.391
   67OSM    H6F 5549   2.881   6.094   5.389
   67OSM    H6G 5550   3.035   6.002   5.353
   67OSM    C7F 5551   3.036   6.198   5.284
   67OSM    H7F 5552   3.141   6.220   5.311
   67OSM    H7G 5553   2.974   6.290   5.292
   67OSM    C8F 5554   3.030   6.141   5.141
   67OSM    H8F 5555   2.939   6.080   5.120
   67OSM    H8G 5556   3.113   6.067   5.130
   67OSM    C9F 5557   3.047   6.248   5.036
   67OSM    H9F 5558   3.144   6.301   5.031
   67OSM   C10F 5559   2.978   6.265   4.913
   67OSM   H10F 5560   3.003   6.345   4.842
   67OSM   C11F 5561   2.857   6.186   4.865
   67OSM   H11F 5562   2.770   6.255   4.860
   67OSM   H11G 5563   2.830   6.107   4.939
   67OSM   C12F 5564   2.871   6.138   4.717
   67OSM   H12F 5565   2.771   6.094   4.695
   67OSM   H12G 5566   2.951   6.061   4.713
   67OSM   C13F 5567   2.887   6.256   4.621
   67OSM   H13F 5568   2.991   6.294   4.632
   67OSM   H13G 5569   2.806   6.332   4.623
   67OSM   C14F 5570   2.889   6.206   4.476
   67OSM   H14F 5571   2.791   6.163   4.448
   67OSM   H14G 5572   2.964   6.125   4.463
   67OSM   C15F 5573   2.913   6.313   4.367
   67OSM   H15F 5574   3.024   6.317   4.359
   67OSM   H15G 5575   2.863   6.408   4.395
   67OSM   C16F 5576   2.863   6.270   4.236
   67OSM   H16F 5577   2.755   6.242   4.240
   67OSM   H16G 5578   2.913   6.177   4.202
   67OSM   C17F 5579   2.874   6.375   4.122
   67OSM   H17F 5580   2.893   6.321   4.027
   67OSM   H17G 5581   2.968   6.435   4.128
   67OSM   C18F 5582   2.757   6.468   4.097
   67OSM   H18F 5583   2.672   6.401   4.074
   67OSM   H18G 5584   2.775   6.543   4.017
   67OSM   H18H 5585   2.722   6.523   4.187
   68OSM      N 5586   0.936   2.231   6.849
   68OSM    C15 5587   0.862   2.330   6.768
   68OSM   H15A 5588   0.757   2.347   6.787
   68OSM   H15B 5589   0.875   2.299   6.665
   68OSM   H15C 5590   0.920   2.420   6.783
   68OSM    C14 5591   0.921   2.281   6.996
   68OSM   H14A 5592   0.963   2.206   7.061
   68OSM   H14B 5593   0.819   2.312   7.014
   68OSM   H14C 5594   0.985   2.367   7.012
   68OSM    C13 5595   0.871   2.093   6.838
   68OSM   H13A 5596   0.766   2.113   6.854
   68OSM   H13B 5597   0.905   2.034   6.921
   68OSM   H13C 5598   0.889   2.044   6.743
   68OSM    C12 5599   1.083   2.235   6.807
   68OSM   H12A 5600   1.149   2.170   6.863
   68OSM   H12B 5601   1.121   2.335   6.825
   68OSM    C11 5602   1.111   2.196   6.660
   68OSM   H11A 5603   1.019   2.145   6.624
   68OSM   H11B 5604   1.193   2.121   6.650
   68OSM      P 5605   1.265   2.309   6.484
   68OSM    O13 5606   1.261   2.430   6.407
   68OSM    O14 5607   1.389   2.273   6.562
   68OSM    O11 5608   1.218   2.189   6.395
   68OSM    O12 5609   1.136   2.312   6.585
   68OSM    C1S 5610   1.289   2.163   6.276
   68OSM    H1S 5611   1.364   2.083   6.293
   68OSM    H1T 5612   1.346   2.249   6.236
   68OSM     NF 5613   1.280   2.083   6.044
   68OSM    HNF 5614   1.281   2.139   5.961
   68OSM    C2S 5615   1.197   2.128   6.158
   68OSM    H2S 5616   1.142   2.040   6.198
   68OSM    C3S 5617   1.104   2.241   6.120
   68OSM    H3S 5618   1.161   2.335   6.107
   68OSM     O3 5619   1.009   2.282   6.220
   68OSM    HO3 5620   1.059   2.289   6.302
   68OSM    C4S 5621   1.014   2.222   5.999
   68OSM    H4S 5622   0.943   2.140   6.021
   68OSM    C5S 5623   0.999   2.300   5.890
   68OSM    H5S 5624   1.050   2.397   5.898
   68OSM    C6S 5625   0.913   2.278   5.774
   68OSM    H6S 5626   0.812   2.311   5.806
   68OSM    H6T 5627   0.899   2.169   5.768
   68OSM    C7S 5628   0.954   2.338   5.636
   68OSM    H7S 5629   1.054   2.299   5.606
   68OSM    H7T 5630   0.965   2.448   5.647
   68OSM    C8S 5631   0.854   2.297   5.527
   68OSM    H8S 5632   0.751   2.337   5.545
   68OSM    H8T 5633   0.841   2.187   5.519
   68OSM    C9S 5634   0.896   2.346   5.387
   68OSM    H9S 5635   0.978   2.282   5.349
   68OSM    H9T 5636   0.929   2.452   5.396
   68OSM   C10S 5637   0.785   2.334   5.286
   68OSM   H10S 5638   0.697   2.396   5.314
   68OSM   H10T 5639   0.760   2.226   5.294
   68OSM   C11S 5640   0.832   2.370   5.141
   68OSM   H11S 5641   0.934   2.324   5.145
   68OSM   H11T 5642   0.841   2.480   5.129
   68OSM   C12S 5643   0.745   2.315   5.025
   68OSM   H12S 5644   0.662   2.387   5.009
   68OSM   H12T 5645   0.704   2.216   5.055
   68OSM   C13S 5646   0.817   2.304   4.894
   68OSM   H13S 5647   0.916   2.257   4.909
   68OSM   H13T 5648   0.831   2.407   4.853
   68OSM   C14S 5649   0.734   2.226   4.792
   68OSM   H14S 5650   0.639   2.283   4.781
   68OSM   H14T 5651   0.711   2.124   4.830
   68OSM   C15S 5652   0.795   2.210   4.657
   68OSM   H15S 5653   0.894   2.160   4.662
   68OSM   H15T 5654   0.812   2.312   4.616
   68OSM   C16S 5655   0.712   2.126   4.557
   68OSM   H16S 5656   0.601   2.134   4.568
   68OSM   H16T 5657   0.738   2.019   4.564
   68OSM   C17S 5658   0.738   2.164   4.408
   68OSM   H17S 5659   0.842   2.150   4.371
   68OSM   H17T 5660   0.720   2.273   4.407
   68OSM   C18S 5661   0.648   2.101   4.300
   68OSM   H18S 5662   0.626   2.164   4.211
   68OSM   H18T 5663   0.553   2.080   4.352
   68OSM   H18U 5664   0.699   2.008   4.266
   68OSM    C1F 5665   1.359   1.973   6.055
   68OSM     OF 5666   1.352   1.907   6.157
   68OSM    C2F 5667   1.472   1.952   5.954
   68OSM    H2F 5668   1.563   1.953   6.018
   68OSM    H2G 5669   1.468   2.033   5.877
   68OSM    C3F 5670   1.462   1.816   5.880
   68OSM    H3F 5671   1.363   1.799   5.832
   68OSM    H3G 5672   1.483   1.737   5.955
   68OSM    C4F 5673   1.558   1.815   5.760
   68OSM    H4F 5674   1.662   1.808   5.801
   68OSM    H4G 5675   1.561   1.912   5.707
   68OSM    C5F 5676   1.527   1.695   5.660
   68OSM    H5F 5677   1.421   1.720   5.638
   68OSM    H5G 5678   1.539   1.595   5.707
   68OSM    C6F 5679   1.625   1.695   5.551
   68OSM    H6F 5680   1.730   1.672   5.579
   68OSM    H6G 5681   1.617   1.802   5.522
   68OSM    C7F 5682   1.586   1.609   5.424
   68OSM    H7F 5683   1.541   1.511   5.450
   68OSM    H7G 5684   1.688   1.584   5.388
   68OSM    C8F 5685   1.499   1.677   5.319
   68OSM    H8F 5686   1.411   1.727   5.365
   68OSM    H8G 5687   1.457   1.602   5.248
   68OSM    C9F 5688   1.580   1.765   5.229
   68OSM    H9F 5689   1.579   1.872   5.253
   68OSM   C10F 5690   1.647   1.726   5.120
   68OSM   H10F 5691   1.706   1.806   5.072
   68OSM   C11F 5692   1.656   1.588   5.061
   68OSM   H11F 5693   1.639   1.507   5.135
   68OSM   H11G 5694   1.759   1.584   5.019
   68OSM   C12F 5695   1.563   1.567   4.937
   68OSM   H12F 5696   1.465   1.526   4.969
   68OSM   H12G 5697   1.606   1.478   4.887
   68OSM   C13F 5698   1.560   1.667   4.828
   68OSM   H13F 5699   1.665   1.681   4.794
   68OSM   H13G 5700   1.512   1.757   4.874
   68OSM   C14F 5701   1.466   1.619   4.714
   68OSM   H14F 5702   1.434   1.713   4.665
   68OSM   H14G 5703   1.378   1.577   4.768
   68OSM   C15F 5704   1.532   1.524   4.621
   68OSM   H15F 5705   1.527   1.419   4.658
   68OSM   H15G 5706   1.638   1.554   4.611
   68OSM   C16F 5707   1.474   1.530   4.475
   68OSM   H16F 5708   1.439   1.635   4.464
   68OSM   H16G 5709   1.398   1.451   4.490
   68OSM   C17F 5710   1.563   1.484   4.355
   68OSM   H17F 5711   1.582   1.377   4.380
   68OSM   H17G 5712   1.657   1.543   4.360
   68OSM   C18F 5713   1.486   1.505   4.226
   68OSM   H18F 5714   1.407   1.427   4.220
   68OSM   H18G 5715   1.542   1.503   4.130
   68OSM   H18H 5716   1.432   1.602   4.224
   69OSM      N 5717   3.097   0.803   6.421
   69OSM    C15 5718   3.097   0.706   6.536
   69OSM   H15A 5719   2.998   0.699   6.578
   69OSM   H15B 5720   3.168   0.737   6.611
   69OSM   H15C 5721   3.120   0.605   6.505
   69OSM    C14 5722   3.082   0.944   6.477
   69OSM   H14A 5723   3.177   0.965   6.524
   69OSM   H14B 5724   3.008   0.959   6.554
   69OSM   H14C 5725   3.070   1.017   6.397
   69OSM    C13 5726   3.227   0.792   6.340
   69OSM   H13A 5727   3.229   0.692   6.300
   69OSM   H13B 5728   3.311   0.814   6.404
   69OSM   H13C 5729   3.222   0.867   6.262
   69OSM    C12 5730   2.986   0.764   6.327
   69OSM   H12A 5731   2.891   0.761   6.378
   69OSM   H12B 5732   3.005   0.661   6.299
   69OSM    C11 5733   2.966   0.849   6.194
   69OSM   H11A 5734   2.900   0.799   6.120
   69OSM   H11B 5735   3.059   0.837   6.133
   69OSM      P 5736   2.771   1.001   6.272
   69OSM    O13 5737   2.712   0.870   6.303
   69OSM    O14 5738   2.775   1.105   6.376
   69OSM    O11 5739   2.708   1.060   6.143
   69OSM    O12 5740   2.915   0.979   6.218
   69OSM    C1S 5741   2.706   0.994   6.014
   69OSM    H1S 5742   2.603   0.954   6.004
   69OSM    H1T 5743   2.771   0.904   6.009
   69OSM     NF 5744   2.757   1.015   5.770
   69OSM    HNF 5745   2.850   0.994   5.742
   69OSM    C2S 5746   2.736   1.092   5.889
   69OSM    H2S 5747   2.648   1.152   5.859
   69OSM    C3S 5748   2.848   1.191   5.915
   69OSM    H3S 5749   2.940   1.130   5.926
   69OSM     O3 5750   2.834   1.267   6.031
   69OSM    HO3 5751   2.771   1.220   6.086
   69OSM    C4S 5752   2.849   1.287   5.796
   69OSM    H4S 5753   2.781   1.371   5.813
   69OSM    C5S 5754   2.928   1.279   5.692
   69OSM    H5S 5755   2.991   1.191   5.672
   69OSM    C6S 5756   2.920   1.378   5.575
   69OSM    H6S 5757   3.025   1.387   5.540
   69OSM    H6T 5758   2.892   1.474   5.624
   69OSM    C7S 5759   2.835   1.346   5.454
   69OSM    H7S 5760   2.734   1.312   5.487
   69OSM    H7T 5761   2.879   1.263   5.395
   69OSM    C8S 5762   2.832   1.465   5.361
   69OSM    H8S 5763   2.936   1.498   5.338
   69OSM    H8T 5764   2.782   1.549   5.414
   69OSM    C9S 5765   2.757   1.426   5.236
   69OSM    H9S 5766   2.651   1.400   5.257
   69OSM    H9T 5767   2.793   1.330   5.194
   69OSM   C10S 5768   2.751   1.535   5.128
   69OSM   H10S 5769   2.855   1.572   5.110
   69OSM   H10T 5770   2.706   1.628   5.170
   69OSM   C11S 5771   2.678   1.495   5.001
   69OSM   H11S 5772   2.577   1.458   5.026
   69OSM   H11T 5773   2.736   1.412   4.956
   69OSM   C12S 5774   2.676   1.607   4.887
   69OSM   H12S 5775   2.758   1.676   4.916
   69OSM   H12T 5776   2.587   1.674   4.894
   69OSM   C13S 5777   2.702   1.548   4.749
   69OSM   H13S 5778   2.636   1.461   4.731
   69OSM   H13T 5779   2.809   1.517   4.746
   69OSM   C14S 5780   2.686   1.657   4.640
   69OSM   H14S 5781   2.754   1.742   4.663
   69OSM   H14T 5782   2.579   1.680   4.659
   69OSM   C15S 5783   2.724   1.612   4.498
   69OSM   H15S 5784   2.645   1.543   4.460
   69OSM   H15T 5785   2.820   1.557   4.507
   69OSM   C16S 5786   2.742   1.732   4.406
   69OSM   H16S 5787   2.801   1.809   4.459
   69OSM   H16T 5788   2.648   1.782   4.375
   69OSM   C17S 5789   2.811   1.692   4.274
   69OSM   H17S 5790   2.759   1.736   4.186
   69OSM   H17T 5791   2.806   1.584   4.249
   69OSM   C18S 5792   2.962   1.737   4.268
   69OSM   H18S 5793   3.014   1.689   4.354
   69OSM   H18T 5794   2.970   1.846   4.289
   69OSM   H18U 5795   3.025   1.715   4.179
   69OSM    C1F 5796   2.674   0.933   5.709
   69OSM     OF 5797   2.560   0.925   5.742
   69OSM    C2F 5798   2.746   0.835   5.627
   69OSM    H2F 5799   2.751   0.740   5.686
   69OSM    H2G 5800   2.844   0.881   5.604
   69OSM    C3F 5801   2.681   0.804   5.493
   69OSM    H3F 5802   2.588   0.746   5.511
   69OSM    H3G 5803   2.750   0.740   5.435
   69OSM    C4F 5804   2.649   0.926   5.416
   69OSM    H4F 5805   2.713   1.014   5.434
   69OSM    H4G 5806   2.546   0.958   5.442
   69OSM    C5F 5807   2.664   0.902   5.264
   69OSM    H5F 5808   2.765   0.860   5.247
   69OSM    H5G 5809   2.662   0.995   5.204
   69OSM    C6F 5810   2.564   0.808   5.204
   69OSM    H6F 5811   2.467   0.862   5.212
   69OSM    H6G 5812   2.544   0.715   5.261
   69OSM    C7F 5813   2.595   0.787   5.054
   69OSM    H7F 5814   2.689   0.727   5.053
   69OSM    H7G 5815   2.603   0.885   5.002
   69OSM    C8F 5816   2.497   0.698   4.980
   69OSM    H8F 5817   2.417   0.770   4.951
   69OSM    H8G 5818   2.456   0.621   5.049
   69OSM    C9F 5819   2.552   0.630   4.856
   69OSM    H9F 5820   2.635   0.562   4.880
   69OSM   C10F 5821   2.522   0.655   4.728
   69OSM   H10F 5822   2.576   0.600   4.650
   69OSM   C11F 5823   2.413   0.746   4.674
   69OSM   H11F 5824   2.444   0.851   4.691
   69OSM   H11G 5825   2.324   0.731   4.739
   69OSM   C12F 5826   2.366   0.728   4.528
   69OSM   H12F 5827   2.342   0.620   4.519
   69OSM   H12G 5828   2.447   0.740   4.453
   69OSM   C13F 5829   2.238   0.807   4.507
   69OSM   H13F 5830   2.267   0.913   4.527
   69OSM   H13G 5831   2.158   0.777   4.578
   69OSM   C14F 5832   2.168   0.797   4.373
   69OSM   H14F 5833   2.068   0.846   4.382
   69OSM   H14G 5834   2.161   0.692   4.339
   69OSM   C15F 5835   2.245   0.870   4.259
   69OSM   H15F 5836   2.317   0.804   4.206
   69OSM   H15G 5837   2.308   0.952   4.300
   69OSM   C16F 5838   2.149   0.935   4.161
   69OSM   H16F 5839   2.095   1.018   4.212
   69OSM   H16G 5840   2.070   0.864   4.130
   69OSM   C17F 5841   2.221   0.977   4.031
   69OSM   H17F 5842   2.267   0.893   3.976
   69OSM   H17G 5843   2.299   1.048   4.066
   69OSM   C18F 5844   2.129   1.054   3.943
   69OSM   H18F 5845   2.044   1.106   3.993
   69OSM   H18G 5846   2.077   0.992   3.867
   69OSM   H18H 5847   2.188   1.123   3.878
   70OSM      N 5848   1.072   1.806   6.486
   70OSM    C15 5849   1.034   1.692   6.409
   70OSM   H15A 5850   0.952   1.645   6.460
   70OSM   H15B 5851   1.111   1.617   6.398
   70OSM   H15C 5852   0.997   1.717   6.310
   70OSM    C14 5853   1.123   1.764   6.623
   70OSM   H14A 5854   1.140   1.849   6.687
   70OSM   H14B 5855   1.221   1.719   6.622
   70OSM   H14C 5856   1.061   1.696   6.679
   70OSM    C13 5857   1.186   1.871   6.416
   70OSM   H13A 5858   1.270   1.803   6.425
   70OSM   H13B 5859   1.224   1.959   6.465
   70OSM   H13C 5860   1.169   1.890   6.311
   70OSM    C12 5861   0.960   1.904   6.497
   70OSM   H12A 5862   0.948   1.958   6.404
   70OSM   H12B 5863   1.006   1.976   6.563
   70OSM    C11 5864   0.825   1.855   6.534
   70OSM   H11A 5865   0.837   1.791   6.624
   70OSM   H11B 5866   0.785   1.801   6.445
   70OSM      P 5867   0.594   1.940   6.607
   70OSM    O13 5868   0.589   1.809   6.673
   70OSM    O14 5869   0.551   2.056   6.687
   70OSM    O11 5870   0.505   1.930   6.477
   70OSM    O12 5871   0.747   1.971   6.560
   70OSM    C1S 5872   0.535   2.003   6.356
   70OSM    H1S 5873   0.617   1.961   6.295
   70OSM    H1T 5874   0.558   2.111   6.372
   70OSM     NF 5875   0.430   2.049   6.138
   70OSM    HNF 5876   0.397   2.143   6.130
   70OSM    C2S 5877   0.406   1.986   6.267
   70OSM    H2S 5878   0.403   1.878   6.238
   70OSM    C3S 5879   0.277   2.026   6.339
   70OSM    H3S 5880   0.295   2.131   6.372
   70OSM     O3 5881   0.241   1.964   6.459
   70OSM    HO3 5882   0.329   1.928   6.476
   70OSM    C4S 5883   0.150   2.028   6.255
   70OSM    H4S 5884   0.144   2.122   6.197
   70OSM    C5S 5885   0.060   1.932   6.235
   70OSM    H5S 5886   0.088   1.832   6.272
   70OSM    C6S 5887  -0.063   1.944   6.144
   70OSM    H6S 5888  -0.152   1.927   6.208
   70OSM    H6T 5889  -0.059   1.862   6.070
   70OSM    C7S 5890  -0.072   2.081   6.078
   70OSM    H7S 5891  -0.064   2.169   6.145
   70OSM    H7T 5892  -0.181   2.092   6.061
   70OSM    C8S 5893   0.000   2.097   5.941
   70OSM    H8S 5894  -0.016   2.004   5.882
   70OSM    H8T 5895   0.111   2.106   5.947
   70OSM    C9S 5896  -0.045   2.218   5.855
   70OSM    H9S 5897  -0.023   2.311   5.911
   70OSM    H9T 5898  -0.155   2.208   5.842
   70OSM   C10S 5899   0.036   2.215   5.722
   70OSM   H10S 5900   0.002   2.128   5.661
   70OSM   H10T 5901   0.144   2.203   5.741
   70OSM   C11S 5902   0.021   2.341   5.647
   70OSM   H11S 5903   0.042   2.427   5.713
   70OSM   H11T 5904  -0.085   2.363   5.620
   70OSM   C12S 5905   0.098   2.356   5.514
   70OSM   H12S 5906   0.061   2.272   5.452
   70OSM   H12T 5907   0.208   2.351   5.527
   70OSM   C13S 5908   0.069   2.485   5.445
   70OSM   H13S 5909   0.145   2.560   5.472
   70OSM   H13T 5910  -0.033   2.524   5.465
   70OSM   C14S 5911   0.051   2.468   5.291
   70OSM   H14S 5912   0.114   2.384   5.254
   70OSM   H14T 5913   0.095   2.554   5.238
   70OSM   C15S 5914  -0.096   2.441   5.241
   70OSM   H15S 5915  -0.099   2.461   5.131
   70OSM   H15T 5916  -0.159   2.508   5.303
   70OSM   C16S 5917  -0.156   2.302   5.253
   70OSM   H16S 5918  -0.257   2.309   5.208
   70OSM   H16T 5919  -0.152   2.267   5.359
   70OSM   C17S 5920  -0.088   2.200   5.152
   70OSM   H17S 5921   0.019   2.209   5.179
   70OSM   H17T 5922  -0.095   2.236   5.047
   70OSM   C18S 5923  -0.118   2.053   5.164
   70OSM   H18S 5924  -0.227   2.032   5.161
   70OSM   H18T 5925  -0.072   2.010   5.256
   70OSM   H18U 5926  -0.072   1.992   5.084
   70OSM    C1F 5927   0.514   2.003   6.050
   70OSM     OF 5928   0.568   1.896   6.075
   70OSM    C2F 5929   0.542   2.081   5.918
   70OSM    H2F 5930   0.645   2.070   5.876
   70OSM    H2G 5931   0.539   2.187   5.951
   70OSM    C3F 5932   0.433   2.057   5.816
   70OSM    H3F 5933   0.332   2.085   5.853
   70OSM    H3G 5934   0.447   1.950   5.788
   70OSM    C4F 5935   0.469   2.139   5.688
   70OSM    H4F 5936   0.578   2.121   5.674
   70OSM    H4G 5937   0.466   2.249   5.701
   70OSM    C5F 5938   0.396   2.093   5.567
   70OSM    H5F 5939   0.286   2.097   5.585
   70OSM    H5G 5940   0.419   1.985   5.561
   70OSM    C6F 5941   0.432   2.159   5.436
   70OSM    H6F 5942   0.543   2.171   5.438
   70OSM    H6G 5943   0.395   2.262   5.423
   70OSM    C7F 5944   0.410   2.069   5.316
   70OSM    H7F 5945   0.300   2.063   5.302
   70OSM    H7G 5946   0.468   1.979   5.347
   70OSM    C8F 5947   0.477   2.117   5.190
   70OSM    H8F 5948   0.476   2.037   5.114
   70OSM    H8G 5949   0.585   2.134   5.210
   70OSM    C9F 5950   0.412   2.237   5.138
   70OSM    H9F 5951   0.410   2.312   5.218
   70OSM   C10F 5952   0.343   2.257   5.021
   70OSM   H10F 5953   0.300   2.355   4.999
   70OSM   C11F 5954   0.321   2.158   4.909
   70OSM   H11F 5955   0.354   2.056   4.937
   70OSM   H11G 5956   0.391   2.201   4.834
   70OSM   C12F 5957   0.177   2.153   4.855
   70OSM   H12F 5958   0.156   2.255   4.813
   70OSM   H12G 5959   0.099   2.128   4.930
   70OSM   C13F 5960   0.164   2.054   4.738
   70OSM   H13F 5961   0.186   1.952   4.776
   70OSM   H13G 5962   0.243   2.065   4.661
   70OSM   C14F 5963   0.021   2.050   4.675
   70OSM   H14F 5964  -0.008   2.152   4.643
   70OSM   H14G 5965  -0.048   2.020   4.757
   70OSM   C15F 5966   0.017   1.951   4.554
   70OSM   H15F 5967   0.049   1.850   4.585
   70OSM   H15G 5968   0.085   1.987   4.474
   70OSM   C16F 5969  -0.135   1.939   4.503
   70OSM   H16F 5970  -0.200   1.916   4.590
   70OSM   H16G 5971  -0.143   1.862   4.424
   70OSM   C17F 5972  -0.191   2.072   4.455
   70OSM   H17F 5973  -0.121   2.126   4.388
   70OSM   H17G 5974  -0.215   2.142   4.538
   70OSM   C18F 5975  -0.323   2.052   4.381
   70OSM   H18F 5976  -0.310   1.960   4.321
   70OSM   H18G 5977  -0.320   2.136   4.308
   70OSM   H18H 5978  -0.420   2.039   4.434
   71OSM      N 5979   6.555   3.315   6.591
   71OSM    C15 5980   6.657   3.365   6.690
   71OSM   H15A 5981   6.732   3.288   6.698
   71OSM   H15B 5982   6.623   3.360   6.792
   71OSM   H15C 5983   6.704   3.458   6.660
   71OSM    C14 5984   6.498   3.195   6.655
   71OSM   H14A 5985   6.582   3.143   6.699
   71OSM   H14B 5986   6.458   3.132   6.577
   71OSM   H14C 5987   6.431   3.208   6.738
   71OSM    C13 5988   6.442   3.421   6.590
   71OSM   H13A 5989   6.350   3.377   6.554
   71OSM   H13B 5990   6.470   3.514   6.542
   71OSM   H13C 5991   6.420   3.454   6.690
   71OSM    C12 5992   6.604   3.290   6.449
   71OSM   H12A 5993   6.689   3.224   6.453
   71OSM   H12B 5994   6.658   3.378   6.416
   71OSM    C11 5995   6.504   3.230   6.345
   71OSM   H11A 5996   6.553   3.233   6.246
   71OSM   H11B 5997   6.424   3.306   6.334
   71OSM      P 5998   6.541   2.975   6.327
   71OSM    O13 5999   6.678   3.003   6.358
   71OSM    O14 6000   6.486   2.849   6.384
   71OSM    O11 6001   6.527   2.985   6.168
   71OSM    O12 6002   6.460   3.098   6.385
   71OSM    C1S 6003   6.395   2.972   6.116
   71OSM    H1S 6004   6.344   3.069   6.136
   71OSM    H1T 6005   6.339   2.893   6.170
   71OSM     NF 6006   6.260   2.968   5.896
   71OSM    HNF 6007   6.203   2.888   5.876
   71OSM    C2S 6008   6.393   2.942   5.961
   71OSM    H2S 6009   6.455   3.021   5.913
   71OSM    C3S 6010   6.454   2.808   5.933
   71OSM    H3S 6011   6.399   2.724   5.979
   71OSM     O3 6012   6.594   2.796   5.967
   71OSM    HO3 6013   6.607   2.861   6.037
   71OSM    C4S 6014   6.445   2.795   5.780
   71OSM    H4S 6015   6.344   2.764   5.752
   71OSM    C5S 6016   6.533   2.830   5.678
   71OSM    H5S 6017   6.630   2.872   5.708
   71OSM    C6S 6018   6.509   2.818   5.528
   71OSM    H6S 6019   6.583   2.748   5.485
   71OSM    H6T 6020   6.543   2.914   5.483
   71OSM    C7S 6021   6.367   2.791   5.472
   71OSM    H7S 6022   6.302   2.878   5.497
   71OSM    H7T 6023   6.319   2.699   5.513
   71OSM    C8S 6024   6.362   2.781   5.317
   71OSM    H8S 6025   6.371   2.880   5.267
   71OSM    H8T 6026   6.263   2.743   5.284
   71OSM    C9S 6027   6.461   2.686   5.246
   71OSM    H9S 6028   6.431   2.582   5.271
   71OSM    H9T 6029   6.564   2.712   5.279
   71OSM   C10S 6030   6.468   2.713   5.093
   71OSM   H10S 6031   6.489   2.821   5.078
   71OSM   H10T 6032   6.373   2.697   5.038
   71OSM   C11S 6033   6.570   2.621   5.023
   71OSM   H11S 6034   6.563   2.516   5.060
   71OSM   H11T 6035   6.670   2.659   5.050
   71OSM   C12S 6036   6.571   2.610   4.866
   71OSM   H12S 6037   6.594   2.711   4.825
   71OSM   H12T 6038   6.479   2.557   4.834
   71OSM   C13S 6039   6.691   2.531   4.811
   71OSM   H13S 6040   6.663   2.428   4.842
   71OSM   H13T 6041   6.784   2.550   4.868
   71OSM   C14S 6042   6.717   2.559   4.665
   71OSM   H14S 6043   6.773   2.654   4.653
   71OSM   H14T 6044   6.619   2.577   4.616
   71OSM   C15S 6045   6.798   2.454   4.589
   71OSM   H15S 6046   6.748   2.359   4.616
   71OSM   H15T 6047   6.896   2.438   4.638
   71OSM   C16S 6048   6.795   2.465   4.436
   71OSM   H16S 6049   6.703   2.523   4.411
   71OSM   H16T 6050   6.787   2.367   4.385
   71OSM   C17S 6051   6.911   2.541   4.371
   71OSM   H17S 6052   6.940   2.637   4.418
   71OSM   H17T 6053   6.886   2.565   4.266
   71OSM   C18S 6054   7.034   2.459   4.385
   71OSM   H18S 6055   7.114   2.510   4.329
   71OSM   H18T 6056   7.017   2.365   4.327
   71OSM   H18U 6057   7.051   2.438   4.493
   71OSM    C1F 6058   6.216   3.088   5.887
   71OSM     OF 6059   6.284   3.182   5.916
   71OSM    C2F 6060   6.080   3.111   5.830
   71OSM    H2F 6061   6.004   3.093   5.909
   71OSM    H2G 6062   6.063   3.042   5.744
   71OSM    C3F 6063   6.060   3.251   5.771
   71OSM    H3F 6064   6.066   3.331   5.847
   71OSM    H3G 6065   5.957   3.245   5.728
   71OSM    C4F 6066   6.167   3.273   5.660
   71OSM    H4F 6067   6.189   3.176   5.609
   71OSM    H4G 6068   6.268   3.284   5.702
   71OSM    C5F 6069   6.114   3.379   5.554
   71OSM    H5F 6070   6.123   3.476   5.607
   71OSM    H5G 6071   6.007   3.354   5.537
   71OSM    C6F 6072   6.193   3.390   5.422
   71OSM    H6F 6073   6.218   3.295   5.370
   71OSM    H6G 6074   6.292   3.435   5.443
   71OSM    C7F 6075   6.113   3.485   5.325
   71OSM    H7F 6076   6.118   3.588   5.367
   71OSM    H7G 6077   6.008   3.452   5.334
   71OSM    C8F 6078   6.174   3.484   5.180
   71OSM    H8F 6079   6.165   3.379   5.144
   71OSM    H8G 6080   6.282   3.508   5.172
   71OSM    C9F 6081   6.101   3.577   5.090
   71OSM    H9F 6082   6.111   3.680   5.127
   71OSM   C10F 6083   6.034   3.557   4.977
   71OSM   H10F 6084   5.992   3.642   4.921
   71OSM   C11F 6085   6.012   3.423   4.910
   71OSM   H11F 6086   5.902   3.421   4.891
   71OSM   H11G 6087   6.057   3.343   4.973
   71OSM   C12F 6088   6.068   3.420   4.765
   71OSM   H12F 6089   6.174   3.443   4.787
   71OSM   H12G 6090   6.009   3.493   4.705
   71OSM   C13F 6091   6.052   3.279   4.708
   71OSM   H13F 6092   5.948   3.252   4.681
   71OSM   H13G 6093   6.093   3.201   4.776
   71OSM   C14F 6094   6.120   3.246   4.566
   71OSM   H14F 6095   6.066   3.302   4.486
   71OSM   H14G 6096   6.108   3.137   4.548
   71OSM   C15F 6097   6.266   3.291   4.558
   71OSM   H15F 6098   6.315   3.248   4.649
   71OSM   H15G 6099   6.264   3.402   4.566
   71OSM   C16F 6100   6.333   3.233   4.437
   71OSM   H16F 6101   6.288   3.258   4.338
   71OSM   H16G 6102   6.333   3.122   4.436
   71OSM   C17F 6103   6.477   3.282   4.433
   71OSM   H17F 6104   6.534   3.227   4.510
   71OSM   H17G 6105   6.477   3.391   4.453
   71OSM   C18F 6106   6.552   3.268   4.295
   71OSM   H18F 6107   6.662   3.265   4.309
   71OSM   H18G 6108   6.527   3.349   4.224
   71OSM   H18H 6109   6.509   3.174   4.254
   72OSM      N 6110   0.041   2.325   6.621
   72OSM    C15 6111   0.137   2.318   6.502
   72OSM   H15A 6112   0.123   2.404   6.439
   72OSM   H15B 6113   0.122   2.228   6.444
   72OSM   H15C 6114   0.239   2.325   6.538
   72OSM    C14 6115  -0.097   2.311   6.569
   72OSM   H14A 6116  -0.122   2.395   6.507
   72OSM   H14B 6117  -0.179   2.307   6.639
   72OSM   H14C 6118  -0.101   2.226   6.502
   72OSM    C13 6119   0.067   2.203   6.701
   72OSM   H13A 6120  -0.025   2.169   6.746
   72OSM   H13B 6121   0.143   2.224   6.776
   72OSM   H13C 6122   0.105   2.118   6.646
   72OSM    C12 6123   0.050   2.445   6.715
   72OSM   H12A 6124   0.149   2.445   6.758
   72OSM   H12B 6125  -0.023   2.424   6.791
   72OSM    C11 6126   0.026   2.581   6.654
   72OSM   H11A 6127   0.024   2.665   6.727
   72OSM   H11B 6128  -0.070   2.573   6.599
   72OSM      P 6129   0.117   2.702   6.444
   72OSM    O13 6130   0.045   2.826   6.490
   72OSM    O14 6131   0.248   2.712   6.377
   72OSM    O11 6132   0.016   2.614   6.356
   72OSM    O12 6133   0.138   2.611   6.571
   72OSM    C1S 6134  -0.045   2.687   6.245
   72OSM    H1S 6135   0.025   2.755   6.191
   72OSM    H1T 6136  -0.128   2.747   6.286
   72OSM     NF 6137  -0.141   2.672   6.021
   72OSM    HNF 6138  -0.232   2.711   6.009
   72OSM    C2S 6139  -0.108   2.595   6.142
   72OSM    H2S 6140  -0.034   2.516   6.118
   72OSM    C3S 6141  -0.239   2.527   6.198
   72OSM    H3S 6142  -0.324   2.598   6.210
   72OSM     O3 6143  -0.231   2.486   6.335
   72OSM    HO3 6144  -0.157   2.531   6.377
   72OSM    C4S 6145  -0.297   2.424   6.107
   72OSM    H4S 6146  -0.231   2.337   6.090
   72OSM    C5S 6147  -0.430   2.413   6.064
   72OSM    H5S 6148  -0.509   2.479   6.102
   72OSM    C6S 6149  -0.481   2.315   5.962
   72OSM    H6S 6150  -0.576   2.277   6.006
   72OSM    H6T 6151  -0.410   2.232   5.939
   72OSM    C7S 6152  -0.519   2.394   5.834
   72OSM    H7S 6153  -0.428   2.445   5.794
   72OSM    H7T 6154  -0.584   2.482   5.851
   72OSM    C8S 6155  -0.568   2.314   5.717
   72OSM    H8S 6156  -0.666   2.266   5.737
   72OSM    H8T 6157  -0.502   2.227   5.695
   72OSM    C9S 6158  -0.585   2.394   5.584
   72OSM    H9S 6159  -0.483   2.427   5.557
   72OSM    H9T 6160  -0.631   2.489   5.618
   72OSM   C10S 6161  -0.651   2.331   5.471
   72OSM   H10S 6162  -0.656   2.405   5.387
   72OSM   H10T 6163  -0.754   2.297   5.493
   72OSM   C11S 6164  -0.585   2.210   5.427
   72OSM   H11S 6165  -0.611   2.131   5.500
   72OSM   H11T 6166  -0.477   2.227   5.408
   72OSM   C12S 6167  -0.641   2.159   5.295
   72OSM   H12S 6168  -0.752   2.160   5.306
   72OSM   H12T 6169  -0.611   2.053   5.281
   72OSM   C13S 6170  -0.577   2.240   5.174
   72OSM   H13S 6171  -0.467   2.220   5.169
   72OSM   H13T 6172  -0.608   2.345   5.190
   72OSM   C14S 6173  -0.636   2.191   5.044
   72OSM   H14S 6174  -0.745   2.190   5.063
   72OSM   H14T 6175  -0.601   2.087   5.029
   72OSM   C15S 6176  -0.602   2.255   4.917
   72OSM   H15S 6177  -0.494   2.264   4.893
   72OSM   H15T 6178  -0.652   2.354   4.911
   72OSM   C16S 6179  -0.672   2.179   4.792
   72OSM   H16S 6180  -0.778   2.159   4.821
   72OSM   H16T 6181  -0.613   2.085   4.791
   72OSM   C17S 6182  -0.663   2.249   4.659
   72OSM   H17S 6183  -0.555   2.234   4.639
   72OSM   H17T 6184  -0.688   2.356   4.673
   72OSM   C18S 6185  -0.743   2.187   4.540
   72OSM   H18S 6186  -0.724   2.077   4.542
   72OSM   H18T 6187  -0.705   2.232   4.447
   72OSM   H18U 6188  -0.854   2.197   4.543
   72OSM    C1F 6189  -0.045   2.712   5.934
   72OSM     OF 6190   0.070   2.676   5.944
   72OSM    C2F 6191  -0.099   2.794   5.813
   72OSM    H2F 6192  -0.133   2.896   5.841
   72OSM    H2G 6193  -0.189   2.734   5.786
   72OSM    C3F 6194  -0.004   2.800   5.693
   72OSM    H3F 6195   0.042   2.702   5.668
   72OSM    H3G 6196   0.090   2.854   5.719
   72OSM    C4F 6197  -0.050   2.881   5.572
   72OSM    H4F 6198  -0.068   2.980   5.620
   72OSM    H4G 6199  -0.147   2.847   5.530
   72OSM    C5F 6200   0.056   2.903   5.458
   72OSM    H5F 6201   0.085   2.797   5.437
   72OSM    H5G 6202   0.151   2.951   5.489
   72OSM    C6F 6203  -0.006   2.977   5.337
   72OSM    H6F 6204   0.078   3.027   5.284
   72OSM    H6G 6205  -0.071   3.059   5.372
   72OSM    C7F 6206  -0.079   2.881   5.242
   72OSM    H7F 6207  -0.175   2.838   5.279
   72OSM    H7G 6208  -0.003   2.802   5.228
   72OSM    C8F 6209  -0.094   2.939   5.097
   72OSM    H8F 6210  -0.011   2.996   5.051
   72OSM    H8G 6211  -0.164   3.023   5.118
   72OSM    C9F 6212  -0.159   2.866   4.978
   72OSM    H9F 6213  -0.268   2.869   4.974
   72OSM   C10F 6214  -0.096   2.794   4.883
   72OSM   H10F 6215  -0.138   2.770   4.784
   72OSM   C11F 6216   0.051   2.780   4.878
   72OSM   H11F 6217   0.078   2.693   4.814
   72OSM   H11G 6218   0.099   2.761   4.977
   72OSM   C12F 6219   0.124   2.894   4.795
   72OSM   H12F 6220   0.230   2.898   4.828
   72OSM   H12G 6221   0.082   2.994   4.818
   72OSM   C13F 6222   0.132   2.859   4.640
   72OSM   H13F 6223   0.027   2.846   4.605
   72OSM   H13G 6224   0.187   2.764   4.622
   72OSM   C14F 6225   0.198   2.971   4.557
   72OSM   H14F 6226   0.224   2.936   4.454
   72OSM   H14G 6227   0.289   3.007   4.610
   72OSM   C15F 6228   0.099   3.087   4.533
   72OSM   H15F 6229   0.164   3.175   4.514
   72OSM   H15G 6230   0.042   3.103   4.627
   72OSM   C16F 6231   0.007   3.064   4.410
   72OSM   H16F 6232  -0.045   2.967   4.425
   72OSM   H16G 6233   0.061   3.038   4.317
   72OSM   C17F 6234  -0.097   3.173   4.387
   72OSM   H17F 6235  -0.172   3.182   4.468
   72OSM   H17G 6236  -0.159   3.135   4.303
   72OSM   C18F 6237  -0.048   3.316   4.363
   72OSM   H18F 6238  -0.109   3.364   4.284
   72OSM   H18G 6239   0.059   3.308   4.337
   72OSM   H18H 6240  -0.055   3.373   4.458
   73OSM      N 6241   3.228   6.936   6.591
   73OSM    C15 6242   3.375   6.918   6.614
   73OSM   H15A 6243   3.427   7.004   6.574
   73OSM   H15B 6244   3.409   6.821   6.581
   73OSM   H15C 6245   3.383   6.919   6.722
   73OSM    C14 6246   3.147   6.831   6.648
   73OSM   H14A 6247   3.134   6.842   6.755
   73OSM   H14B 6248   3.179   6.733   6.618
   73OSM   H14C 6249   3.043   6.842   6.621
   73OSM    C13 6250   3.186   7.068   6.649
   73OSM   H13A 6251   3.079   7.075   6.660
   73OSM   H13B 6252   3.219   7.151   6.589
   73OSM   H13C 6253   3.227   7.080   6.748
   73OSM    C12 6254   3.191   6.948   6.440
   73OSM   H12A 6255   3.261   7.015   6.392
   73OSM   H12B 6256   3.099   7.004   6.437
   73OSM    C11 6257   3.194   6.817   6.357
   73OSM   H11A 6258   3.151   6.840   6.257
   73OSM   H11B 6259   3.134   6.739   6.410
   73OSM      P 6260   3.361   6.619   6.317
   73OSM    O13 6261   3.505   6.608   6.311
   73OSM    O14 6262   3.293   6.536   6.427
   73OSM    O11 6263   3.302   6.589   6.170
   73OSM    O12 6264   3.329   6.767   6.344
   73OSM    C1S 6265   3.337   6.688   6.071
   73OSM    H1S 6266   3.440   6.727   6.081
   73OSM    H1T 6267   3.272   6.777   6.086
   73OSM     NF 6268   3.330   6.754   5.827
   73OSM    HNF 6269   3.263   6.816   5.787
   73OSM    C2S 6270   3.296   6.647   5.928
   73OSM    H2S 6271   3.343   6.550   5.900
   73OSM    C3S 6272   3.140   6.610   5.928
   73OSM    H3S 6273   3.086   6.702   5.960
   73OSM     O3 6274   3.104   6.493   5.998
   73OSM    HO3 6275   3.180   6.470   6.054
   73OSM    C4S 6276   3.099   6.581   5.787
   73OSM    H4S 6277   3.168   6.506   5.745
   73OSM    C5S 6278   3.010   6.641   5.705
   73OSM    H5S 6279   2.939   6.721   5.730
   73OSM    C6S 6280   2.994   6.599   5.564
   73OSM    H6S 6281   2.888   6.628   5.543
   73OSM    H6T 6282   2.999   6.489   5.548
   73OSM    C7S 6283   3.100   6.670   5.469
   73OSM    H7S 6284   3.202   6.627   5.477
   73OSM    H7T 6285   3.107   6.780   5.485
   73OSM    C8S 6286   3.064   6.639   5.320
   73OSM    H8S 6287   2.954   6.650   5.309
   73OSM    H8T 6288   3.091   6.531   5.319
   73OSM    C9S 6289   3.141   6.709   5.212
   73OSM    H9S 6290   3.249   6.683   5.220
   73OSM    H9T 6291   3.116   6.816   5.225
   73OSM   C10S 6292   3.089   6.665   5.073
   73OSM   H10S 6293   3.093   6.554   5.081
   73OSM   H10T 6294   3.163   6.702   4.998
   73OSM   C11S 6295   2.948   6.712   5.046
   73OSM   H11S 6296   2.939   6.823   5.045
   73OSM   H11T 6297   2.891   6.674   5.133
   73OSM   C12S 6298   2.885   6.652   4.914
   73OSM   H12S 6299   2.776   6.671   4.906
   73OSM   H12T 6300   2.894   6.541   4.914
   73OSM   C13S 6301   2.952   6.707   4.786
   73OSM   H13S 6302   2.929   6.632   4.708
   73OSM   H13T 6303   3.063   6.707   4.789
   73OSM   C14S 6304   2.906   6.844   4.738
   73OSM   H14S 6305   2.939   6.918   4.814
   73OSM   H14T 6306   2.795   6.846   4.741
   73OSM   C15S 6307   2.962   6.881   4.598
   73OSM   H15S 6308   2.928   6.815   4.515
   73OSM   H15T 6309   3.072   6.866   4.605
   73OSM   C16S 6310   2.917   7.027   4.561
   73OSM   H16S 6311   2.941   7.100   4.641
   73OSM   H16T 6312   2.808   7.030   4.540
   73OSM   C17S 6313   2.996   7.075   4.437
   73OSM   H17S 6314   3.003   6.993   4.362
   73OSM   H17T 6315   3.096   7.108   4.471
   73OSM   C18S 6316   2.930   7.201   4.375
   73OSM   H18S 6317   2.841   7.174   4.314
   73OSM   H18T 6318   3.009   7.259   4.323
   73OSM   H18U 6319   2.892   7.266   4.457
   73OSM    C1F 6320   3.457   6.775   5.799
   73OSM     OF 6321   3.541   6.700   5.848
   73OSM    C2F 6322   3.496   6.880   5.703
   73OSM    H2F 6323   3.586   6.937   5.734
   73OSM    H2G 6324   3.417   6.958   5.692
   73OSM    C3F 6325   3.527   6.811   5.568
   73OSM    H3F 6326   3.434   6.760   5.533
   73OSM    H3G 6327   3.617   6.748   5.582
   73OSM    C4F 6328   3.563   6.925   5.470
   73OSM    H4F 6329   3.645   6.987   5.511
   73OSM    H4G 6330   3.478   6.995   5.463
   73OSM    C5F 6331   3.598   6.883   5.330
   73OSM    H5F 6332   3.506   6.855   5.274
   73OSM    H5G 6333   3.661   6.791   5.322
   73OSM    C6F 6334   3.664   6.992   5.243
   73OSM    H6F 6335   3.772   6.971   5.258
   73OSM    H6G 6336   3.637   7.096   5.274
   73OSM    C7F 6337   3.635   6.964   5.097
   73OSM    H7F 6338   3.537   7.014   5.083
   73OSM    H7G 6339   3.625   6.853   5.093
   73OSM    C8F 6340   3.737   7.016   4.994
   73OSM    H8F 6341   3.839   6.999   5.036
   73OSM    H8G 6342   3.715   7.124   4.983
   73OSM    C9F 6343   3.707   6.941   4.864
   73OSM    H9F 6344   3.609   6.892   4.856
   73OSM   C10F 6345   3.801   6.917   4.772
   73OSM   H10F 6346   3.779   6.862   4.679
   73OSM   C11F 6347   3.945   6.967   4.782
   73OSM   H11F 6348   3.986   6.960   4.885
   73OSM   H11G 6349   3.953   7.071   4.745
   73OSM   C12F 6350   4.049   6.888   4.689
   73OSM   H12F 6351   4.147   6.938   4.703
   73OSM   H12G 6352   4.014   6.899   4.584
   73OSM   C13F 6353   4.056   6.743   4.731
   73OSM   H13F 6354   3.957   6.695   4.715
   73OSM   H13G 6355   4.090   6.725   4.835
   73OSM   C14F 6356   4.161   6.674   4.638
   73OSM   H14F 6357   4.176   6.570   4.676
   73OSM   H14G 6358   4.257   6.728   4.644
   73OSM   C15F 6359   4.132   6.682   4.485
   73OSM   H15F 6360   4.162   6.778   4.438
   73OSM   H15G 6361   4.031   6.654   4.450
   73OSM   C16F 6362   4.223   6.572   4.422
   73OSM   H16F 6363   4.208   6.475   4.476
   73OSM   H16G 6364   4.328   6.603   4.435
   73OSM   C17F 6365   4.205   6.544   4.266
   73OSM   H17F 6366   4.305   6.502   4.240
   73OSM   H17G 6367   4.184   6.634   4.204
   73OSM   C18F 6368   4.114   6.427   4.228
   73OSM   H18F 6369   4.118   6.429   4.117
   73OSM   H18G 6370   4.008   6.443   4.261
   73OSM   H18H 6371   4.138   6.326   4.266
   74OSM      N 6372   2.037   5.612   6.395
   74OSM    C15 6373   2.050   5.523   6.514
   74OSM   H15A 6374   1.957   5.510   6.568
   74OSM   H15B 6375   2.132   5.543   6.582
   74OSM   H15C 6376   2.074   5.425   6.476
   74OSM    C14 6377   2.050   5.750   6.462
   74OSM   H14A 6378   2.030   5.822   6.385
   74OSM   H14B 6379   2.151   5.762   6.499
   74OSM   H14C 6380   1.982   5.761   6.545
   74OSM    C13 6381   2.143   5.588   6.289
   74OSM   H13A 6382   2.131   5.646   6.198
   74OSM   H13B 6383   2.147   5.481   6.271
   74OSM   H13C 6384   2.237   5.620   6.331
   74OSM    C12 6385   1.899   5.589   6.326
   74OSM   H12A 6386   1.816   5.617   6.390
   74OSM   H12B 6387   1.886   5.484   6.305
   74OSM    C11 6388   1.860   5.672   6.202
   74OSM   H11A 6389   1.761   5.638   6.166
   74OSM   H11B 6390   1.931   5.664   6.117
   74OSM      P 6391   1.730   5.871   6.317
   74OSM    O13 6392   1.674   5.762   6.406
   74OSM    O14 6393   1.768   5.995   6.373
   74OSM    O11 6394   1.619   5.898   6.207
   74OSM    O12 6395   1.850   5.808   6.243
   74OSM    C1S 6396   1.664   5.942   6.077
   74OSM    H1S 6397   1.700   5.856   6.016
   74OSM    H1T 6398   1.754   6.006   6.084
   74OSM     NF 6399   1.580   6.035   5.869
   74OSM    HNF 6400   1.614   6.127   5.852
   74OSM    C2S 6401   1.549   6.025   6.012
   74OSM    H2S 6402   1.457   5.964   6.019
   74OSM    C3S 6403   1.527   6.160   6.080
   74OSM    H3S 6404   1.619   6.221   6.081
   74OSM     O3 6405   1.495   6.148   6.222
   74OSM    HO3 6406   1.509   6.054   6.237
   74OSM    C4S 6407   1.413   6.246   6.020
   74OSM    H4S 6408   1.315   6.198   6.026
   74OSM    C5S 6409   1.426   6.363   5.956
   74OSM    H5S 6410   1.521   6.418   5.952
   74OSM    C6S 6411   1.310   6.435   5.898
   74OSM    H6S 6412   1.341   6.538   5.870
   74OSM    H6T 6413   1.229   6.460   5.970
   74OSM    C7S 6414   1.252   6.374   5.765
   74OSM    H7S 6415   1.161   6.314   5.788
   74OSM    H7T 6416   1.315   6.294   5.719
   74OSM    C8S 6417   1.204   6.490   5.672
   74OSM    H8S 6418   1.282   6.568   5.659
   74OSM    H8T 6419   1.123   6.542   5.727
   74OSM    C9S 6420   1.164   6.430   5.533
   74OSM    H9S 6421   1.075   6.364   5.532
   74OSM    H9T 6422   1.240   6.371   5.479
   74OSM   C10S 6423   1.131   6.536   5.425
   74OSM   H10S 6424   1.215   6.598   5.384
   74OSM   H10T 6425   1.058   6.605   5.471
   74OSM   C11S 6426   1.042   6.476   5.315
   74OSM   H11S 6427   0.937   6.448   5.337
   74OSM   H11T 6428   1.085   6.383   5.271
   74OSM   C12S 6429   1.042   6.568   5.194
   74OSM   H12S 6430   1.144   6.591   5.158
   74OSM   H12T 6431   0.994   6.665   5.221
   74OSM   C13S 6432   0.970   6.497   5.076
   74OSM   H13S 6433   0.872   6.458   5.110
   74OSM   H13T 6434   1.033   6.409   5.052
   74OSM   C14S 6435   0.948   6.579   4.951
   74OSM   H14S 6436   0.884   6.520   4.881
   74OSM   H14T 6437   1.041   6.623   4.909
   74OSM   C15S 6438   0.860   6.696   4.990
   74OSM   H15S 6439   0.914   6.768   5.055
   74OSM   H15T 6440   0.773   6.652   5.043
   74OSM   C16S 6441   0.795   6.779   4.877
   74OSM   H16S 6442   0.765   6.701   4.805
   74OSM   H16T 6443   0.869   6.840   4.822
   74OSM   C17S 6444   0.677   6.865   4.916
   74OSM   H17S 6445   0.711   6.931   4.998
   74OSM   H17T 6446   0.603   6.796   4.961
   74OSM   C18S 6447   0.612   6.943   4.807
   74OSM   H18S 6448   0.615   6.877   4.718
   74OSM   H18T 6449   0.686   7.020   4.778
   74OSM   H18U 6450   0.510   6.981   4.831
   74OSM    C1F 6451   1.582   5.931   5.786
   74OSM     OF 6452   1.552   5.817   5.818
   74OSM    C2F 6453   1.631   5.972   5.654
   74OSM    H2F 6454   1.683   6.071   5.659
   74OSM    H2G 6455   1.539   5.979   5.592
   74OSM    C3F 6456   1.718   5.864   5.584
   74OSM    H3F 6457   1.653   5.775   5.578
   74OSM    H3G 6458   1.804   5.838   5.650
   74OSM    C4F 6459   1.771   5.905   5.444
   74OSM    H4F 6460   1.849   5.831   5.417
   74OSM    H4G 6461   1.819   6.006   5.450
   74OSM    C5F 6462   1.661   5.923   5.338
   74OSM    H5F 6463   1.577   5.984   5.380
   74OSM    H5G 6464   1.601   5.834   5.311
   74OSM    C6F 6465   1.718   5.977   5.199
   74OSM    H6F 6466   1.735   6.083   5.225
   74OSM    H6G 6467   1.629   5.956   5.137
   74OSM    C7F 6468   1.847   5.900   5.144
   74OSM    H7F 6469   1.818   5.796   5.117
   74OSM    H7G 6470   1.926   5.901   5.222
   74OSM    C8F 6471   1.921   5.975   5.032
   74OSM    H8F 6472   1.983   6.057   5.074
   74OSM    H8G 6473   1.845   6.020   4.964
   74OSM    C9F 6474   2.009   5.877   4.954
   74OSM    H9F 6475   1.945   5.808   4.895
   74OSM   C10F 6476   2.143   5.870   4.929
   74OSM   H10F 6477   2.172   5.786   4.863
   74OSM   C11F 6478   2.261   5.959   4.961
   74OSM   H11F 6479   2.346   5.895   4.993
   74OSM   H11G 6480   2.231   6.040   5.032
   74OSM   C12F 6481   2.303   6.034   4.838
   74OSM   H12F 6482   2.340   6.134   4.866
   74OSM   H12G 6483   2.212   6.053   4.777
   74OSM   C13F 6484   2.413   5.969   4.745
   74OSM   H13F 6485   2.395   5.861   4.724
   74OSM   H13G 6486   2.496   5.957   4.818
   74OSM   C14F 6487   2.471   6.052   4.629
   74OSM   H14F 6488   2.576   6.021   4.612
   74OSM   H14G 6489   2.472   6.161   4.649
   74OSM   C15F 6490   2.389   6.020   4.503
   74OSM   H15F 6491   2.288   6.065   4.502
   74OSM   H15G 6492   2.384   5.909   4.498
   74OSM   C16F 6493   2.468   6.068   4.384
   74OSM   H16F 6494   2.573   6.032   4.392
   74OSM   H16G 6495   2.487   6.177   4.398
   74OSM   C17F 6496   2.409   6.042   4.251
   74OSM   H17F 6497   2.309   6.091   4.251
   74OSM   H17G 6498   2.387   5.933   4.244
   74OSM   C18F 6499   2.507   6.085   4.133
   74OSM   H18F 6500   2.439   6.088   4.045
   74OSM   H18G 6501   2.600   6.025   4.122
   74OSM   H18H 6502   2.546   6.184   4.164
   75OSM      N 6503   0.052   0.277   6.686
   75OSM    C15 6504  -0.088   0.339   6.718
   75OSM   H15A 6505  -0.160   0.259   6.721
   75OSM   H15B 6506  -0.108   0.404   6.634
   75OSM   H15C 6507  -0.079   0.386   6.814
   75OSM    C14 6508   0.153   0.348   6.771
   75OSM   H14A 6509   0.141   0.312   6.872
   75OSM   H14B 6510   0.143   0.455   6.776
   75OSM   H14C 6511   0.250   0.315   6.736
   75OSM    C13 6512   0.038   0.143   6.742
   75OSM   H13A 6513   0.010   0.143   6.846
   75OSM   H13B 6514   0.129   0.085   6.739
   75OSM   H13C 6515  -0.033   0.082   6.689
   75OSM    C12 6516   0.089   0.279   6.546
   75OSM   H12A 6517   0.158   0.203   6.513
   75OSM   H12B 6518   0.149   0.367   6.531
   75OSM    C11 6519  -0.032   0.276   6.444
   75OSM   H11A 6520  -0.112   0.203   6.468
   75OSM   H11B 6521   0.019   0.238   6.353
   75OSM      P 6522  -0.004   0.519   6.349
   75OSM    O13 6523  -0.105   0.624   6.338
   75OSM    O14 6524   0.126   0.550   6.411
   75OSM    O11 6525   0.014   0.458   6.203
   75OSM    O12 6526  -0.082   0.407   6.429
   75OSM    C1S 6527   0.036   0.528   6.084
   75OSM    H1S 6528   0.140   0.566   6.078
   75OSM    H1T 6529  -0.030   0.618   6.084
   75OSM     NF 6530   0.046   0.526   5.837
   75OSM    HNF 6531  -0.033   0.577   5.806
   75OSM    C2S 6532   0.009   0.447   5.955
   75OSM    H2S 6533   0.080   0.361   5.954
   75OSM    C3S 6534  -0.138   0.407   5.958
   75OSM    H3S 6535  -0.207   0.493   5.944
   75OSM     O3 6536  -0.190   0.346   6.079
   75OSM    HO3 6537  -0.116   0.366   6.137
   75OSM    C4S 6538  -0.161   0.319   5.838
   75OSM    H4S 6539  -0.079   0.256   5.800
   75OSM    C5S 6540  -0.280   0.324   5.766
   75OSM    H5S 6541  -0.369   0.383   5.793
   75OSM    C6S 6542  -0.301   0.237   5.646
   75OSM    H6S 6543  -0.393   0.176   5.657
   75OSM    H6T 6544  -0.217   0.167   5.628
   75OSM    C7S 6545  -0.332   0.337   5.529
   75OSM    H7S 6546  -0.254   0.415   5.521
   75OSM    H7T 6547  -0.427   0.394   5.536
   75OSM    C8S 6548  -0.339   0.258   5.396
   75OSM    H8S 6549  -0.392   0.162   5.416
   75OSM    H8T 6550  -0.239   0.220   5.366
   75OSM    C9S 6551  -0.382   0.346   5.286
   75OSM    H9S 6552  -0.342   0.446   5.312
   75OSM    H9T 6553  -0.493   0.341   5.282
   75OSM   C10S 6554  -0.320   0.314   5.141
   75OSM   H10S 6555  -0.397   0.239   5.110
   75OSM   H10T 6556  -0.224   0.262   5.161
   75OSM   C11S 6557  -0.307   0.440   5.057
   75OSM   H11S 6558  -0.212   0.491   5.083
   75OSM   H11T 6559  -0.387   0.512   5.085
   75OSM   C12S 6560  -0.312   0.411   4.912
   75OSM   H12S 6561  -0.410   0.372   4.878
   75OSM   H12T 6562  -0.237   0.330   4.904
   75OSM   C13S 6563  -0.274   0.524   4.824
   75OSM   H13S 6564  -0.178   0.567   4.858
   75OSM   H13T 6565  -0.351   0.604   4.822
   75OSM   C14S 6566  -0.253   0.492   4.670
   75OSM   H14S 6567  -0.352   0.470   4.624
   75OSM   H14T 6568  -0.184   0.407   4.652
   75OSM   C15S 6569  -0.205   0.615   4.596
   75OSM   H15S 6570  -0.104   0.645   4.632
   75OSM   H15T 6571  -0.275   0.701   4.598
   75OSM   C16S 6572  -0.183   0.589   4.447
   75OSM   H16S 6573  -0.146   0.485   4.445
   75OSM   H16T 6574  -0.104   0.651   4.400
   75OSM   C17S 6575  -0.309   0.603   4.372
   75OSM   H17S 6576  -0.345   0.708   4.363
   75OSM   H17T 6577  -0.391   0.540   4.412
   75OSM   C18S 6578  -0.292   0.557   4.228
   75OSM   H18S 6579  -0.260   0.451   4.232
   75OSM   H18T 6580  -0.215   0.617   4.174
   75OSM   H18U 6581  -0.387   0.550   4.170
   75OSM    C1F 6582   0.173   0.542   5.799
   75OSM     OF 6583   0.265   0.470   5.848
   75OSM    C2F 6584   0.206   0.650   5.698
   75OSM    H2F 6585   0.254   0.736   5.750
   75OSM    H2G 6586   0.111   0.671   5.643
   75OSM    C3F 6587   0.306   0.617   5.584
   75OSM    H3F 6588   0.258   0.533   5.529
   75OSM    H3G 6589   0.403   0.587   5.630
   75OSM    C4F 6590   0.349   0.723   5.487
   75OSM    H4F 6591   0.394   0.674   5.398
   75OSM    H4G 6592   0.425   0.777   5.548
   75OSM    C5F 6593   0.259   0.837   5.438
   75OSM    H5F 6594   0.201   0.881   5.522
   75OSM    H5G 6595   0.180   0.793   5.373
   75OSM    C6F 6596   0.330   0.941   5.349
   75OSM    H6F 6597   0.414   0.898   5.291
   75OSM    H6G 6598   0.366   1.029   5.406
   75OSM    C7F 6599   0.226   1.001   5.249
   75OSM    H7F 6600   0.153   1.071   5.294
   75OSM    H7G 6601   0.171   0.918   5.200
   75OSM    C8F 6602   0.295   1.074   5.132
   75OSM    H8F 6603   0.367   1.013   5.074
   75OSM    H8G 6604   0.353   1.155   5.181
   75OSM    C9F 6605   0.200   1.136   5.036
   75OSM    H9F 6606   0.098   1.094   5.042
   75OSM   C10F 6607   0.233   1.241   4.958
   75OSM   H10F 6608   0.171   1.274   4.873
   75OSM   C11F 6609   0.372   1.300   4.961
   75OSM   H11F 6610   0.446   1.280   5.041
   75OSM   H11G 6611   0.347   1.407   4.976
   75OSM   C12F 6612   0.436   1.290   4.825
   75OSM   H12F 6613   0.359   1.322   4.751
   75OSM   H12G 6614   0.466   1.186   4.800
   75OSM   C13F 6615   0.559   1.378   4.812
   75OSM   H13F 6616   0.615   1.387   4.908
   75OSM   H13G 6617   0.521   1.480   4.790
   75OSM   C14F 6618   0.645   1.333   4.692
   75OSM   H14F 6619   0.581   1.329   4.601
   75OSM   H14G 6620   0.671   1.226   4.705
   75OSM   C15F 6621   0.770   1.427   4.686
   75OSM   H15F 6622   0.834   1.414   4.776
   75OSM   H15G 6623   0.738   1.534   4.691
   75OSM   C16F 6624   0.846   1.412   4.558
   75OSM   H16F 6625   0.772   1.399   4.477
   75OSM   H16G 6626   0.899   1.315   4.572
   75OSM   C17F 6627   0.953   1.521   4.527
   75OSM   H17F 6628   1.027   1.522   4.610
   75OSM   H17G 6629   0.896   1.614   4.506
   75OSM   C18F 6630   1.022   1.472   4.403
   75OSM   H18F 6631   0.952   1.465   4.317
   75OSM   H18G 6632   1.075   1.376   4.422
   75OSM   H18H 6633   1.102   1.546   4.382
   76OSM      N 6634   2.059   0.590   6.467
   76OSM    C15 6635   2.163   0.649   6.545
   76OSM   H15A 6636   2.254   0.591   6.543
   76OSM   H15B 6637   2.145   0.637   6.651
   76OSM   H15C 6638   2.172   0.756   6.531
   76OSM    C14 6639   2.048   0.444   6.496
   76OSM   H14A 6640   1.959   0.404   6.449
   76OSM   H14B 6641   2.042   0.428   6.603
   76OSM   H14C 6642   2.131   0.394   6.449
   76OSM    C13 6643   1.933   0.645   6.504
   76OSM   H13A 6644   1.911   0.747   6.477
   76OSM   H13B 6645   1.920   0.632   6.611
   76OSM   H13C 6646   1.852   0.586   6.464
   76OSM    C12 6647   2.074   0.611   6.316
   76OSM   H12A 6648   1.999   0.561   6.257
   76OSM   H12B 6649   2.163   0.569   6.272
   76OSM    C11 6650   2.084   0.763   6.267
   76OSM   H11A 6651   1.994   0.818   6.303
   76OSM   H11B 6652   2.087   0.758   6.156
   76OSM      P 6653   2.230   0.978   6.308
   76OSM    O13 6654   2.134   1.039   6.399
   76OSM    O14 6655   2.371   1.003   6.334
   76OSM    O11 6656   2.198   1.007   6.153
   76OSM    O12 6657   2.203   0.821   6.309
   76OSM    C1S 6658   2.275   0.947   6.048
   76OSM    H1S 6659   2.250   0.839   6.040
   76OSM    H1T 6660   2.384   0.961   6.065
   76OSM     NF 6661   2.284   0.913   5.804
   76OSM    HNF 6662   2.379   0.923   5.777
   76OSM    C2S 6663   2.239   1.003   5.908
   76OSM    H2S 6664   2.132   1.026   5.893
   76OSM    C3S 6665   2.302   1.146   5.906
   76OSM    H3S 6666   2.409   1.132   5.933
   76OSM     O3 6667   2.236   1.232   6.001
   76OSM    HO3 6668   2.170   1.176   6.042
   76OSM    C4S 6669   2.293   1.209   5.775
   76OSM    H4S 6670   2.192   1.246   5.752
   76OSM    C5S 6671   2.384   1.227   5.682
   76OSM    H5S 6672   2.489   1.197   5.695
   76OSM    C6S 6673   2.356   1.288   5.551
   76OSM    H6S 6674   2.416   1.374   5.514
   76OSM    H6T 6675   2.252   1.325   5.545
   76OSM    C7S 6676   2.367   1.187   5.442
   76OSM    H7S 6677   2.307   1.095   5.459
   76OSM    H7T 6678   2.474   1.168   5.421
   76OSM    C8S 6679   2.313   1.258   5.317
   76OSM    H8S 6680   2.360   1.358   5.304
   76OSM    H8T 6681   2.206   1.288   5.326
   76OSM    C9S 6682   2.334   1.179   5.186
   76OSM    H9S 6683   2.273   1.086   5.185
   76OSM    H9T 6684   2.437   1.137   5.186
   76OSM   C10S 6685   2.302   1.264   5.066
   76OSM   H10S 6686   2.367   1.354   5.066
   76OSM   H10T 6687   2.197   1.298   5.071
   76OSM   C11S 6688   2.333   1.183   4.939
   76OSM   H11S 6689   2.254   1.106   4.927
   76OSM   H11T 6690   2.432   1.134   4.949
   76OSM   C12S 6691   2.332   1.261   4.809
   76OSM   H12S 6692   2.414   1.335   4.804
   76OSM   H12T 6693   2.236   1.316   4.807
   76OSM   C13S 6694   2.359   1.178   4.684
   76OSM   H13S 6695   2.267   1.119   4.662
   76OSM   H13T 6696   2.443   1.107   4.698
   76OSM   C14S 6697   2.371   1.268   4.563
   76OSM   H14S 6698   2.441   1.353   4.578
   76OSM   H14T 6699   2.270   1.312   4.550
   76OSM   C15S 6700   2.404   1.184   4.433
   76OSM   H15S 6701   2.307   1.136   4.406
   76OSM   H15T 6702   2.474   1.099   4.446
   76OSM   C16S 6703   2.449   1.274   4.317
   76OSM   H16S 6704   2.499   1.203   4.248
   76OSM   H16T 6705   2.531   1.345   4.342
   76OSM   C17S 6706   2.336   1.351   4.251
   76OSM   H17S 6707   2.316   1.422   4.333
   76OSM   H17T 6708   2.251   1.280   4.240
   76OSM   C18S 6709   2.378   1.413   4.116
   76OSM   H18S 6710   2.294   1.476   4.079
   76OSM   H18T 6711   2.405   1.331   4.046
   76OSM   H18U 6712   2.464   1.478   4.143
   76OSM    C1F 6713   2.206   0.817   5.767
   76OSM     OF 6714   2.093   0.802   5.812
   76OSM    C2F 6715   2.265   0.714   5.667
   76OSM    H2F 6716   2.315   0.633   5.726
   76OSM    H2G 6717   2.345   0.767   5.612
   76OSM    C3F 6718   2.152   0.662   5.564
   76OSM    H3F 6719   2.081   0.746   5.550
   76OSM    H3G 6720   2.096   0.577   5.609
   76OSM    C4F 6721   2.212   0.632   5.419
   76OSM    H4F 6722   2.297   0.562   5.436
   76OSM    H4G 6723   2.255   0.714   5.357
   76OSM    C5F 6724   2.115   0.529   5.340
   76OSM    H5F 6725   2.012   0.565   5.359
   76OSM    H5G 6726   2.121   0.429   5.389
   76OSM    C6F 6727   2.155   0.516   5.194
   76OSM    H6F 6728   2.259   0.478   5.203
   76OSM    H6G 6729   2.158   0.616   5.146
   76OSM    C7F 6730   2.054   0.431   5.109
   76OSM    H7F 6731   1.960   0.489   5.094
   76OSM    H7G 6732   2.017   0.340   5.161
   76OSM    C8F 6733   2.113   0.407   4.966
   76OSM    H8F 6734   2.215   0.362   4.977
   76OSM    H8G 6735   2.147   0.504   4.925
   76OSM    C9F 6736   2.020   0.342   4.865
   76OSM    H9F 6737   1.979   0.245   4.894
   76OSM   C10F 6738   1.972   0.390   4.747
   76OSM   H10F 6739   1.888   0.334   4.703
   76OSM   C11F 6740   2.006   0.524   4.680
   76OSM   H11F 6741   2.089   0.504   4.609
   76OSM   H11G 6742   2.037   0.602   4.753
   76OSM   C12F 6743   1.888   0.584   4.596
   76OSM   H12F 6744   1.911   0.684   4.555
   76OSM   H12G 6745   1.808   0.609   4.669
   76OSM   C13F 6746   1.824   0.500   4.482
   76OSM   H13F 6747   1.805   0.398   4.522
   76OSM   H13G 6748   1.898   0.496   4.400
   76OSM   C14F 6749   1.691   0.564   4.444
   76OSM   H14F 6750   1.700   0.667   4.405
   76OSM   H14G 6751   1.618   0.553   4.527
   76OSM   C15F 6752   1.635   0.485   4.326
   76OSM   H15F 6753   1.524   0.486   4.330
   76OSM   H15G 6754   1.670   0.380   4.333
   76OSM   C16F 6755   1.668   0.532   4.181
   76OSM   H16F 6756   1.778   0.538   4.176
   76OSM   H16G 6757   1.620   0.629   4.158
   76OSM   C17F 6758   1.616   0.432   4.072
   76OSM   H17F 6759   1.507   0.423   4.087
   76OSM   H17G 6760   1.665   0.333   4.086
   76OSM   C18F 6761   1.636   0.470   3.926
   76OSM   H18F 6762   1.601   0.576   3.919
   76OSM   H18G 6763   1.570   0.403   3.867
   76OSM   H18H 6764   1.740   0.477   3.888
   77OSM      N 6765   0.407   4.458   6.421
   77OSM    C15 6766   0.299   4.385   6.488
   77OSM   H15A 6767   0.203   4.435   6.484
   77OSM   H15B 6768   0.318   4.371   6.593
   77OSM   H15C 6769   0.284   4.286   6.447
   77OSM    C14 6770   0.418   4.593   6.480
   77OSM   H14A 6771   0.446   4.598   6.584
   77OSM   H14B 6772   0.322   4.641   6.466
   77OSM   H14C 6773   0.497   4.653   6.436
   77OSM    C13 6774   0.526   4.388   6.457
   77OSM   H13A 6775   0.618   4.409   6.404
   77OSM   H13B 6776   0.510   4.286   6.424
   77OSM   H13C 6777   0.551   4.386   6.562
   77OSM    C12 6778   0.390   4.457   6.271
   77OSM   H12A 6779   0.375   4.354   6.242
   77OSM   H12B 6780   0.480   4.495   6.225
   77OSM    C11 6781   0.268   4.526   6.201
   77OSM   H11A 6782   0.180   4.461   6.218
   77OSM   H11B 6783   0.276   4.529   6.090
   77OSM      P 6784   0.127   4.752   6.252
   77OSM    O13 6785   0.010   4.667   6.283
   77OSM    O14 6786   0.152   4.875   6.318
   77OSM    O11 6787   0.114   4.783   6.098
   77OSM    O12 6788   0.257   4.659   6.253
   77OSM    C1S 6789  -0.021   4.792   6.035
   77OSM    H1S 6790  -0.084   4.840   6.113
   77OSM    H1T 6791  -0.061   4.691   6.014
   77OSM     NF 6792  -0.149   4.898   5.862
   77OSM    HNF 6793  -0.197   4.830   5.808
   77OSM    C2S 6794  -0.011   4.864   5.898
   77OSM    H2S 6795   0.039   4.962   5.913
   77OSM    C3S 6796   0.076   4.788   5.794
   77OSM    H3S 6797   0.028   4.700   5.745
   77OSM     O3 6798   0.205   4.742   5.834
   77OSM    HO3 6799   0.181   4.727   5.925
   77OSM    C4S 6800   0.085   4.891   5.677
   77OSM    H4S 6801  -0.015   4.920   5.639
   77OSM    C5S 6802   0.191   4.971   5.644
   77OSM    H5S 6803   0.278   4.969   5.712
   77OSM    C6S 6804   0.202   5.066   5.528
   77OSM    H6S 6805   0.280   5.034   5.456
   77OSM    H6T 6806   0.225   5.166   5.572
   77OSM    C7S 6807   0.068   5.089   5.450
   77OSM    H7S 6808  -0.015   5.105   5.522
   77OSM    H7T 6809   0.049   4.990   5.404
   77OSM    C8S 6810   0.083   5.207   5.351
   77OSM    H8S 6811   0.160   5.175   5.278
   77OSM    H8T 6812   0.120   5.298   5.403
   77OSM    C9S 6813  -0.039   5.231   5.264
   77OSM    H9S 6814  -0.116   5.273   5.332
   77OSM    H9T 6815  -0.054   5.130   5.221
   77OSM   C10S 6816  -0.020   5.331   5.149
   77OSM   H10S 6817   0.072   5.299   5.094
   77OSM   H10T 6818   0.001   5.432   5.192
   77OSM   C11S 6819  -0.133   5.345   5.040
   77OSM   H11S 6820  -0.217   5.400   5.088
   77OSM   H11T 6821  -0.167   5.250   4.993
   77OSM   C12S 6822  -0.089   5.424   4.918
   77OSM   H12S 6823   0.015   5.391   4.901
   77OSM   H12T 6824  -0.089   5.533   4.940
   77OSM   C13S 6825  -0.162   5.399   4.793
   77OSM   H13S 6826  -0.269   5.405   4.824
   77OSM   H13T 6827  -0.120   5.301   4.762
   77OSM   C14S 6828  -0.136   5.518   4.696
   77OSM   H14S 6829  -0.027   5.525   4.679
   77OSM   H14T 6830  -0.179   5.614   4.731
   77OSM   C15S 6831  -0.201   5.485   4.564
   77OSM   H15S 6832  -0.309   5.473   4.588
   77OSM   H15T 6833  -0.176   5.391   4.511
   77OSM   C16S 6834  -0.191   5.598   4.462
   77OSM   H16S 6835  -0.198   5.703   4.498
   77OSM   H16T 6836  -0.278   5.593   4.394
   77OSM   C17S 6837  -0.064   5.587   4.378
   77OSM   H17S 6838   0.019   5.547   4.441
   77OSM   H17T 6839  -0.044   5.690   4.342
   77OSM   C18S 6840  -0.092   5.506   4.247
   77OSM   H18S 6841  -0.175   5.560   4.195
   77OSM   H18T 6842  -0.141   5.408   4.266
   77OSM   H18U 6843   0.001   5.501   4.186
   77OSM    C1F 6844  -0.229   4.981   5.939
   77OSM     OF 6845  -0.176   5.048   6.026
   77OSM    C2F 6846  -0.373   4.984   5.898
   77OSM    H2F 6847  -0.422   5.071   5.947
   77OSM    H2G 6848  -0.435   4.901   5.937
   77OSM    C3F 6849  -0.406   4.974   5.749
   77OSM    H3F 6850  -0.515   4.993   5.738
   77OSM    H3G 6851  -0.384   4.875   5.704
   77OSM    C4F 6852  -0.337   5.076   5.656
   77OSM    H4F 6853  -0.227   5.071   5.669
   77OSM    H4G 6854  -0.355   5.180   5.691
   77OSM    C5F 6855  -0.372   5.070   5.501
   77OSM    H5F 6856  -0.345   5.163   5.446
   77OSM    H5G 6857  -0.479   5.055   5.477
   77OSM    C6F 6858  -0.315   4.951   5.429
   77OSM    H6F 6859  -0.353   4.859   5.480
   77OSM    H6G 6860  -0.205   4.952   5.443
   77OSM    C7F 6861  -0.332   4.947   5.279
   77OSM    H7F 6862  -0.284   5.036   5.232
   77OSM    H7G 6863  -0.440   4.958   5.259
   77OSM    C8F 6864  -0.274   4.818   5.227
   77OSM    H8F 6865  -0.324   4.743   5.291
   77OSM    H8G 6866  -0.166   4.801   5.247
   77OSM    C9F 6867  -0.317   4.791   5.084
   77OSM    H9F 6868  -0.420   4.754   5.069
   77OSM   C10F 6869  -0.256   4.820   4.972
   77OSM   H10F 6870  -0.310   4.795   4.880
   77OSM   C11F 6871  -0.128   4.891   4.956
   77OSM   H11F 6872  -0.044   4.818   4.962
   77OSM   H11G 6873  -0.109   4.960   5.041
   77OSM   C12F 6874  -0.119   4.975   4.834
   77OSM   H12F 6875  -0.029   5.040   4.830
   77OSM   H12G 6876  -0.205   5.045   4.841
   77OSM   C13F 6877  -0.131   4.901   4.699
   77OSM   H13F 6878  -0.228   4.846   4.698
   77OSM   H13G 6879  -0.049   4.827   4.692
   77OSM   C14F 6880  -0.129   4.996   4.574
   77OSM   H14F 6881  -0.217   5.064   4.565
   77OSM   H14G 6882  -0.148   4.930   4.486
   77OSM   C15F 6883   0.005   5.060   4.545
   77OSM   H15F 6884   0.079   4.980   4.525
   77OSM   H15G 6885   0.044   5.112   4.635
   77OSM   C16F 6886  -0.006   5.175   4.438
   77OSM   H16F 6887   0.081   5.244   4.430
   77OSM   H16G 6888  -0.101   5.233   4.440
   77OSM   C17F 6889  -0.011   5.111   4.299
   77OSM   H17F 6890   0.039   5.012   4.304
   77OSM   H17G 6891   0.038   5.179   4.227
   77OSM   C18F 6892  -0.145   5.085   4.234
   77OSM   H18F 6893  -0.130   5.053   4.129
   77OSM   H18G 6894  -0.204   5.180   4.236
   77OSM   H18H 6895  -0.206   5.006   4.284
   78OSM      N 6896   4.496   6.507   6.539
   78OSM    C15 6897   4.610   6.426   6.580
   78OSM   H15A 6898   4.612   6.425   6.688
   78OSM   H15B 6899   4.700   6.468   6.539
   78OSM   H15C 6900   4.594   6.324   6.549
   78OSM    C14 6901   4.373   6.432   6.592
   78OSM   H14A 6902   4.384   6.329   6.564
   78OSM   H14B 6903   4.281   6.478   6.558
   78OSM   H14C 6904   4.374   6.425   6.700
   78OSM    C13 6905   4.511   6.634   6.612
   78OSM   H13A 6906   4.440   6.702   6.569
   78OSM   H13B 6907   4.615   6.662   6.619
   78OSM   H13C 6908   4.478   6.635   6.715
   78OSM    C12 6909   4.481   6.520   6.384
   78OSM   H12A 6910   4.398   6.587   6.369
   78OSM   H12B 6911   4.454   6.424   6.344
   78OSM    C11 6912   4.597   6.571   6.291
   78OSM   H11A 6913   4.570   6.565   6.184
   78OSM   H11B 6914   4.683   6.502   6.306
   78OSM      P 6915   4.536   6.821   6.284
   78OSM    O13 6916   4.397   6.817   6.337
   78OSM    O14 6917   4.613   6.946   6.301
   78OSM    O11 6918   4.525   6.803   6.127
   78OSM    O12 6919   4.630   6.703   6.338
   78OSM    C1S 6920   4.642   6.832   6.054
   78OSM    H1S 6921   4.730   6.778   6.096
   78OSM    H1T 6922   4.650   6.942   6.058
   78OSM     NF 6923   4.760   6.790   5.840
   78OSM    HNF 6924   4.796   6.881   5.820
   78OSM    C2S 6925   4.628   6.793   5.907
   78OSM    H2S 6926   4.591   6.688   5.900
   78OSM    C3S 6927   4.521   6.889   5.845
   78OSM    H3S 6928   4.561   6.990   5.864
   78OSM     O3 6929   4.388   6.883   5.896
   78OSM    HO3 6930   4.398   6.836   5.979
   78OSM    C4S 6931   4.515   6.865   5.702
   78OSM    H4S 6932   4.567   6.944   5.646
   78OSM    C5S 6933   4.466   6.768   5.620
   78OSM    H5S 6934   4.411   6.688   5.671
   78OSM    C6S 6935   4.480   6.768   5.473
   78OSM    H6S 6936   4.495   6.666   5.431
   78OSM    H6T 6937   4.568   6.830   5.446
   78OSM    C7S 6938   4.351   6.820   5.420
   78OSM    H7S 6939   4.317   6.912   5.472
   78OSM    H7T 6940   4.273   6.742   5.434
   78OSM    C8S 6941   4.369   6.859   5.265
   78OSM    H8S 6942   4.397   6.772   5.203
   78OSM    H8T 6943   4.446   6.938   5.253
   78OSM    C9S 6944   4.235   6.908   5.200
   78OSM    H9S 6945   4.160   6.947   5.273
   78OSM    H9T 6946   4.186   6.823   5.147
   78OSM   C10S 6947   4.246   7.017   5.089
   78OSM   H10S 6948   4.285   7.109   5.138
   78OSM   H10T 6949   4.146   7.050   5.053
   78OSM   C11S 6950   4.341   6.976   4.977
   78OSM   H11S 6951   4.316   6.877   4.931
   78OSM   H11T 6952   4.441   6.975   5.025
   78OSM   C12S 6953   4.348   7.073   4.856
   78OSM   H12S 6954   4.399   7.169   4.879
   78OSM   H12T 6955   4.244   7.101   4.827
   78OSM   C13S 6956   4.421   7.018   4.735
   78OSM   H13S 6957   4.368   6.931   4.689
   78OSM   H13T 6958   4.529   6.999   4.756
   78OSM   C14S 6959   4.429   7.112   4.615
   78OSM   H14S 6960   4.470   7.211   4.642
   78OSM   H14T 6961   4.326   7.125   4.575
   78OSM   C15S 6962   4.523   7.070   4.500
   78OSM   H15S 6963   4.629   7.044   4.523
   78OSM   H15T 6964   4.533   7.160   4.435
   78OSM   C16S 6965   4.458   6.964   4.409
   78OSM   H16S 6966   4.372   7.010   4.356
   78OSM   H16T 6967   4.432   6.881   4.477
   78OSM   C17S 6968   4.535   6.917   4.288
   78OSM   H17S 6969   4.644   6.928   4.305
   78OSM   H17T 6970   4.519   6.985   4.202
   78OSM   C18S 6971   4.501   6.777   4.237
   78OSM   H18S 6972   4.543   6.757   4.136
   78OSM   H18T 6973   4.391   6.776   4.222
   78OSM   H18U 6974   4.538   6.696   4.303
   78OSM    C1F 6975   4.844   6.697   5.870
   78OSM     OF 6976   4.811   6.586   5.920
   78OSM    C2F 6977   4.983   6.740   5.867
   78OSM    H2F 6978   5.005   6.776   5.970
   78OSM    H2G 6979   4.998   6.832   5.807
   78OSM    C3F 6980   5.089   6.626   5.834
   78OSM    H3F 6981   5.096   6.559   5.922
   78OSM    H3G 6982   5.183   6.683   5.824
   78OSM    C4F 6983   5.059   6.550   5.707
   78OSM    H4F 6984   5.064   6.619   5.620
   78OSM    H4G 6985   4.955   6.512   5.712
   78OSM    C5F 6986   5.156   6.434   5.682
   78OSM    H5F 6987   5.117   6.356   5.751
   78OSM    H5G 6988   5.263   6.461   5.697
   78OSM    C6F 6989   5.144   6.361   5.544
   78OSM    H6F 6990   5.048   6.383   5.492
   78OSM    H6G 6991   5.154   6.250   5.540
   78OSM    C7F 6992   5.254   6.409   5.437
   78OSM    H7F 6993   5.355   6.367   5.456
   78OSM    H7G 6994   5.264   6.518   5.455
   78OSM    C8F 6995   5.214   6.381   5.286
   78OSM    H8F 6996   5.265   6.449   5.216
   78OSM    H8G 6997   5.105   6.404   5.283
   78OSM    C9F 6998   5.247   6.239   5.246
   78OSM    H9F 6999   5.321   6.189   5.310
   78OSM   C10F 7000   5.181   6.164   5.158
   78OSM   H10F 7001   5.193   6.056   5.145
   78OSM   C11F 7002   5.071   6.216   5.072
   78OSM   H11F 7003   5.049   6.320   5.104
   78OSM   H11G 7004   4.985   6.146   5.069
   78OSM   C12F 7005   5.116   6.236   4.927
   78OSM   H12F 7006   5.213   6.289   4.916
   78OSM   H12G 7007   5.048   6.298   4.866
   78OSM   C13F 7008   5.113   6.098   4.852
   78OSM   H13F 7009   5.006   6.067   4.858
   78OSM   H13G 7010   5.178   6.030   4.911
   78OSM   C14F 7011   5.154   6.121   4.706
   78OSM   H14F 7012   5.189   6.024   4.664
   78OSM   H14G 7013   5.243   6.186   4.697
   78OSM   C15F 7014   5.042   6.184   4.615
   78OSM   H15F 7015   5.035   6.290   4.644
   78OSM   H15G 7016   4.955   6.122   4.644
   78OSM   C16F 7017   5.074   6.164   4.464
   78OSM   H16F 7018   5.093   6.056   4.451
   78OSM   H16G 7019   5.171   6.212   4.438
   78OSM   C17F 7020   4.968   6.221   4.375
   78OSM   H17F 7021   4.977   6.185   4.270
   78OSM   H17G 7022   4.984   6.330   4.367
   78OSM   C18F 7023   4.820   6.196   4.400
   78OSM   H18F 7024   4.796   6.088   4.411
   78OSM   H18G 7025   4.748   6.227   4.321
   78OSM   H18H 7026   4.792   6.254   4.490
   79OSM      N 7027   4.235   4.406   1.820
   79OSM    C15 7028   4.349   4.419   1.714
   79OSM   H15A 7029   4.375   4.322   1.673
   79OSM   H15B 7030   4.439   4.457   1.761
   79OSM   H15C 7031   4.302   4.469   1.631
   79OSM    C14 7032   4.291   4.355   1.942
   79OSM   H14A 7033   4.347   4.263   1.937
   79OSM   H14B 7034   4.207   4.331   2.006
   79OSM   H14C 7035   4.353   4.429   1.991
   79OSM    C13 7036   4.191   4.549   1.848
   79OSM   H13A 7037   4.283   4.606   1.845
   79OSM   H13B 7038   4.154   4.558   1.950
   79OSM   H13C 7039   4.115   4.587   1.781
   79OSM    C12 7040   4.117   4.325   1.764
   79OSM   H12A 7041   4.136   4.225   1.727
   79OSM   H12B 7042   4.082   4.387   1.683
   79OSM    C11 7043   3.992   4.318   1.858
   79OSM   H11A 7044   3.911   4.271   1.798
   79OSM   H11B 7045   3.964   4.422   1.884
   79OSM      P 7046   4.049   4.097   1.987
   79OSM    O13 7047   3.955   4.042   1.891
   79OSM    O14 7048   4.193   4.061   1.968
   79OSM    O11 7049   4.003   4.055   2.131
   79OSM    O12 7050   4.022   4.258   1.976
   79OSM    C1S 7051   3.985   4.170   2.224
   79OSM    H1S 7052   3.902   4.239   2.197
   79OSM    H1T 7053   4.075   4.234   2.234
   79OSM     NF 7054   3.901   4.218   2.448
   79OSM    HNF 7055   3.957   4.252   2.524
   79OSM    C2S 7056   3.955   4.116   2.361
   79OSM    H2S 7057   3.873   4.041   2.350
   79OSM    C3S 7058   4.075   4.040   2.425
   79OSM    H3S 7059   4.156   4.115   2.441
   79OSM     O3 7060   4.134   3.944   2.337
   79OSM    HO3 7061   4.087   3.963   2.256
   79OSM    C4S 7062   4.046   3.975   2.561
   79OSM    H4S 7063   4.043   4.046   2.645
   79OSM    C5S 7064   4.025   3.843   2.587
   79OSM    H5S 7065   4.033   3.766   2.509
   79OSM    C6S 7066   4.001   3.783   2.726
   79OSM    H6S 7067   4.061   3.690   2.737
   79OSM    H6T 7068   3.895   3.754   2.736
   79OSM    C7S 7069   4.021   3.867   2.856
   79OSM    H7S 7070   3.990   3.972   2.837
   79OSM    H7T 7071   4.131   3.855   2.868
   79OSM    C8S 7072   3.933   3.815   2.972
   79OSM    H8S 7073   3.995   3.741   3.027
   79OSM    H8T 7074   3.850   3.765   2.919
   79OSM    C9S 7075   3.884   3.917   3.075
   79OSM    H9S 7076   3.832   3.998   3.018
   79OSM    H9T 7077   3.965   3.961   3.136
   79OSM   C10S 7078   3.775   3.865   3.168
   79OSM   H10S 7079   3.698   3.799   3.123
   79OSM   H10T 7080   3.717   3.952   3.204
   79OSM   C11S 7081   3.838   3.778   3.287
   79OSM   H11S 7082   3.929   3.822   3.333
   79OSM   H11T 7083   3.879   3.687   3.237
   79OSM   C12S 7084   3.738   3.731   3.391
   79OSM   H12S 7085   3.670   3.650   3.357
   79OSM   H12T 7086   3.667   3.812   3.420
   79OSM   C13S 7087   3.797   3.693   3.523
   79OSM   H13S 7088   3.859   3.603   3.506
   79OSM   H13T 7089   3.720   3.664   3.598
   79OSM   C14S 7090   3.878   3.803   3.593
   79OSM   H14S 7091   3.808   3.889   3.599
   79OSM   H14T 7092   3.960   3.830   3.522
   79OSM   C15S 7093   3.931   3.752   3.728
   79OSM   H15S 7094   4.017   3.683   3.713
   79OSM   H15T 7095   3.858   3.693   3.787
   79OSM   C16S 7096   3.990   3.861   3.821
   79OSM   H16S 7097   3.952   3.961   3.789
   79OSM   H16T 7098   4.098   3.869   3.795
   79OSM   C17S 7099   3.972   3.845   3.967
   79OSM   H17S 7100   3.874   3.804   4.002
   79OSM   H17T 7101   3.974   3.949   4.006
   79OSM   C18S 7102   4.072   3.766   4.050
   79OSM   H18S 7103   4.041   3.757   4.156
   79OSM   H18T 7104   4.177   3.804   4.052
   79OSM   H18U 7105   4.074   3.666   4.003
   79OSM    C1F 7106   3.784   4.279   2.415
   79OSM     OF 7107   3.702   4.219   2.343
   79OSM    C2F 7108   3.753   4.414   2.470
   79OSM    H2F 7109   3.802   4.499   2.418
   79OSM    H2G 7110   3.797   4.415   2.572
   79OSM    C3F 7111   3.599   4.432   2.484
   79OSM    H3F 7112   3.570   4.358   2.563
   79OSM    H3G 7113   3.547   4.419   2.387
   79OSM    C4F 7114   3.567   4.570   2.536
   79OSM    H4F 7115   3.457   4.574   2.553
   79OSM    H4G 7116   3.572   4.645   2.455
   79OSM    C5F 7117   3.629   4.619   2.663
   79OSM    H5F 7118   3.579   4.718   2.677
   79OSM    H5G 7119   3.738   4.636   2.656
   79OSM    C6F 7120   3.610   4.531   2.791
   79OSM    H6F 7121   3.684   4.448   2.791
   79OSM    H6G 7122   3.504   4.497   2.788
   79OSM    C7F 7123   3.639   4.597   2.929
   79OSM    H7F 7124   3.574   4.687   2.937
   79OSM    H7G 7125   3.748   4.621   2.923
   79OSM    C8F 7126   3.608   4.506   3.047
   79OSM    H8F 7127   3.660   4.409   3.033
   79OSM    H8G 7128   3.501   4.477   3.052
   79OSM    C9F 7129   3.650   4.568   3.184
   79OSM    H9F 7130   3.746   4.540   3.231
   79OSM   C10F 7131   3.583   4.657   3.260
   79OSM   H10F 7132   3.622   4.662   3.363
   79OSM   C11F 7133   3.458   4.730   3.220
   79OSM   H11F 7134   3.454   4.748   3.110
   79OSM   H11G 7135   3.456   4.831   3.265
   79OSM   C12F 7136   3.323   4.657   3.242
   79OSM   H12F 7137   3.322   4.608   3.341
   79OSM   H12G 7138   3.311   4.568   3.178
   79OSM   C13F 7139   3.199   4.753   3.237
   79OSM   H13F 7140   3.173   4.769   3.130
   79OSM   H13G 7141   3.231   4.848   3.284
   79OSM   C14F 7142   3.078   4.688   3.316
   79OSM   H14F 7143   3.043   4.594   3.269
   79OSM   H14G 7144   3.000   4.763   3.295
   79OSM   C15F 7145   3.098   4.673   3.474
   79OSM   H15F 7146   3.176   4.750   3.492
   79OSM   H15G 7147   3.131   4.570   3.501
   79OSM   C16F 7148   2.971   4.702   3.560
   79OSM   H16F 7149   2.931   4.800   3.527
   79OSM   H16G 7150   3.006   4.713   3.666
   79OSM   C17F 7151   2.874   4.585   3.557
   79OSM   H17F 7152   2.914   4.497   3.612
   79OSM   H17G 7153   2.865   4.551   3.452
   79OSM   C18F 7154   2.736   4.616   3.611
   79OSM   H18F 7155   2.710   4.724   3.606
   79OSM   H18G 7156   2.735   4.593   3.720
   79OSM   H18H 7157   2.658   4.557   3.558
   80OSM      N 7158   1.322   3.711   2.190
   80OSM    C15 7159   1.233   3.822   2.154
   80OSM   H15A 7160   1.263   3.877   2.066
   80OSM   H15B 7161   1.219   3.887   2.239
   80OSM   H15C 7162   1.140   3.786   2.114
   80OSM    C14 7163   1.456   3.775   2.208
   80OSM   H14A 7164   1.495   3.799   2.110
   80OSM   H14B 7165   1.524   3.703   2.251
   80OSM   H14C 7166   1.445   3.860   2.274
   80OSM    C13 7167   1.271   3.655   2.317
   80OSM   H13A 7168   1.228   3.729   2.383
   80OSM   H13B 7169   1.348   3.592   2.359
   80OSM   H13C 7170   1.190   3.590   2.288
   80OSM    C12 7171   1.337   3.615   2.075
   80OSM   H12A 7172   1.373   3.669   1.989
   80OSM   H12B 7173   1.247   3.568   2.037
   80OSM    C11 7174   1.431   3.495   2.104
   80OSM   H11A 7175   1.523   3.524   2.159
   80OSM   H11B 7176   1.469   3.455   2.007
   80OSM      P 7177   1.248   3.309   2.145
   80OSM    O13 7178   1.124   3.392   2.132
   80OSM    O14 7179   1.301   3.231   2.033
   80OSM    O11 7180   1.228   3.208   2.268
   80OSM    O12 7181   1.364   3.406   2.193
   80OSM    C1S 7182   1.241   3.272   2.395
   80OSM    H1S 7183   1.156   3.342   2.410
   80OSM    H1T 7184   1.335   3.328   2.410
   80OSM     NF 7185   1.242   3.233   2.641
   80OSM    HNF 7186   1.314   3.204   2.704
   80OSM    C2S 7187   1.229   3.171   2.510
   80OSM    H2S 7188   1.133   3.116   2.497
   80OSM    C3S 7189   1.339   3.057   2.492
   80OSM    H3S 7190   1.440   3.103   2.495
   80OSM     O3 7191   1.350   2.994   2.365
   80OSM    HO3 7192   1.280   3.029   2.310
   80OSM    C4S 7193   1.328   2.959   2.603
   80OSM    H4S 7194   1.404   2.984   2.679
   80OSM    C5S 7195   1.246   2.852   2.626
   80OSM    H5S 7196   1.165   2.828   2.556
   80OSM    C6S 7197   1.251   2.762   2.742
   80OSM    H6S 7198   1.283   2.660   2.712
   80OSM    H6T 7199   1.144   2.751   2.772
   80OSM    C7S 7200   1.324   2.815   2.869
   80OSM    H7S 7201   1.281   2.915   2.892
   80OSM    H7T 7202   1.434   2.809   2.853
   80OSM    C8S 7203   1.306   2.712   2.981
   80OSM    H8S 7204   1.333   2.611   2.943
   80OSM    H8T 7205   1.200   2.716   3.014
   80OSM    C9S 7206   1.398   2.748   3.101
   80OSM    H9S 7207   1.396   2.855   3.132
   80OSM    H9T 7208   1.500   2.735   3.058
   80OSM   C10S 7209   1.381   2.660   3.230
   80OSM   H10S 7210   1.387   2.554   3.195
   80OSM   H10T 7211   1.276   2.681   3.261
   80OSM   C11S 7212   1.482   2.687   3.337
   80OSM   H11S 7213   1.582   2.687   3.290
   80OSM   H11T 7214   1.477   2.608   3.414
   80OSM   C12S 7215   1.472   2.828   3.408
   80OSM   H12S 7216   1.368   2.844   3.443
   80OSM   H12T 7217   1.507   2.906   3.338
   80OSM   C13S 7218   1.567   2.832   3.522
   80OSM   H13S 7219   1.595   2.938   3.542
   80OSM   H13T 7220   1.655   2.767   3.508
   80OSM   C14S 7221   1.503   2.784   3.650
   80OSM   H14S 7222   1.471   2.677   3.652
   80OSM   H14T 7223   1.410   2.840   3.675
   80OSM   C15S 7224   1.596   2.804   3.773
   80OSM   H15S 7225   1.535   2.810   3.866
   80OSM   H15T 7226   1.641   2.903   3.749
   80OSM   C16S 7227   1.699   2.689   3.791
   80OSM   H16S 7228   1.750   2.665   3.695
   80OSM   H16T 7229   1.641   2.603   3.828
   80OSM   C17S 7230   1.814   2.733   3.886
   80OSM   H17S 7231   1.874   2.640   3.898
   80OSM   H17T 7232   1.801   2.767   3.991
   80OSM   C18S 7233   1.904   2.835   3.831
   80OSM   H18S 7234   1.845   2.924   3.799
   80OSM   H18T 7235   1.939   2.800   3.731
   80OSM   H18U 7236   2.001   2.858   3.881
   80OSM    C1F 7237   1.158   3.323   2.699
   80OSM     OF 7238   1.058   3.365   2.643
   80OSM    C2F 7239   1.174   3.353   2.848
   80OSM    H2F 7240   1.254   3.291   2.895
   80OSM    H2G 7241   1.074   3.333   2.891
   80OSM    C3F 7242   1.209   3.509   2.862
   80OSM    H3F 7243   1.225   3.531   2.970
   80OSM    H3G 7244   1.124   3.567   2.822
   80OSM    C4F 7245   1.336   3.540   2.791
   80OSM    H4F 7246   1.331   3.506   2.686
   80OSM    H4G 7247   1.423   3.494   2.842
   80OSM    C5F 7248   1.364   3.695   2.795
   80OSM    H5F 7249   1.280   3.734   2.732
   80OSM    H5G 7250   1.463   3.719   2.752
   80OSM    C6F 7251   1.348   3.759   2.938
   80OSM    H6F 7252   1.246   3.743   2.981
   80OSM    H6G 7253   1.368   3.867   2.922
   80OSM    C7F 7254   1.444   3.706   3.044
   80OSM    H7F 7255   1.543   3.730   2.999
   80OSM    H7G 7256   1.429   3.598   3.065
   80OSM    C8F 7257   1.425   3.781   3.177
   80OSM    H8F 7258   1.316   3.775   3.196
   80OSM    H8G 7259   1.466   3.884   3.169
   80OSM    C9F 7260   1.517   3.728   3.283
   80OSM    H9F 7261   1.617   3.709   3.241
   80OSM   C10F 7262   1.501   3.705   3.416
   80OSM   H10F 7263   1.591   3.673   3.472
   80OSM   C11F 7264   1.370   3.715   3.494
   80OSM   H11F 7265   1.337   3.610   3.509
   80OSM   H11G 7266   1.283   3.766   3.448
   80OSM   C12F 7267   1.381   3.779   3.630
   80OSM   H12F 7268   1.483   3.772   3.673
   80OSM   H12G 7269   1.307   3.741   3.703
   80OSM   C13F 7270   1.349   3.930   3.613
   80OSM   H13F 7271   1.245   3.924   3.575
   80OSM   H13G 7272   1.421   3.980   3.545
   80OSM   C14F 7273   1.348   4.003   3.743
   80OSM   H14F 7274   1.455   4.024   3.762
   80OSM   H14G 7275   1.308   3.933   3.820
   80OSM   C15F 7276   1.271   4.137   3.747
   80OSM   H15F 7277   1.268   4.168   3.854
   80OSM   H15G 7278   1.165   4.130   3.713
   80OSM   C16F 7279   1.344   4.252   3.670
   80OSM   H16F 7280   1.367   4.212   3.568
   80OSM   H16G 7281   1.444   4.273   3.713
   80OSM   C17F 7282   1.259   4.377   3.662
   80OSM   H17F 7283   1.159   4.356   3.619
   80OSM   H17G 7284   1.315   4.449   3.599
   80OSM   C18F 7285   1.232   4.429   3.803
   80OSM   H18F 7286   1.184   4.528   3.790
   80OSM   H18G 7287   1.324   4.443   3.864
   80OSM   H18H 7288   1.171   4.360   3.865
   81OSM      N 7289   3.428   2.230   1.831
   81OSM    C15 7290   3.467   2.168   1.699
   81OSM   H15A 7291   3.553   2.105   1.712
   81OSM   H15B 7292   3.497   2.240   1.624
   81OSM   H15C 7293   3.391   2.112   1.646
   81OSM    C14 7294   3.520   2.347   1.846
   81OSM   H14A 7295   3.516   2.409   1.758
   81OSM   H14B 7296   3.617   2.299   1.853
   81OSM   H14C 7297   3.508   2.406   1.936
   81OSM    C13 7298   3.286   2.273   1.811
   81OSM   H13A 7299   3.274   2.362   1.871
   81OSM   H13B 7300   3.216   2.195   1.835
   81OSM   H13C 7301   3.267   2.310   1.711
   81OSM    C12 7302   3.437   2.134   1.949
   81OSM   H12A 7303   3.396   2.039   1.917
   81OSM   H12B 7304   3.381   2.168   2.035
   81OSM    C11 7305   3.574   2.101   2.001
   81OSM   H11A 7306   3.554   2.031   2.085
   81OSM   H11B 7307   3.615   2.191   2.051
   81OSM      P 7308   3.820   2.037   1.951
   81OSM    O13 7309   3.868   1.907   1.904
   81OSM    O14 7310   3.888   2.165   1.922
   81OSM    O11 7311   3.827   2.034   2.107
   81OSM    O12 7312   3.666   2.041   1.906
   81OSM    C1S 7313   3.814   1.914   2.185
   81OSM    H1S 7314   3.892   1.838   2.163
   81OSM    H1T 7315   3.720   1.863   2.156
   81OSM     NF 7316   3.810   1.801   2.396
   81OSM    HNF 7317   3.718   1.770   2.417
   81OSM    C2S 7318   3.823   1.940   2.341
   81OSM    H2S 7319   3.926   1.978   2.362
   81OSM    C3S 7320   3.714   2.041   2.384
   81OSM    H3S 7321   3.615   1.993   2.365
   81OSM     O3 7322   3.710   2.158   2.302
   81OSM    HO3 7323   3.755   2.137   2.220
   81OSM    C4S 7324   3.730   2.080   2.527
   81OSM    H4S 7325   3.674   2.008   2.588
   81OSM    C5S 7326   3.798   2.183   2.578
   81OSM    H5S 7327   3.849   2.255   2.513
   81OSM    C6S 7328   3.813   2.215   2.721
   81OSM    H6S 7329   3.764   2.313   2.742
   81OSM    H6T 7330   3.920   2.229   2.746
   81OSM    C7S 7331   3.752   2.115   2.813
   81OSM    H7S 7332   3.781   2.009   2.800
   81OSM    H7T 7333   3.641   2.106   2.802
   81OSM    C8S 7334   3.778   2.148   2.958
   81OSM    H8S 7335   3.732   2.246   2.981
   81OSM    H8T 7336   3.887   2.148   2.979
   81OSM    C9S 7337   3.709   2.038   3.037
   81OSM    H9S 7338   3.741   1.939   2.999
   81OSM    H9T 7339   3.602   2.051   3.006
   81OSM   C10S 7340   3.724   2.040   3.190
   81OSM   H10S 7341   3.678   2.132   3.231
   81OSM   H10T 7342   3.831   2.027   3.218
   81OSM   C11S 7343   3.657   1.921   3.258
   81OSM   H11S 7344   3.681   1.823   3.211
   81OSM   H11T 7345   3.546   1.921   3.246
   81OSM   C12S 7346   3.685   1.914   3.409
   81OSM   H12S 7347   3.622   1.995   3.451
   81OSM   H12T 7348   3.792   1.940   3.419
   81OSM   C13S 7349   3.645   1.778   3.464
   81OSM   H13S 7350   3.708   1.695   3.428
   81OSM   H13T 7351   3.549   1.749   3.415
   81OSM   C14S 7352   3.625   1.767   3.618
   81OSM   H14S 7353   3.631   1.657   3.637
   81OSM   H14T 7354   3.528   1.810   3.651
   81OSM   C15S 7355   3.741   1.840   3.686
   81OSM   H15S 7356   3.739   1.946   3.654
   81OSM   H15T 7357   3.828   1.784   3.646
   81OSM   C16S 7358   3.728   1.834   3.840
   81OSM   H16S 7359   3.733   1.728   3.875
   81OSM   H16T 7360   3.624   1.872   3.850
   81OSM   C17S 7361   3.831   1.902   3.925
   81OSM   H17S 7362   3.835   2.007   3.891
   81OSM   H17T 7363   3.932   1.862   3.903
   81OSM   C18S 7364   3.808   1.902   4.080
   81OSM   H18S 7365   3.818   1.797   4.117
   81OSM   H18T 7366   3.705   1.927   4.114
   81OSM   H18U 7367   3.879   1.960   4.142
   81OSM    C1F 7368   3.907   1.706   2.384
   81OSM     OF 7369   4.015   1.729   2.332
   81OSM    C2F 7370   3.855   1.583   2.440
   81OSM    H2F 7371   3.867   1.513   2.355
   81OSM    H2G 7372   3.748   1.586   2.470
   81OSM    C3F 7373   3.943   1.529   2.561
   81OSM    H3F 7374   4.051   1.514   2.541
   81OSM    H3G 7375   3.916   1.426   2.591
   81OSM    C4F 7376   3.920   1.611   2.689
   81OSM    H4F 7377   3.813   1.638   2.704
   81OSM    H4G 7378   3.972   1.709   2.684
   81OSM    C5F 7379   3.979   1.546   2.809
   81OSM    H5F 7380   4.086   1.536   2.782
   81OSM    H5G 7381   3.941   1.443   2.825
   81OSM    C6F 7382   3.956   1.619   2.946
   81OSM    H6F 7383   3.855   1.589   2.983
   81OSM    H6G 7384   3.955   1.726   2.916
   81OSM    C7F 7385   4.066   1.577   3.043
   81OSM    H7F 7386   4.164   1.599   2.995
   81OSM    H7G 7387   4.057   1.468   3.062
   81OSM    C8F 7388   4.042   1.650   3.179
   81OSM    H8F 7389   4.003   1.749   3.147
   81OSM    H8G 7390   4.139   1.679   3.225
   81OSM    C9F 7391   3.958   1.584   3.281
   81OSM    H9F 7392   3.849   1.580   3.264
   81OSM   C10F 7393   3.996   1.544   3.405
   81OSM   H10F 7394   3.919   1.503   3.472
   81OSM   C11F 7395   4.135   1.547   3.458
   81OSM   H11F 7396   4.190   1.639   3.429
   81OSM   H11G 7397   4.199   1.473   3.407
   81OSM   C12F 7398   4.137   1.520   3.617
   81OSM   H12F 7399   4.114   1.412   3.626
   81OSM   H12G 7400   4.057   1.581   3.663
   81OSM   C13F 7401   4.265   1.557   3.689
   81OSM   H13F 7402   4.291   1.658   3.651
   81OSM   H13G 7403   4.347   1.487   3.663
   81OSM   C14F 7404   4.247   1.565   3.840
   81OSM   H14F 7405   4.207   1.473   3.889
   81OSM   H14G 7406   4.180   1.654   3.846
   81OSM   C15F 7407   4.377   1.603   3.913
   81OSM   H15F 7408   4.417   1.702   3.883
   81OSM   H15G 7409   4.454   1.529   3.882
   81OSM   C16F 7410   4.367   1.607   4.066
   81OSM   H16F 7411   4.331   1.511   4.107
   81OSM   H16G 7412   4.302   1.696   4.085
   81OSM   C17F 7413   4.504   1.632   4.123
   81OSM   H17F 7414   4.544   1.718   4.064
   81OSM   H17G 7415   4.570   1.544   4.110
   81OSM   C18F 7416   4.519   1.652   4.273
   81OSM   H18F 7417   4.461   1.575   4.328
   81OSM   H18G 7418   4.487   1.755   4.300
   81OSM   H18H 7419   4.626   1.651   4.303
   82OSM      N 7420   3.909   2.554   2.062
   82OSM    C15 7421   4.056   2.550   2.019
   82OSM   H15A 7422   4.125   2.518   2.096
   82OSM   H15B 7423   4.084   2.650   1.991
   82OSM   H15C 7424   4.055   2.476   1.940
   82OSM    C14 7425   3.887   2.416   2.103
   82OSM   H14A 7426   3.915   2.341   2.031
   82OSM   H14B 7427   3.782   2.402   2.124
   82OSM   H14C 7428   3.933   2.395   2.199
   82OSM    C13 7429   3.885   2.652   2.176
   82OSM   H13A 7430   3.960   2.630   2.251
   82OSM   H13B 7431   3.792   2.637   2.229
   82OSM   H13C 7432   3.888   2.757   2.152
   82OSM    C12 7433   3.828   2.595   1.935
   82OSM   H12A 7434   3.722   2.595   1.953
   82OSM   H12B 7435   3.844   2.509   1.872
   82OSM    C11 7436   3.862   2.725   1.860
   82OSM   H11A 7437   3.809   2.732   1.763
   82OSM   H11B 7438   3.968   2.729   1.826
   82OSM      P 7439   3.690   2.909   1.932
   82OSM    O13 7440   3.701   3.056   1.935
   82OSM    O14 7441   3.601   2.847   1.830
   82OSM    O11 7442   3.641   2.862   2.072
   82OSM    O12 7443   3.834   2.845   1.933
   82OSM    C1S 7444   3.521   2.781   2.078
   82OSM    H1S 7445   3.530   2.693   2.012
   82OSM    H1T 7446   3.441   2.843   2.032
   82OSM     NF 7447   3.386   2.637   2.216
   82OSM    HNF 7448   3.298   2.676   2.243
   82OSM    C2S 7449   3.484   2.740   2.219
   82OSM    H2S 7450   3.579   2.706   2.265
   82OSM    C3S 7451   3.452   2.869   2.305
   82OSM    H3S 7452   3.353   2.909   2.274
   82OSM     O3 7453   3.550   2.970   2.301
   82OSM    HO3 7454   3.598   2.930   2.228
   82OSM    C4S 7455   3.438   2.827   2.446
   82OSM    H4S 7456   3.339   2.853   2.488
   82OSM    C5S 7457   3.534   2.770   2.518
   82OSM    H5S 7458   3.641   2.760   2.493
   82OSM    C6S 7459   3.512   2.735   2.664
   82OSM    H6S 7460   3.410   2.696   2.682
   82OSM    H6T 7461   3.520   2.833   2.715
   82OSM    C7S 7462   3.604   2.626   2.714
   82OSM    H7S 7463   3.698   2.667   2.758
   82OSM    H7T 7464   3.641   2.569   2.625
   82OSM    C8S 7465   3.548   2.537   2.822
   82OSM    H8S 7466   3.630   2.462   2.829
   82OSM    H8T 7467   3.451   2.488   2.799
   82OSM    C9S 7468   3.534   2.604   2.955
   82OSM    H9S 7469   3.469   2.694   2.945
   82OSM    H9T 7470   3.639   2.630   2.981
   82OSM   C10S 7471   3.477   2.501   3.052
   82OSM   H10S 7472   3.551   2.418   3.053
   82OSM   H10T 7473   3.379   2.455   3.028
   82OSM   C11S 7474   3.466   2.557   3.190
   82OSM   H11S 7475   3.383   2.630   3.197
   82OSM   H11T 7476   3.562   2.610   3.206
   82OSM   C12S 7477   3.444   2.445   3.297
   82OSM   H12S 7478   3.524   2.373   3.270
   82OSM   H12T 7479   3.343   2.410   3.268
   82OSM   C13S 7480   3.448   2.469   3.445
   82OSM   H13S 7481   3.363   2.537   3.468
   82OSM   H13T 7482   3.535   2.528   3.482
   82OSM   C14S 7483   3.425   2.336   3.513
   82OSM   H14S 7484   3.505   2.263   3.490
   82OSM   H14T 7485   3.329   2.303   3.467
   82OSM   C15S 7486   3.394   2.359   3.662
   82OSM   H15S 7487   3.368   2.269   3.722
   82OSM   H15T 7488   3.316   2.434   3.688
   82OSM   C16S 7489   3.512   2.432   3.736
   82OSM   H16S 7490   3.515   2.542   3.725
   82OSM   H16T 7491   3.613   2.399   3.705
   82OSM   C17S 7492   3.504   2.408   3.885
   82OSM   H17S 7493   3.502   2.300   3.911
   82OSM   H17T 7494   3.414   2.451   3.935
   82OSM   C18S 7495   3.628   2.476   3.955
   82OSM   H18S 7496   3.625   2.461   4.065
   82OSM   H18T 7497   3.625   2.583   3.926
   82OSM   H18U 7498   3.724   2.440   3.912
   82OSM    C1F 7499   3.411   2.506   2.183
   82OSM     OF 7500   3.509   2.471   2.119
   82OSM    C2F 7501   3.295   2.410   2.206
   82OSM    H2F 7502   3.277   2.365   2.106
   82OSM    H2G 7503   3.204   2.467   2.235
   82OSM    C3F 7504   3.336   2.306   2.313
   82OSM    H3F 7505   3.424   2.247   2.279
   82OSM    H3G 7506   3.251   2.234   2.318
   82OSM    C4F 7507   3.369   2.357   2.456
   82OSM    H4F 7508   3.290   2.423   2.496
   82OSM    H4G 7509   3.451   2.430   2.445
   82OSM    C5F 7510   3.412   2.256   2.560
   82OSM    H5F 7511   3.494   2.303   2.618
   82OSM    H5G 7512   3.464   2.179   2.499
   82OSM    C6F 7513   3.300   2.192   2.648
   82OSM    H6F 7514   3.230   2.145   2.576
   82OSM    H6G 7515   3.237   2.268   2.698
   82OSM    C7F 7516   3.340   2.087   2.758
   82OSM    H7F 7517   3.410   2.137   2.828
   82OSM    H7G 7518   3.385   1.995   2.715
   82OSM    C8F 7519   3.209   2.042   2.831
   82OSM    H8F 7520   3.228   1.949   2.888
   82OSM    H8G 7521   3.125   2.008   2.769
   82OSM    C9F 7522   3.160   2.144   2.934
   82OSM    H9F 7523   3.052   2.165   2.932
   82OSM   C10F 7524   3.218   2.169   3.055
   82OSM   H10F 7525   3.164   2.247   3.112
   82OSM   C11F 7526   3.322   2.108   3.134
   82OSM   H11F 7527   3.405   2.179   3.154
   82OSM   H11G 7528   3.362   2.016   3.087
   82OSM   C12F 7529   3.272   2.074   3.277
   82OSM   H12F 7530   3.188   2.143   3.299
   82OSM   H12G 7531   3.361   2.079   3.344
   82OSM   C13F 7532   3.219   1.930   3.286
   82OSM   H13F 7533   3.301   1.859   3.267
   82OSM   H13G 7534   3.135   1.911   3.216
   82OSM   C14F 7535   3.164   1.893   3.423
   82OSM   H14F 7536   3.144   1.784   3.430
   82OSM   H14G 7537   3.067   1.944   3.441
   82OSM   C15F 7538   3.260   1.938   3.539
   82OSM   H15F 7539   3.243   2.048   3.549
   82OSM   H15G 7540   3.367   1.919   3.517
   82OSM   C16F 7541   3.247   1.875   3.671
   82OSM   H16F 7542   3.292   1.774   3.672
   82OSM   H16G 7543   3.138   1.870   3.694
   82OSM   C17F 7544   3.315   1.949   3.787
   82OSM   H17F 7545   3.253   2.037   3.815
   82OSM   H17G 7546   3.418   1.977   3.755
   82OSM   C18F 7547   3.334   1.854   3.907
   82OSM   H18F 7548   3.236   1.818   3.946
   82OSM   H18G 7549   3.378   1.912   3.992
   82OSM   H18H 7550   3.395   1.766   3.878
   83OSM      N 7551   0.299   3.200   1.962
   83OSM    C15 7552   0.160   3.222   1.918
   83OSM   H15A 7553   0.149   3.204   1.812
   83OSM   H15B 7554   0.134   3.324   1.940
   83OSM   H15C 7555   0.102   3.149   1.972
   83OSM    C14 7556   0.346   3.072   1.895
   83OSM   H14A 7557   0.352   3.095   1.790
   83OSM   H14B 7558   0.273   2.994   1.905
   83OSM   H14C 7559   0.445   3.046   1.931
   83OSM    C13 7560   0.380   3.319   1.918
   83OSM   H13A 7561   0.332   3.415   1.936
   83OSM   H13B 7562   0.402   3.310   1.813
   83OSM   H13C 7563   0.476   3.324   1.968
   83OSM    C12 7564   0.297   3.196   2.117
   83OSM   H12A 7565   0.269   3.296   2.146
   83OSM   H12B 7566   0.402   3.183   2.137
   83OSM    C11 7567   0.200   3.101   2.186
   83OSM   H11A 7568   0.099   3.124   2.146
   83OSM   H11B 7569   0.196   3.129   2.293
   83OSM      P 7570   0.332   2.883   2.228
   83OSM    O13 7571   0.287   2.744   2.252
   83OSM    O14 7572   0.461   2.897   2.156
   83OSM    O11 7573   0.350   2.957   2.362
   83OSM    O12 7574   0.215   2.965   2.162
   83OSM    C1S 7575   0.455   3.045   2.402
   83OSM    H1S 7576   0.444   3.136   2.339
   83OSM    H1T 7577   0.554   3.005   2.373
   83OSM     NF 7578   0.554   3.188   2.578
   83OSM    HNF 7579   0.621   3.165   2.648
   83OSM    C2S 7580   0.447   3.092   2.545
   83OSM    H2S 7581   0.348   3.141   2.559
   83OSM    C3S 7582   0.450   2.958   2.637
   83OSM    H3S 7583   0.543   2.903   2.612
   83OSM     O3 7584   0.349   2.861   2.601
   83OSM    HO3 7585   0.327   2.869   2.508
   83OSM    C4S 7586   0.429   2.996   2.781
   83OSM    H4S 7587   0.528   3.004   2.828
   83OSM    C5S 7588   0.314   3.022   2.852
   83OSM    H5S 7589   0.216   3.030   2.802
   83OSM    C6S 7590   0.320   3.052   3.004
   83OSM    H6S 7591   0.261   2.975   3.058
   83OSM    H6T 7592   0.260   3.146   3.007
   83OSM    C7S 7593   0.451   3.066   3.082
   83OSM    H7S 7594   0.511   3.146   3.033
   83OSM    H7T 7595   0.488   2.961   3.086
   83OSM    C8S 7596   0.445   3.096   3.236
   83OSM    H8S 7597   0.378   3.030   3.295
   83OSM    H8T 7598   0.412   3.202   3.236
   83OSM    C9S 7599   0.586   3.085   3.290
   83OSM    H9S 7600   0.654   3.144   3.225
   83OSM    H9T 7601   0.628   2.983   3.298
   83OSM   C10S 7602   0.605   3.158   3.432
   83OSM   H10S 7603   0.566   3.260   3.417
   83OSM   H10T 7604   0.712   3.164   3.460
   83OSM   C11S 7605   0.534   3.076   3.544
   83OSM   H11S 7606   0.539   2.967   3.520
   83OSM   H11T 7607   0.428   3.110   3.544
   83OSM   C12S 7608   0.596   3.114   3.680
   83OSM   H12S 7609   0.570   3.221   3.696
   83OSM   H12T 7610   0.704   3.091   3.676
   83OSM   C13S 7611   0.522   3.032   3.792
   83OSM   H13S 7612   0.575   2.935   3.803
   83OSM   H13T 7613   0.421   2.998   3.763
   83OSM   C14S 7614   0.520   3.103   3.918
   83OSM   H14S 7615   0.448   3.188   3.923
   83OSM   H14T 7616   0.620   3.150   3.935
   83OSM   C15S 7617   0.491   3.023   4.040
   83OSM   H15S 7618   0.527   3.079   4.129
   83OSM   H15T 7619   0.553   2.931   4.033
   83OSM   C16S 7620   0.341   2.996   4.063
   83OSM   H16S 7621   0.297   2.963   3.967
   83OSM   H16T 7622   0.289   3.092   4.085
   83OSM   C17S 7623   0.310   2.883   4.164
   83OSM   H17S 7624   0.331   2.926   4.265
   83OSM   H17T 7625   0.380   2.801   4.138
   83OSM   C18S 7626   0.167   2.829   4.165
   83OSM   H18S 7627   0.095   2.914   4.153
   83OSM   H18T 7628   0.132   2.791   4.263
   83OSM   H18U 7629   0.146   2.765   4.077
   83OSM    C1F 7630   0.573   3.312   2.528
   83OSM     OF 7631   0.495   3.354   2.444
   83OSM    C2F 7632   0.692   3.382   2.568
   83OSM    H2F 7633   0.713   3.462   2.494
   83OSM    H2G 7634   0.775   3.308   2.569
   83OSM    C3F 7635   0.663   3.437   2.709
   83OSM    H3F 7636   0.624   3.366   2.785
   83OSM    H3G 7637   0.584   3.516   2.701
   83OSM    C4F 7638   0.783   3.509   2.769
   83OSM    H4F 7639   0.804   3.600   2.710
   83OSM    H4G 7640   0.871   3.441   2.769
   83OSM    C5F 7641   0.765   3.571   2.911
   83OSM    H5F 7642   0.688   3.651   2.911
   83OSM    H5G 7643   0.864   3.613   2.939
   83OSM    C6F 7644   0.724   3.459   3.014
   83OSM    H6F 7645   0.789   3.370   3.007
   83OSM    H6G 7646   0.621   3.426   2.990
   83OSM    C7F 7647   0.734   3.511   3.157
   83OSM    H7F 7648   0.691   3.435   3.225
   83OSM    H7G 7649   0.684   3.610   3.169
   83OSM    C8F 7650   0.883   3.538   3.205
   83OSM    H8F 7651   0.920   3.606   3.125
   83OSM    H8G 7652   0.935   3.443   3.179
   83OSM    C9F 7653   0.888   3.592   3.344
   83OSM    H9F 7654   0.826   3.680   3.367
   83OSM   C10F 7655   0.962   3.535   3.444
   83OSM   H10F 7656   0.953   3.578   3.545
   83OSM   C11F 7657   1.057   3.412   3.436
   83OSM   H11F 7658   1.155   3.451   3.472
   83OSM   H11G 7659   1.071   3.379   3.331
   83OSM   C12F 7660   1.021   3.292   3.524
   83OSM   H12F 7661   1.099   3.217   3.503
   83OSM   H12G 7662   0.923   3.239   3.516
   83OSM   C13F 7663   1.032   3.324   3.676
   83OSM   H13F 7664   0.939   3.377   3.708
   83OSM   H13G 7665   1.114   3.396   3.696
   83OSM   C14F 7666   1.036   3.195   3.767
   83OSM   H14F 7667   1.137   3.154   3.747
   83OSM   H14G 7668   0.956   3.129   3.725
   83OSM   C15F 7669   1.019   3.221   3.913
   83OSM   H15F 7670   0.917   3.265   3.922
   83OSM   H15G 7671   1.095   3.285   3.963
   83OSM   C16F 7672   1.039   3.093   3.994
   83OSM   H16F 7673   1.149   3.079   4.000
   83OSM   H16G 7674   0.991   3.006   3.944
   83OSM   C17F 7675   0.984   3.101   4.133
   83OSM   H17F 7676   0.876   3.125   4.142
   83OSM   H17G 7677   1.042   3.179   4.187
   83OSM   C18F 7678   0.987   2.973   4.206
   83OSM   H18F 7679   0.918   2.900   4.160
   83OSM   H18G 7680   0.948   2.998   4.307
   83OSM   H18H 7681   1.092   2.937   4.215
   84OSM      N 7682   4.330   5.929   1.956
   84OSM    C15 7683   4.345   6.043   1.858
   84OSM   H15A 7684   4.261   6.044   1.791
   84OSM   H15B 7685   4.428   6.021   1.793
   84OSM   H15C 7686   4.364   6.135   1.911
   84OSM    C14 7687   4.194   5.942   2.024
   84OSM   H14A 7688   4.123   5.964   1.945
   84OSM   H14B 7689   4.205   6.018   2.099
   84OSM   H14C 7690   4.161   5.845   2.060
   84OSM    C13 7691   4.326   5.810   1.877
   84OSM   H13A 7692   4.302   5.726   1.939
   84OSM   H13B 7693   4.422   5.791   1.831
   84OSM   H13C 7694   4.257   5.821   1.795
   84OSM    C12 7695   4.442   5.921   2.064
   84OSM   H12A 7696   4.434   6.010   2.125
   84OSM   H12B 7697   4.540   5.932   2.019
   84OSM    C11 7698   4.475   5.798   2.159
   84OSM   H11A 7699   4.374   5.760   2.189
   84OSM   H11B 7700   4.537   5.834   2.243
   84OSM      P 7701   4.681   5.727   2.036
   84OSM    O13 7702   4.727   5.615   1.955
   84OSM    O14 7703   4.701   5.861   1.982
   84OSM    O11 7704   4.746   5.723   2.180
   84OSM    O12 7705   4.534   5.697   2.073
   84OSM    C1S 7706   4.708   5.615   2.270
   84OSM    H1S 7707   4.772   5.528   2.243
   84OSM    H1T 7708   4.598   5.605   2.278
   84OSM     NF 7709   4.698   5.541   2.505
   84OSM    HNF 7710   4.600   5.555   2.523
   84OSM    C2S 7711   4.754   5.641   2.419
   84OSM    H2S 7712   4.864   5.631   2.414
   84OSM    C3S 7713   4.721   5.782   2.467
   84OSM    H3S 7714   4.612   5.794   2.448
   84OSM     O3 7715   4.790   5.887   2.400
   84OSM    HO3 7716   4.797   5.851   2.312
   84OSM    C4S 7717   4.756   5.805   2.611
   84OSM    H4S 7718   4.861   5.796   2.640
   84OSM    C5S 7719   4.673   5.818   2.717
   84OSM    H5S 7720   4.566   5.797   2.699
   84OSM    C6S 7721   4.721   5.832   2.859
   84OSM    H6S 7722   4.672   5.916   2.912
   84OSM    H6T 7723   4.831   5.848   2.855
   84OSM    C7S 7724   4.680   5.701   2.930
   84OSM    H7S 7725   4.731   5.618   2.876
   84OSM    H7T 7726   4.571   5.684   2.918
   84OSM    C8S 7727   4.718   5.710   3.080
   84OSM    H8S 7728   4.687   5.807   3.124
   84OSM    H8T 7729   4.825   5.692   3.102
   84OSM    C9S 7730   4.654   5.596   3.162
   84OSM    H9S 7731   4.656   5.496   3.113
   84OSM    H9T 7732   4.548   5.631   3.159
   84OSM   C10S 7733   4.696   5.591   3.303
   84OSM   H10S 7734   4.721   5.693   3.340
   84OSM   H10T 7735   4.783   5.522   3.307
   84OSM   C11S 7736   4.583   5.548   3.395
   84OSM   H11S 7737   4.573   5.438   3.385
   84OSM   H11T 7738   4.487   5.596   3.366
   84OSM   C12S 7739   4.610   5.574   3.547
   84OSM   H12S 7740   4.621   5.683   3.567
   84OSM   H12T 7741   4.708   5.529   3.574
   84OSM   C13S 7742   4.482   5.546   3.626
   84OSM   H13S 7743   4.441   5.450   3.590
   84OSM   H13T 7744   4.407   5.624   3.602
   84OSM   C14S 7745   4.512   5.546   3.777
   84OSM   H14S 7746   4.429   5.605   3.822
   84OSM   H14T 7747   4.612   5.591   3.795
   84OSM   C15S 7748   4.495   5.407   3.839
   84OSM   H15S 7749   4.430   5.340   3.779
   84OSM   H15T 7750   4.445   5.412   3.939
   84OSM   C16S 7751   4.625   5.334   3.859
   84OSM   H16S 7752   4.680   5.404   3.926
   84OSM   H16T 7753   4.680   5.312   3.765
   84OSM   C17S 7754   4.615   5.193   3.927
   84OSM   H17S 7755   4.542   5.128   3.874
   84OSM   H17T 7756   4.563   5.219   4.021
   84OSM   C18S 7757   4.745   5.112   3.952
   84OSM   H18S 7758   4.813   5.113   3.864
   84OSM   H18T 7759   4.712   5.007   3.963
   84OSM   H18U 7760   4.809   5.132   4.041
   84OSM    C1F 7761   4.740   5.415   2.517
   84OSM     OF 7762   4.837   5.378   2.455
   84OSM    C2F 7763   4.655   5.326   2.610
   84OSM    H2F 7764   4.666   5.219   2.583
   84OSM    H2G 7765   4.547   5.353   2.611
   84OSM    C3F 7766   4.713   5.341   2.758
   84OSM    H3F 7767   4.682   5.445   2.783
   84OSM    H3G 7768   4.824   5.332   2.758
   84OSM    C4F 7769   4.655   5.241   2.854
   84OSM    H4F 7770   4.695   5.257   2.957
   84OSM    H4G 7771   4.684   5.137   2.829
   84OSM    C5F 7772   4.502   5.253   2.856
   84OSM    H5F 7773   4.468   5.212   2.758
   84OSM    H5G 7774   4.476   5.360   2.868
   84OSM    C6F 7775   4.438   5.163   2.965
   84OSM    H6F 7776   4.477   5.060   2.951
   84OSM    H6G 7777   4.327   5.159   2.954
   84OSM    C7F 7778   4.471   5.214   3.110
   84OSM    H7F 7779   4.430   5.317   3.121
   84OSM    H7G 7780   4.582   5.222   3.120
   84OSM    C8F 7781   4.421   5.118   3.221
   84OSM    H8F 7782   4.449   5.016   3.186
   84OSM    H8G 7783   4.312   5.126   3.202
   84OSM    C9F 7784   4.479   5.148   3.356
   84OSM    H9F 7785   4.565   5.217   3.355
   84OSM   C10F 7786   4.456   5.092   3.474
   84OSM   H10F 7787   4.532   5.108   3.552
   84OSM   C11F 7788   4.355   4.982   3.495
   84OSM   H11F 7789   4.374   4.889   3.438
   84OSM   H11G 7790   4.254   5.014   3.462
   84OSM   C12F 7791   4.332   4.941   3.640
   84OSM   H12F 7792   4.426   4.899   3.681
   84OSM   H12G 7793   4.273   4.847   3.639
   84OSM   C13F 7794   4.264   5.053   3.726
   84OSM   H13F 7795   4.165   5.083   3.685
   84OSM   H13G 7796   4.328   5.143   3.725
   84OSM   C14F 7797   4.231   4.999   3.865
   84OSM   H14F 7798   4.328   4.971   3.911
   84OSM   H14G 7799   4.168   4.907   3.864
   84OSM   C15F 7800   4.155   5.096   3.955
   84OSM   H15F 7801   4.142   5.042   4.051
   84OSM   H15G 7802   4.048   5.109   3.928
   84OSM   C16F 7803   4.213   5.239   3.976
   84OSM   H16F 7804   4.200   5.291   3.878
   84OSM   H16G 7805   4.322   5.233   3.998
   84OSM   C17F 7806   4.132   5.317   4.081
   84OSM   H17F 7807   4.139   5.267   4.180
   84OSM   H17G 7808   4.028   5.306   4.043
   84OSM   C18F 7809   4.174   5.462   4.106
   84OSM   H18F 7810   4.108   5.515   4.178
   84OSM   H18G 7811   4.187   5.520   4.012
   84OSM   H18H 7812   4.274   5.465   4.156
   85OSM      N 7813   0.011   3.627   1.623
   85OSM    C15 7814   0.011   3.643   1.474
   85OSM   H15A 7815   0.111   3.660   1.438
   85OSM   H15B 7816  -0.042   3.730   1.441
   85OSM   H15C 7817  -0.041   3.562   1.424
   85OSM    C14 7818  -0.131   3.605   1.666
   85OSM   H14A 7819  -0.203   3.668   1.616
   85OSM   H14B 7820  -0.139   3.626   1.772
   85OSM   H14C 7821  -0.154   3.500   1.661
   85OSM    C13 7822   0.102   3.524   1.669
   85OSM   H13A 7823   0.201   3.512   1.625
   85OSM   H13B 7824   0.061   3.426   1.651
   85OSM   H13C 7825   0.134   3.537   1.771
   85OSM    C12 7826   0.064   3.760   1.683
   85OSM   H12A 7827   0.011   3.841   1.635
   85OSM   H12B 7828   0.164   3.782   1.650
   85OSM    C11 7829   0.057   3.783   1.837
   85OSM   H11A 7830  -0.050   3.772   1.867
   85OSM   H11B 7831   0.093   3.884   1.867
   85OSM      P 7832   0.290   3.714   1.937
   85OSM    O13 7833   0.341   3.604   2.017
   85OSM    O14 7834   0.363   3.750   1.809
   85OSM    O11 7835   0.286   3.844   2.028
   85OSM    O12 7836   0.133   3.686   1.914
   85OSM    C1S 7837   0.221   3.850   2.160
   85OSM    H1S 7838   0.152   3.764   2.174
   85OSM    H1T 7839   0.152   3.936   2.145
   85OSM     NF 7840   0.247   3.883   2.404
   85OSM    HNF 7841   0.244   3.977   2.435
   85OSM    C2S 7842   0.321   3.862   2.282
   85OSM    H2S 7843   0.376   3.767   2.298
   85OSM    C3S 7844   0.422   3.973   2.247
   85OSM    H3S 7845   0.363   4.063   2.217
   85OSM     O3 7846   0.501   3.961   2.129
   85OSM    HO3 7847   0.442   3.906   2.078
   85OSM    C4S 7848   0.518   3.994   2.362
   85OSM    H4S 7849   0.502   4.082   2.427
   85OSM    C5S 7850   0.610   3.906   2.405
   85OSM    H5S 7851   0.611   3.813   2.347
   85OSM    C6S 7852   0.686   3.906   2.538
   85OSM    H6S 7853   0.772   3.976   2.535
   85OSM    H6T 7854   0.735   3.810   2.563
   85OSM    C7S 7855   0.585   3.928   2.655
   85OSM    H7S 7856   0.500   3.857   2.645
   85OSM    H7T 7857   0.548   4.031   2.636
   85OSM    C8S 7858   0.639   3.937   2.798
   85OSM    H8S 7859   0.719   4.013   2.800
   85OSM    H8T 7860   0.705   3.848   2.804
   85OSM    C9S 7861   0.530   3.938   2.903
   85OSM    H9S 7862   0.442   3.874   2.880
   85OSM    H9T 7863   0.489   4.042   2.910
   85OSM   C10S 7864   0.574   3.888   3.042
   85OSM   H10S 7865   0.682   3.908   3.056
   85OSM   H10T 7866   0.569   3.778   3.051
   85OSM   C11S 7867   0.498   3.946   3.158
   85OSM   H11S 7868   0.404   3.887   3.167
   85OSM   H11T 7869   0.484   4.055   3.139
   85OSM   C12S 7870   0.562   3.950   3.299
   85OSM   H12S 7871   0.655   4.010   3.307
   85OSM   H12T 7872   0.589   3.848   3.335
   85OSM   C13S 7873   0.462   4.006   3.399
   85OSM   H13S 7874   0.359   3.965   3.409
   85OSM   H13T 7875   0.449   4.113   3.375
   85OSM   C14S 7876   0.528   3.976   3.542
   85OSM   H14S 7877   0.638   3.991   3.540
   85OSM   H14T 7878   0.521   3.872   3.580
   85OSM   C15S 7879   0.447   4.051   3.651
   85OSM   H15S 7880   0.343   4.014   3.647
   85OSM   H15T 7881   0.422   4.155   3.623
   85OSM   C16S 7882   0.516   4.054   3.789
   85OSM   H16S 7883   0.618   4.096   3.781
   85OSM   H16T 7884   0.522   3.946   3.814
   85OSM   C17S 7885   0.429   4.121   3.896
   85OSM   H17S 7886   0.480   4.104   3.993
   85OSM   H17T 7887   0.337   4.059   3.897
   85OSM   C18S 7888   0.385   4.266   3.866
   85OSM   H18S 7889   0.354   4.310   3.964
   85OSM   H18T 7890   0.318   4.284   3.779
   85OSM   H18U 7891   0.481   4.321   3.856
   85OSM    C1F 7892   0.179   3.790   2.468
   85OSM     OF 7893   0.167   3.680   2.420
   85OSM    C2F 7894   0.119   3.830   2.596
   85OSM    H2F 7895   0.015   3.790   2.602
   85OSM    H2G 7896   0.111   3.941   2.595
   85OSM    C3F 7897   0.206   3.794   2.715
   85OSM    H3F 7898   0.310   3.830   2.701
   85OSM    H3G 7899   0.217   3.683   2.716
   85OSM    C4F 7900   0.152   3.836   2.853
   85OSM    H4F 7901   0.160   3.946   2.851
   85OSM    H4G 7902   0.222   3.801   2.932
   85OSM    C5F 7903   0.004   3.796   2.884
   85OSM    H5F 7904  -0.014   3.693   2.847
   85OSM    H5G 7905  -0.057   3.865   2.821
   85OSM    C6F 7906  -0.022   3.809   3.033
   85OSM    H6F 7907   0.070   3.793   3.093
   85OSM    H6G 7908  -0.100   3.739   3.069
   85OSM    C7F 7909  -0.083   3.952   3.048
   85OSM    H7F 7910  -0.188   3.950   3.012
   85OSM    H7G 7911  -0.037   4.012   2.967
   85OSM    C8F 7912  -0.076   4.012   3.194
   85OSM    H8F 7913   0.027   4.055   3.194
   85OSM    H8G 7914  -0.078   3.927   3.265
   85OSM    C9F 7915  -0.180   4.113   3.234
   85OSM    H9F 7916  -0.161   4.219   3.213
   85OSM   C10F 7917  -0.291   4.086   3.311
   85OSM   H10F 7918  -0.370   4.161   3.326
   85OSM   C11F 7919  -0.337   3.951   3.362
   85OSM   H11F 7920  -0.300   3.862   3.307
   85OSM   H11G 7921  -0.446   3.945   3.344
   85OSM   C12F 7922  -0.308   3.948   3.505
   85OSM   H12F 7923  -0.347   4.031   3.568
   85OSM   H12G 7924  -0.198   3.941   3.525
   85OSM   C13F 7925  -0.370   3.831   3.574
   85OSM   H13F 7926  -0.341   3.731   3.537
   85OSM   H13G 7927  -0.479   3.831   3.551
   85OSM   C14F 7928  -0.363   3.824   3.727
   85OSM   H14F 7929  -0.439   3.891   3.772
   85OSM   H14G 7930  -0.265   3.865   3.761
   85OSM   C15F 7931  -0.386   3.679   3.778
   85OSM   H15F 7932  -0.321   3.615   3.714
   85OSM   H15G 7933  -0.495   3.663   3.759
   85OSM   C16F 7934  -0.342   3.663   3.928
   85OSM   H16F 7935  -0.414   3.721   3.989
   85OSM   H16G 7936  -0.244   3.714   3.941
   85OSM   C17F 7937  -0.342   3.518   3.971
   85OSM   H17F 7938  -0.324   3.514   4.081
   85OSM   H17G 7939  -0.257   3.468   3.919
   85OSM   C18F 7940  -0.466   3.439   3.940
   85OSM   H18F 7941  -0.466   3.407   3.834
   85OSM   H18G 7942  -0.453   3.342   3.992
   85OSM   H18H 7943  -0.559   3.492   3.970
   86OSM      N 7944   1.966   0.156   2.092
   86OSM    C15 7945   1.966   0.084   1.960
   86OSM   H15A 7946   2.040   0.006   1.964
   86OSM   H15B 7947   1.999   0.158   1.889
   86OSM   H15C 7948   1.870   0.050   1.924
   86OSM    C14 7949   2.087   0.242   2.099
   86OSM   H14A 7950   2.079   0.326   2.032
   86OSM   H14B 7951   2.177   0.186   2.076
   86OSM   H14C 7952   2.097   0.293   2.193
   86OSM    C13 7953   1.845   0.243   2.098
   86OSM   H13A 7954   1.850   0.299   2.190
   86OSM   H13B 7955   1.750   0.190   2.093
   86OSM   H13C 7956   1.851   0.303   2.009
   86OSM    C12 7957   1.969   0.070   2.219
   86OSM   H12A 7958   1.975   0.125   2.311
   86OSM   H12B 7959   2.064   0.018   2.222
   86OSM    C11 7960   1.861  -0.035   2.258
   86OSM   H11A 7961   1.766   0.014   2.290
   86OSM   H11B 7962   1.909  -0.076   2.350
   86OSM      P 7963   1.709  -0.170   2.084
   86OSM    O13 7964   1.649  -0.048   2.024
   86OSM    O14 7965   1.733  -0.280   1.986
   86OSM    O11 7966   1.619  -0.231   2.199
   86OSM    O12 7967   1.843  -0.139   2.161
   86OSM    C1S 7968   1.658  -0.329   2.299
   86OSM    H1S 7969   1.764  -0.322   2.331
   86OSM    H1T 7970   1.644  -0.433   2.261
   86OSM     NF 7971   1.615  -0.423   2.529
   86OSM    HNF 7972   1.578  -0.516   2.528
   86OSM    C2S 7973   1.563  -0.335   2.426
   86OSM    H2S 7974   1.565  -0.234   2.472
   86OSM    C3S 7975   1.416  -0.370   2.381
   86OSM    H3S 7976   1.433  -0.473   2.342
   86OSM     O3 7977   1.354  -0.286   2.282
   86OSM    HO3 7978   1.426  -0.273   2.220
   86OSM    C4S 7979   1.324  -0.365   2.503
   86OSM    H4S 7980   1.322  -0.273   2.563
   86OSM    C5S 7981   1.235  -0.461   2.523
   86OSM    H5S 7982   1.237  -0.547   2.454
   86OSM    C6S 7983   1.135  -0.463   2.637
   86OSM    H6S 7984   1.181  -0.509   2.728
   86OSM    H6T 7985   1.040  -0.515   2.614
   86OSM    C7S 7986   1.087  -0.324   2.693
   86OSM    H7S 7987   1.054  -0.265   2.605
   86OSM    H7T 7988   1.179  -0.282   2.738
   86OSM    C8S 7989   0.979  -0.337   2.796
   86OSM    H8S 7990   0.895  -0.399   2.758
   86OSM    H8T 7991   0.935  -0.236   2.811
   86OSM    C9S 7992   1.027  -0.390   2.933
   86OSM    H9S 7993   1.120  -0.337   2.965
   86OSM    H9T 7994   1.062  -0.495   2.922
   86OSM   C10S 7995   0.914  -0.383   3.035
   86OSM   H10S 7996   0.819  -0.422   2.992
   86OSM   H10T 7997   0.892  -0.275   3.043
   86OSM   C11S 7998   0.928  -0.452   3.172
   86OSM   H11S 7999   1.024  -0.419   3.217
   86OSM   H11T 8000   0.952  -0.561   3.170
   86OSM   C12S 8001   0.814  -0.427   3.272
   86OSM   H12S 8002   0.719  -0.473   3.237
   86OSM   H12T 8003   0.795  -0.318   3.272
   86OSM   C13S 8004   0.855  -0.465   3.417
   86OSM   H13S 8005   0.878  -0.574   3.411
   86OSM   H13T 8006   0.773  -0.472   3.492
   86OSM   C14S 8007   0.976  -0.389   3.475
   86OSM   H14S 8008   0.986  -0.283   3.442
   86OSM   H14T 8009   1.067  -0.432   3.427
   86OSM   C15S 8010   0.984  -0.386   3.624
   86OSM   H15S 8011   1.082  -0.373   3.674
   86OSM   H15T 8012   0.948  -0.490   3.644
   86OSM   C16S 8013   0.901  -0.269   3.671
   86OSM   H16S 8014   0.795  -0.285   3.644
   86OSM   H16T 8015   0.924  -0.168   3.631
   86OSM   C17S 8016   0.907  -0.260   3.828
   86OSM   H17S 8017   0.842  -0.176   3.860
   86OSM   H17T 8018   1.015  -0.250   3.850
   86OSM   C18S 8019   0.869  -0.391   3.903
   86OSM   H18S 8020   0.774  -0.435   3.867
   86OSM   H18T 8021   0.864  -0.371   4.012
   86OSM   H18U 8022   0.948  -0.466   3.880
   86OSM    C1F 8023   1.726  -0.395   2.601
   86OSM     OF 8024   1.766  -0.282   2.600
   86OSM    C2F 8025   1.788  -0.502   2.689
   86OSM    H2F 8026   1.886  -0.536   2.648
   86OSM    H2G 8027   1.723  -0.590   2.677
   86OSM    C3F 8028   1.797  -0.462   2.836
   86OSM    H3F 8029   1.854  -0.366   2.840
   86OSM    H3G 8030   1.850  -0.545   2.886
   86OSM    C4F 8031   1.653  -0.457   2.900
   86OSM    H4F 8032   1.599  -0.553   2.887
   86OSM    H4G 8033   1.584  -0.389   2.845
   86OSM    C5F 8034   1.668  -0.414   3.044
   86OSM    H5F 8035   1.718  -0.315   3.038
   86OSM    H5G 8036   1.733  -0.485   3.098
   86OSM    C6F 8037   1.539  -0.380   3.125
   86OSM    H6F 8038   1.474  -0.346   3.042
   86OSM    H6G 8039   1.562  -0.295   3.193
   86OSM    C7F 8040   1.481  -0.505   3.208
   86OSM    H7F 8041   1.557  -0.533   3.285
   86OSM    H7G 8042   1.494  -0.596   3.146
   86OSM    C8F 8043   1.348  -0.477   3.265
   86OSM    H8F 8044   1.305  -0.579   3.269
   86OSM    H8G 8045   1.277  -0.436   3.190
   86OSM    C9F 8046   1.345  -0.407   3.401
   86OSM    H9F 8047   1.327  -0.299   3.403
   86OSM   C10F 8048   1.344  -0.469   3.522
   86OSM   H10F 8049   1.330  -0.410   3.614
   86OSM   C11F 8050   1.330  -0.618   3.542
   86OSM   H11F 8051   1.433  -0.657   3.560
   86OSM   H11G 8052   1.288  -0.667   3.452
   86OSM   C12F 8053   1.245  -0.663   3.667
   86OSM   H12F 8054   1.251  -0.774   3.671
   86OSM   H12G 8055   1.138  -0.633   3.655
   86OSM   C13F 8056   1.309  -0.613   3.796
   86OSM   H13F 8057   1.346  -0.509   3.784
   86OSM   H13G 8058   1.399  -0.674   3.819
   86OSM   C14F 8059   1.214  -0.618   3.917
   86OSM   H14F 8060   1.215  -0.723   3.955
   86OSM   H14G 8061   1.115  -0.589   3.876
   86OSM   C15F 8062   1.259  -0.533   4.029
   86OSM   H15F 8063   1.305  -0.436   4.000
   86OSM   H15G 8064   1.337  -0.596   4.076
   86OSM   C16F 8065   1.151  -0.501   4.138
   86OSM   H16F 8066   1.079  -0.435   4.084
   86OSM   H16G 8067   1.211  -0.449   4.216
   86OSM   C17F 8068   1.076  -0.620   4.207
   86OSM   H17F 8069   1.033  -0.685   4.128
   86OSM   H17G 8070   0.984  -0.576   4.253
   86OSM   C18F 8071   1.160  -0.698   4.305
   86OSM   H18F 8072   1.188  -0.643   4.397
   86OSM   H18G 8073   1.247  -0.730   4.244
   86OSM   H18H 8074   1.109  -0.788   4.345
   87OSM      N 8075   4.528   3.793   2.343
   87OSM    C15 8076   4.596   3.662   2.326
   87OSM   H15A 8077   4.535   3.592   2.382
   87OSM   H15B 8078   4.697   3.666   2.363
   87OSM   H15C 8079   4.618   3.632   2.225
   87OSM    C14 8080   4.538   3.837   2.488
   87OSM   H14A 8081   4.642   3.853   2.510
   87OSM   H14B 8082   4.486   3.767   2.552
   87OSM   H14C 8083   4.487   3.930   2.506
   87OSM    C13 8084   4.599   3.894   2.255
   87OSM   H13A 8085   4.563   3.994   2.274
   87OSM   H13B 8086   4.600   3.865   2.151
   87OSM   H13C 8087   4.704   3.896   2.278
   87OSM    C12 8088   4.381   3.776   2.285
   87OSM   H12A 8089   4.395   3.738   2.185
   87OSM   H12B 8090   4.326   3.867   2.271
   87OSM    C11 8091   4.285   3.686   2.357
   87OSM   H11A 8092   4.176   3.687   2.338
   87OSM   H11B 8093   4.293   3.706   2.466
   87OSM      P 8094   4.276   3.459   2.220
   87OSM    O13 8095   4.180   3.530   2.137
   87OSM    O14 8096   4.381   3.375   2.151
   87OSM    O11 8097   4.194   3.355   2.306
   87OSM    O12 8098   4.331   3.558   2.324
   87OSM    C1S 8099   4.248   3.259   2.397
   87OSM    H1S 8100   4.345   3.219   2.362
   87OSM    H1T 8101   4.171   3.179   2.407
   87OSM     NF 8102   4.362   3.225   2.614
   87OSM    HNF 8103   4.321   3.199   2.701
   87OSM    C2S 8104   4.289   3.321   2.537
   87OSM    H2S 8105   4.352   3.412   2.522
   87OSM    C3S 8106   4.156   3.379   2.603
   87OSM    H3S 8107   4.085   3.295   2.619
   87OSM     O3 8108   4.072   3.470   2.517
   87OSM    HO3 8109   4.093   3.441   2.428
   87OSM    C4S 8110   4.191   3.441   2.737
   87OSM    H4S 8111   4.114   3.405   2.807
   87OSM    C5S 8112   4.286   3.532   2.769
   87OSM    H5S 8113   4.350   3.563   2.685
   87OSM    C6S 8114   4.305   3.587   2.908
   87OSM    H6S 8115   4.284   3.696   2.905
   87OSM    H6T 8116   4.415   3.584   2.927
   87OSM    C7S 8117   4.215   3.525   3.017
   87OSM    H7S 8118   4.234   3.418   3.038
   87OSM    H7T 8119   4.108   3.536   2.988
   87OSM    C8S 8120   4.240   3.594   3.151
   87OSM    H8S 8121   4.169   3.679   3.156
   87OSM    H8T 8122   4.343   3.636   3.154
   87OSM    C9S 8123   4.230   3.505   3.281
   87OSM    H9S 8124   4.233   3.570   3.371
   87OSM    H9T 8125   4.312   3.429   3.276
   87OSM   C10S 8126   4.105   3.420   3.295
   87OSM   H10S 8127   4.116   3.338   3.221
   87OSM   H10T 8128   4.011   3.477   3.276
   87OSM   C11S 8129   4.070   3.369   3.436
   87OSM   H11S 8130   3.967   3.329   3.452
   87OSM   H11T 8131   4.096   3.447   3.511
   87OSM   C12S 8132   4.153   3.241   3.464
   87OSM   H12S 8133   4.259   3.272   3.472
   87OSM   H12T 8134   4.142   3.167   3.382
   87OSM   C13S 8135   4.124   3.176   3.596
   87OSM   H13S 8136   4.018   3.142   3.598
   87OSM   H13T 8137   4.142   3.247   3.679
   87OSM   C14S 8138   4.197   3.052   3.635
   87OSM   H14S 8139   4.185   2.975   3.555
   87OSM   H14T 8140   4.305   3.072   3.648
   87OSM   C15S 8141   4.128   2.995   3.762
   87OSM   H15S 8142   4.034   2.943   3.733
   87OSM   H15T 8143   4.109   3.067   3.845
   87OSM   C16S 8144   4.218   2.890   3.825
   87OSM   H16S 8145   4.313   2.938   3.855
   87OSM   H16T 8146   4.239   2.810   3.750
   87OSM   C17S 8147   4.147   2.824   3.946
   87OSM   H17S 8148   4.141   2.899   4.028
   87OSM   H17T 8149   4.217   2.753   3.996
   87OSM   C18S 8150   4.011   2.750   3.925
   87OSM   H18S 8151   4.027   2.674   3.845
   87OSM   H18T 8152   3.929   2.822   3.904
   87OSM   H18U 8153   3.977   2.695   4.015
   87OSM    C1F 8154   4.479   3.175   2.581
   87OSM     OF 8155   4.550   3.229   2.497
   87OSM    C2F 8156   4.520   3.039   2.640
   87OSM    H2F 8157   4.468   2.958   2.585
   87OSM    H2G 8158   4.498   3.046   2.748
   87OSM    C3F 8159   4.675   3.011   2.626
   87OSM    H3F 8160   4.726   3.102   2.663
   87OSM    H3G 8161   4.696   3.014   2.517
   87OSM    C4F 8162   4.724   2.884   2.701
   87OSM    H4F 8163   4.824   2.850   2.666
   87OSM    H4G 8164   4.653   2.801   2.680
   87OSM    C5F 8165   4.743   2.892   2.852
   87OSM    H5F 8166   4.648   2.937   2.888
   87OSM    H5G 8167   4.823   2.965   2.876
   87OSM    C6F 8168   4.759   2.764   2.932
   87OSM    H6F 8169   4.841   2.714   2.877
   87OSM    H6G 8170   4.668   2.702   2.914
   87OSM    C7F 8171   4.778   2.793   3.080
   87OSM    H7F 8172   4.687   2.848   3.112
   87OSM    H7G 8173   4.866   2.859   3.086
   87OSM    C8F 8174   4.799   2.682   3.181
   87OSM    H8F 8175   4.709   2.618   3.164
   87OSM    H8G 8176   4.805   2.708   3.289
   87OSM    C9F 8177   4.918   2.600   3.139
   87OSM    H9F 8178   4.931   2.579   3.032
   87OSM   C10F 8179   5.013   2.562   3.220
   87OSM   H10F 8180   5.087   2.494   3.175
   87OSM   C11F 8181   5.017   2.578   3.375
   87OSM   H11F 8182   5.038   2.479   3.421
   87OSM   H11G 8183   4.923   2.610   3.426
   87OSM   C12F 8184   5.115   2.688   3.414
   87OSM   H12F 8185   5.062   2.778   3.379
   87OSM   H12G 8186   5.210   2.688   3.356
   87OSM   C13F 8187   5.149   2.719   3.568
   87OSM   H13F 8188   5.209   2.813   3.567
   87OSM   H13G 8189   5.214   2.635   3.604
   87OSM   C14F 8190   5.035   2.728   3.669
   87OSM   H14F 8191   5.084   2.755   3.765
   87OSM   H14G 8192   4.999   2.624   3.686
   87OSM   C15F 8193   4.935   2.824   3.627
   87OSM   H15F 8194   4.895   2.801   3.526
   87OSM   H15G 8195   4.970   2.926   3.600
   87OSM   C16F 8196   4.822   2.828   3.730
   87OSM   H16F 8197   4.878   2.850   3.823
   87OSM   H16G 8198   4.782   2.726   3.747
   87OSM   C17F 8199   4.721   2.945   3.698
   87OSM   H17F 8200   4.786   3.035   3.685
   87OSM   H17G 8201   4.657   2.945   3.788
   87OSM   C18F 8202   4.627   2.917   3.571
   87OSM   H18F 8203   4.558   2.831   3.584
   87OSM   H18G 8204   4.684   2.908   3.476
   87OSM   H18H 8205   4.561   3.006   3.570
   88OSM      N 8206   5.164   1.098   1.950
   88OSM    C15 8207   5.175   1.187   1.837
   88OSM   H15A 8208   5.173   1.287   1.879
   88OSM   H15B 8209   5.098   1.174   1.763
   88OSM   H15C 8210   5.271   1.171   1.790
   88OSM    C14 8211   5.125   0.966   1.902
   88OSM   H14A 8212   5.137   0.893   1.981
   88OSM   H14B 8213   5.180   0.927   1.817
   88OSM   H14C 8214   5.022   0.949   1.877
   88OSM    C13 8215   5.301   1.082   2.017
   88OSM   H13A 8216   5.384   1.067   1.950
   88OSM   H13B 8217   5.306   1.016   2.103
   88OSM   H13C 8218   5.317   1.183   2.052
   88OSM    C12 8219   5.058   1.141   2.044
   88OSM   H12A 8220   5.052   1.069   2.125
   88OSM   H12B 8221   4.965   1.139   1.988
   88OSM    C11 8222   5.054   1.286   2.096
   88OSM   H11A 8223   5.154   1.315   2.135
   88OSM   H11B 8224   4.983   1.289   2.181
   88OSM      P 8225   4.903   1.469   1.988
   88OSM    O13 8226   4.906   1.552   1.868
   88OSM    O14 8227   4.780   1.380   1.996
   88OSM    O11 8228   4.914   1.569   2.111
   88OSM    O12 8229   5.034   1.382   1.993
   88OSM    C1S 8230   5.037   1.623   2.173
   88OSM    H1S 8231   5.079   1.704   2.109
   88OSM    H1T 8232   5.114   1.543   2.177
   88OSM     NF 8233   5.116   1.746   2.376
   88OSM    HNF 8234   5.172   1.712   2.451
   88OSM    C2S 8235   4.999   1.682   2.315
   88OSM    H2S 8236   4.912   1.746   2.290
   88OSM    C3S 8237   4.944   1.564   2.411
   88OSM    H3S 8238   5.025   1.496   2.443
   88OSM     O3 8239   4.834   1.488   2.354
   88OSM    HO3 8240   4.827   1.509   2.261
   88OSM    C4S 8241   4.903   1.622   2.545
   88OSM    H4S 8242   4.982   1.618   2.621
   88OSM    C5S 8243   4.781   1.654   2.576
   88OSM    H5S 8244   4.699   1.631   2.507
   88OSM    C6S 8245   4.727   1.701   2.710
   88OSM    H6S 8246   4.703   1.810   2.715
   88OSM    H6T 8247   4.809   1.683   2.783
   88OSM    C7S 8248   4.609   1.615   2.752
   88OSM    H7S 8249   4.636   1.508   2.764
   88OSM    H7T 8250   4.537   1.621   2.669
   88OSM    C8S 8251   4.533   1.671   2.873
   88OSM    H8S 8252   4.439   1.612   2.874
   88OSM    H8T 8253   4.501   1.775   2.856
   88OSM    C9S 8254   4.619   1.683   3.006
   88OSM    H9S 8255   4.701   1.757   2.995
   88OSM    H9T 8256   4.669   1.586   3.026
   88OSM   C10S 8257   4.535   1.718   3.133
   88OSM   H10S 8258   4.434   1.672   3.134
   88OSM   H10T 8259   4.546   1.828   3.151
   88OSM   C11S 8260   4.598   1.642   3.249
   88OSM   H11S 8261   4.700   1.682   3.266
   88OSM   H11T 8262   4.600   1.537   3.213
   88OSM   C12S 8263   4.517   1.654   3.381
   88OSM   H12S 8264   4.423   1.595   3.376
   88OSM   H12T 8265   4.485   1.760   3.389
   88OSM   C13S 8266   4.599   1.620   3.508
   88OSM   H13S 8267   4.660   1.528   3.495
   88OSM   H13T 8268   4.524   1.600   3.587
   88OSM   C14S 8269   4.684   1.742   3.547
   88OSM   H14S 8270   4.608   1.823   3.542
   88OSM   H14T 8271   4.764   1.772   3.475
   88OSM   C15S 8272   4.747   1.723   3.683
   88OSM   H15S 8273   4.826   1.647   3.666
   88OSM   H15T 8274   4.681   1.687   3.766
   88OSM   C16S 8275   4.814   1.849   3.735
   88OSM   H16S 8276   4.741   1.932   3.725
   88OSM   H16T 8277   4.901   1.865   3.667
   88OSM   C17S 8278   4.861   1.828   3.882
   88OSM   H17S 8279   4.775   1.784   3.938
   88OSM   H17T 8280   4.858   1.933   3.917
   88OSM   C18S 8281   5.001   1.772   3.898
   88OSM   H18S 8282   5.074   1.839   3.849
   88OSM   H18T 8283   5.022   1.676   3.845
   88OSM   H18U 8284   5.020   1.754   4.006
   88OSM    C1F 8285   5.158   1.858   2.321
   88OSM     OF 8286   5.095   1.915   2.230
   88OSM    C2F 8287   5.296   1.909   2.368
   88OSM    H2F 8288   5.328   1.972   2.283
   88OSM    H2G 8289   5.372   1.829   2.381
   88OSM    C3F 8290   5.290   2.009   2.488
   88OSM    H3F 8291   5.206   2.081   2.477
   88OSM    H3G 8292   5.385   2.065   2.502
   88OSM    C4F 8293   5.261   1.933   2.618
   88OSM    H4F 8294   5.318   1.839   2.635
   88OSM    H4G 8295   5.155   1.900   2.605
   88OSM    C5F 8296   5.265   2.024   2.744
   88OSM    H5F 8297   5.197   2.111   2.739
   88OSM    H5G 8298   5.367   2.064   2.758
   88OSM    C6F 8299   5.229   1.955   2.880
   88OSM    H6F 8300   5.246   2.034   2.956
   88OSM    H6G 8301   5.304   1.874   2.896
   88OSM    C7F 8302   5.086   1.901   2.886
   88OSM    H7F 8303   5.082   1.807   2.827
   88OSM    H7G 8304   5.011   1.967   2.836
   88OSM    C8F 8305   5.039   1.883   3.035
   88OSM    H8F 8306   5.120   1.841   3.098
   88OSM    H8G 8307   4.969   1.797   3.039
   88OSM    C9F 8308   4.974   2.002   3.103
   88OSM    H9F 8309   4.873   2.031   3.072
   88OSM   C10F 8310   5.018   2.076   3.209
   88OSM   H10F 8311   4.966   2.167   3.243
   88OSM   C11F 8312   5.147   2.048   3.280
   88OSM   H11F 8313   5.229   2.122   3.266
   88OSM   H11G 8314   5.192   1.950   3.255
   88OSM   C12F 8315   5.120   2.046   3.429
   88OSM   H12F 8316   5.203   1.992   3.480
   88OSM   H12G 8317   5.030   1.985   3.449
   88OSM   C13F 8318   5.115   2.186   3.496
   88OSM   H13F 8319   5.012   2.226   3.484
   88OSM   H13G 8320   5.173   2.261   3.438
   88OSM   C14F 8321   5.149   2.185   3.646
   88OSM   H14F 8322   5.257   2.160   3.658
   88OSM   H14G 8323   5.095   2.101   3.697
   88OSM   C15F 8324   5.126   2.322   3.708
   88OSM   H15F 8325   5.018   2.347   3.706
   88OSM   H15G 8326   5.186   2.400   3.657
   88OSM   C16F 8327   5.165   2.318   3.855
   88OSM   H16F 8328   5.270   2.288   3.875
   88OSM   H16G 8329   5.103   2.244   3.908
   88OSM   C17F 8330   5.139   2.446   3.930
   88OSM   H17F 8331   5.032   2.469   3.949
   88OSM   H17G 8332   5.178   2.531   3.870
   88OSM   C18F 8333   5.204   2.432   4.072
   88OSM   H18F 8334   5.178   2.528   4.121
   88OSM   H18G 8335   5.312   2.443   4.051
   88OSM   H18H 8336   5.182   2.343   4.134
   89OSM      N 8337   5.914   4.619   1.743
   89OSM    C15 8338   5.826   4.736   1.786
   89OSM   H15A 8339   5.767   4.769   1.702
   89OSM   H15B 8340   5.886   4.819   1.820
   89OSM   H15C 8341   5.762   4.712   1.869
   89OSM    C14 8342   5.822   4.520   1.671
   89OSM   H14A 8343   5.773   4.576   1.592
   89OSM   H14B 8344   5.746   4.470   1.729
   89OSM   H14C 8345   5.872   4.444   1.613
   89OSM    C13 8346   6.026   4.668   1.646
   89OSM   H13A 8347   6.098   4.588   1.632
   89OSM   H13B 8348   6.079   4.754   1.684
   89OSM   H13C 8349   5.986   4.701   1.551
   89OSM    C12 8350   5.970   4.544   1.861
   89OSM   H12A 8351   5.888   4.507   1.921
   89OSM   H12B 8352   6.031   4.614   1.915
   89OSM    C11 8353   6.063   4.424   1.819
   89OSM   H11A 8354   6.025   4.370   1.730
   89OSM   H11B 8355   6.069   4.356   1.907
   89OSM      P 8356   6.315   4.479   1.877
   89OSM    O13 8357   6.338   4.348   1.945
   89OSM    O14 8358   6.432   4.528   1.801
   89OSM    O11 8359   6.275   4.588   1.981
   89OSM    O12 8360   6.193   4.464   1.776
   89OSM    C1S 8361   6.232   4.540   2.114
   89OSM    H1S 8362   6.307   4.479   2.169
   89OSM    H1T 8363   6.134   4.487   2.114
   89OSM     NF 8364   6.147   4.638   2.330
   89OSM    HNF 8365   6.059   4.675   2.357
   89OSM    C2S 8366   6.205   4.674   2.205
   89OSM    H2S 8367   6.303   4.717   2.234
   89OSM    C3S 8368   6.122   4.781   2.128
   89OSM    H3S 8369   6.036   4.727   2.083
   89OSM     O3 8370   6.183   4.830   2.007
   89OSM    HO3 8371   6.229   4.750   1.980
   89OSM    C4S 8372   6.078   4.894   2.222
   89OSM    H4S 8373   5.969   4.903   2.225
   89OSM    C5S 8374   6.157   4.987   2.279
   89OSM    H5S 8375   6.261   4.998   2.245
   89OSM    C6S 8376   6.119   5.101   2.367
   89OSM    H6S 8377   6.077   5.182   2.305
   89OSM    H6T 8378   6.205   5.136   2.428
   89OSM    C7S 8379   6.007   5.053   2.471
   89OSM    H7S 8380   6.062   4.996   2.548
   89OSM    H7T 8381   5.932   4.982   2.432
   89OSM    C8S 8382   5.932   5.178   2.538
   89OSM    H8S 8383   5.870   5.150   2.626
   89OSM    H8T 8384   5.864   5.211   2.457
   89OSM    C9S 8385   6.021   5.287   2.586
   89OSM    H9S 8386   6.045   5.358   2.504
   89OSM    H9T 8387   6.127   5.261   2.606
   89OSM   C10S 8388   5.964   5.364   2.714
   89OSM   H10S 8389   5.855   5.377   2.695
   89OSM   H10T 8390   5.997   5.469   2.699
   89OSM   C11S 8391   5.991   5.292   2.847
   89OSM   H11S 8392   6.091   5.248   2.866
   89OSM   H11T 8393   5.928   5.201   2.851
   89OSM   C12S 8394   5.958   5.390   2.959
   89OSM   H12S 8395   5.853   5.423   2.947
   89OSM   H12T 8396   6.021   5.481   2.965
   89OSM   C13S 8397   5.958   5.335   3.102
   89OSM   H13S 8398   6.060   5.312   3.138
   89OSM   H13T 8399   5.894   5.244   3.108
   89OSM   C14S 8400   5.892   5.443   3.194
   89OSM   H14S 8401   5.806   5.487   3.139
   89OSM   H14T 8402   5.956   5.533   3.208
   89OSM   C15S 8403   5.840   5.385   3.327
   89OSM   H15S 8404   5.785   5.292   3.300
   89OSM   H15T 8405   5.777   5.466   3.369
   89OSM   C16S 8406   5.953   5.348   3.417
   89OSM   H16S 8407   6.019   5.437   3.408
   89OSM   H16T 8408   6.002   5.254   3.380
   89OSM   C17S 8409   5.922   5.339   3.571
   89OSM   H17S 8410   5.855   5.252   3.584
   89OSM   H17T 8411   5.861   5.430   3.588
   89OSM   C18S 8412   6.040   5.341   3.666
   89OSM   H18S 8413   6.093   5.244   3.667
   89OSM   H18T 8414   5.991   5.350   3.766
   89OSM   H18U 8415   6.104   5.431   3.657
   89OSM    C1F 8416   6.206   4.557   2.420
   89OSM     OF 8417   6.308   4.494   2.392
   89OSM    C2F 8418   6.137   4.543   2.549
   89OSM    H2F 8419   6.140   4.438   2.586
   89OSM    H2G 8420   6.027   4.559   2.539
   89OSM    C3F 8421   6.190   4.648   2.651
   89OSM    H3F 8422   6.204   4.747   2.603
   89OSM    H3G 8423   6.291   4.612   2.680
   89OSM    C4F 8424   6.092   4.659   2.770
   89OSM    H4F 8425   6.068   4.563   2.820
   89OSM    H4G 8426   5.989   4.693   2.747
   89OSM    C5F 8427   6.152   4.732   2.889
   89OSM    H5F 8428   6.192   4.830   2.854
   89OSM    H5G 8429   6.232   4.672   2.937
   89OSM    C6F 8430   6.051   4.770   2.992
   89OSM    H6F 8431   6.085   4.846   3.066
   89OSM    H6G 8432   6.011   4.684   3.050
   89OSM    C7F 8433   5.941   4.855   2.932
   89OSM    H7F 8434   5.865   4.783   2.893
   89OSM    H7G 8435   5.976   4.907   2.840
   89OSM    C8F 8436   5.889   4.965   3.027
   89OSM    H8F 8437   5.816   5.029   2.973
   89OSM    H8G 8438   5.973   5.031   3.054
   89OSM    C9F 8439   5.799   4.904   3.137
   89OSM    H9F 8440   5.697   4.882   3.101
   89OSM   C10F 8441   5.832   4.871   3.259
   89OSM   H10F 8442   5.760   4.814   3.319
   89OSM   C11F 8443   5.971   4.882   3.318
   89OSM   H11F 8444   6.019   4.972   3.274
   89OSM   H11G 8445   6.028   4.791   3.291
   89OSM   C12F 8446   5.982   4.908   3.470
   89OSM   H12F 8447   5.966   5.018   3.478
   89OSM   H12G 8448   6.087   4.903   3.506
   89OSM   C13F 8449   5.898   4.820   3.568
   89OSM   H13F 8450   5.931   4.714   3.559
   89OSM   H13G 8451   5.789   4.829   3.549
   89OSM   C14F 8452   5.917   4.858   3.711
   89OSM   H14F 8453   5.868   4.957   3.723
   89OSM   H14G 8454   6.024   4.883   3.729
   89OSM   C15F 8455   5.864   4.750   3.799
   89OSM   H15F 8456   5.935   4.664   3.803
   89OSM   H15G 8457   5.772   4.705   3.756
   89OSM   C16F 8458   5.833   4.797   3.941
   89OSM   H16F 8459   5.754   4.875   3.934
   89OSM   H16G 8460   5.913   4.860   3.986
   89OSM   C17F 8461   5.779   4.691   4.035
   89OSM   H17F 8462   5.860   4.614   4.041
   89OSM   H17G 8463   5.686   4.648   3.993
   89OSM   C18F 8464   5.745   4.751   4.178
   89OSM   H18F 8465   5.697   4.670   4.237
   89OSM   H18G 8466   5.676   4.837   4.162
   89OSM   H18H 8467   5.841   4.784   4.225
   90OSM      N 8468   5.124   5.842   2.077
   90OSM    C15 8469   5.077   5.743   2.185
   90OSM   H15A 8470   5.137   5.738   2.275
   90OSM   H15B 8471   5.093   5.646   2.140
   90OSM   H15C 8472   4.970   5.744   2.195
   90OSM    C14 8473   5.045   5.837   1.947
   90OSM   H14A 8474   5.040   5.734   1.914
   90OSM   H14B 8475   5.093   5.896   1.870
   90OSM   H14C 8476   4.948   5.880   1.967
   90OSM    C13 8477   5.106   5.977   2.141
   90OSM   H13A 8478   5.001   5.998   2.155
   90OSM   H13B 8479   5.147   6.051   2.074
   90OSM   H13C 8480   5.151   5.973   2.240
   90OSM    C12 8481   5.270   5.812   2.043
   90OSM   H12A 8482   5.346   5.833   2.116
   90OSM   H12B 8483   5.296   5.891   1.973
   90OSM    C11 8484   5.293   5.672   1.977
   90OSM   H11A 8485   5.387   5.680   1.919
   90OSM   H11B 8486   5.211   5.646   1.907
   90OSM      P 8487   5.417   5.554   2.178
   90OSM    O13 8488   5.493   5.430   2.155
   90OSM    O14 8489   5.485   5.685   2.195
   90OSM    O11 8490   5.340   5.542   2.314
   90OSM    O12 8491   5.300   5.563   2.069
   90OSM    C1S 8492   5.272   5.424   2.346
   90OSM    H1S 8493   5.337   5.335   2.336
   90OSM    H1T 8494   5.190   5.407   2.274
   90OSM     NF 8495   5.113   5.319   2.503
   90OSM    HNF 8496   5.020   5.338   2.472
   90OSM    C2S 8497   5.212   5.424   2.493
   90OSM    H2S 8498   5.294   5.395   2.563
   90OSM    C3S 8499   5.144   5.557   2.537
   90OSM    H3S 8500   5.054   5.564   2.472
   90OSM     O3 8501   5.213   5.673   2.507
   90OSM    HO3 8502   5.276   5.642   2.441
   90OSM    C4S 8503   5.094   5.544   2.677
   90OSM    H4S 8504   4.995   5.496   2.671
   90OSM    C5S 8505   5.153   5.577   2.796
   90OSM    H5S 8506   5.245   5.636   2.787
   90OSM    C6S 8507   5.121   5.551   2.942
   90OSM    H6S 8508   5.054   5.634   2.974
   90OSM    H6T 8509   5.215   5.566   3.000
   90OSM    C7S 8510   5.060   5.417   2.986
   90OSM    H7S 8511   5.109   5.327   2.944
   90OSM    H7T 8512   4.954   5.419   2.954
   90OSM    C8S 8513   5.052   5.398   3.140
   90OSM    H8S 8514   5.015   5.492   3.188
   90OSM    H8T 8515   5.155   5.394   3.180
   90OSM    C9S 8516   4.960   5.281   3.171
   90OSM    H9S 8517   5.002   5.196   3.113
   90OSM    H9T 8518   4.859   5.308   3.133
   90OSM   C10S 8519   4.940   5.257   3.322
   90OSM   H10S 8520   4.865   5.176   3.337
   90OSM   H10T 8521   4.914   5.356   3.365
   90OSM   C11S 8522   5.073   5.207   3.379
   90OSM   H11S 8523   5.161   5.262   3.339
   90OSM   H11T 8524   5.104   5.106   3.346
   90OSM   C12S 8525   5.073   5.201   3.536
   90OSM   H12S 8526   5.176   5.177   3.570
   90OSM   H12T 8527   5.007   5.114   3.557
   90OSM   C13S 8528   5.001   5.322   3.605
   90OSM   H13S 8529   4.890   5.323   3.601
   90OSM   H13T 8530   5.028   5.410   3.544
   90OSM   C14S 8531   5.040   5.349   3.749
   90OSM   H14S 8532   5.150   5.366   3.751
   90OSM   H14T 8533   5.021   5.261   3.815
   90OSM   C15S 8534   4.973   5.482   3.797
   90OSM   H15S 8535   4.865   5.475   3.771
   90OSM   H15T 8536   5.019   5.562   3.735
   90OSM   C16S 8537   4.987   5.502   3.948
   90OSM   H16S 8538   4.924   5.428   4.001
   90OSM   H16T 8539   4.944   5.604   3.962
   90OSM   C17S 8540   5.132   5.490   3.999
   90OSM   H17S 8541   5.191   5.555   3.931
   90OSM   H17T 8542   5.172   5.387   3.984
   90OSM   C18S 8543   5.154   5.517   4.147
   90OSM   H18S 8544   5.263   5.530   4.163
   90OSM   H18T 8545   5.127   5.426   4.205
   90OSM   H18U 8546   5.106   5.610   4.183
   90OSM    C1F 8547   5.151   5.186   2.520
   90OSM     OF 8548   5.268   5.157   2.521
   90OSM    C2F 8549   5.042   5.082   2.524
   90OSM    H2F 8550   4.977   5.104   2.436
   90OSM    H2G 8551   4.967   5.099   2.604
   90OSM    C3F 8552   5.099   4.944   2.498
   90OSM    H3F 8553   5.175   4.945   2.417
   90OSM    H3G 8554   5.006   4.893   2.467
   90OSM    C4F 8555   5.149   4.871   2.618
   90OSM    H4F 8556   5.223   4.943   2.659
   90OSM    H4G 8557   5.192   4.773   2.588
   90OSM    C5F 8558   5.041   4.851   2.724
   90OSM    H5F 8559   4.950   4.804   2.680
   90OSM    H5G 8560   5.012   4.949   2.767
   90OSM    C6F 8561   5.084   4.752   2.834
   90OSM    H6F 8562   5.186   4.779   2.870
   90OSM    H6G 8563   5.101   4.660   2.775
   90OSM    C7F 8564   4.968   4.748   2.934
   90OSM    H7F 8565   4.972   4.661   3.003
   90OSM    H7G 8566   4.877   4.729   2.873
   90OSM    C8F 8567   4.950   4.880   3.023
   90OSM    H8F 8568   4.970   4.971   2.963
   90OSM    H8G 8569   5.036   4.871   3.093
   90OSM    C9F 8570   4.812   4.893   3.089
   90OSM    H9F 8571   4.730   4.940   3.032
   90OSM   C10F 8572   4.774   4.843   3.213
   90OSM   H10F 8573   4.665   4.851   3.231
   90OSM   C11F 8574   4.855   4.772   3.321
   90OSM   H11F 8575   4.963   4.775   3.295
   90OSM   H11G 8576   4.818   4.668   3.335
   90OSM   C12F 8577   4.830   4.847   3.454
   90OSM   H12F 8578   4.725   4.871   3.481
   90OSM   H12G 8579   4.882   4.945   3.444
   90OSM   C13F 8580   4.885   4.771   3.572
   90OSM   H13F 8581   4.995   4.760   3.558
   90OSM   H13G 8582   4.839   4.670   3.565
   90OSM   C14F 8583   4.851   4.841   3.706
   90OSM   H14F 8584   4.740   4.844   3.713
   90OSM   H14G 8585   4.884   4.947   3.710
   90OSM   C15F 8586   4.908   4.770   3.831
   90OSM   H15F 8587   4.851   4.798   3.923
   90OSM   H15G 8588   5.014   4.796   3.850
   90OSM   C16F 8589   4.896   4.614   3.837
   90OSM   H16F 8590   4.954   4.575   3.750
   90OSM   H16G 8591   4.792   4.575   3.841
   90OSM   C17F 8592   4.968   4.558   3.955
   90OSM   H17F 8593   4.923   4.607   4.044
   90OSM   H17G 8594   5.077   4.583   3.955
   90OSM   C18F 8595   4.943   4.406   3.983
   90OSM   H18F 8596   5.020   4.371   4.056
   90OSM   H18G 8597   4.943   4.346   3.890
   90OSM   H18H 8598   4.844   4.379   4.024
   91OSM      N 8599   0.174   4.602   1.881
   91OSM    C15 8600   0.276   4.701   1.917
   91OSM   H15A 8601   0.332   4.727   1.828
   91OSM   H15B 8602   0.336   4.653   1.992
   91OSM   H15C 8603   0.241   4.795   1.958
   91OSM    C14 8604   0.072   4.676   1.799
   91OSM   H14A 8605   0.107   4.716   1.705
   91OSM   H14B 8606   0.025   4.761   1.845
   91OSM   H14C 8607  -0.007   4.609   1.766
   91OSM    C13 8608   0.230   4.491   1.799
   91OSM   H13A 8609   0.271   4.410   1.858
   91OSM   H13B 8610   0.300   4.532   1.727
   91OSM   H13C 8611   0.141   4.446   1.757
   91OSM    C12 8612   0.115   4.547   2.005
   91OSM   H12A 8613   0.072   4.618   2.074
   91OSM   H12B 8614   0.199   4.502   2.056
   91OSM    C11 8615  -0.005   4.442   1.994
   91OSM   H11A 8616  -0.080   4.484   1.924
   91OSM   H11B 8617  -0.041   4.428   2.098
   91OSM      P 8618   0.116   4.213   2.016
   91OSM    O13 8619   0.020   4.136   2.089
   91OSM    O14 8620   0.201   4.153   1.911
   91OSM    O11 8621   0.207   4.307   2.110
   91OSM    O12 8622   0.029   4.318   1.939
   91OSM    C1S 8623   0.197   4.306   2.256
   91OSM    H1S 8624   0.198   4.201   2.291
   91OSM    H1T 8625   0.099   4.341   2.294
   91OSM     NF 8626   0.309   4.378   2.470
   91OSM    HNF 8627   0.300   4.473   2.500
   91OSM    C2S 8628   0.322   4.370   2.325
   91OSM    H2S 8629   0.411   4.306   2.306
   91OSM    C3S 8630   0.359   4.504   2.251
   91OSM    H3S 8631   0.278   4.579   2.263
   91OSM     O3 8632   0.395   4.485   2.116
   91OSM    HO3 8633   0.392   4.391   2.098
   91OSM    C4S 8634   0.476   4.552   2.323
   91OSM    H4S 8635   0.565   4.488   2.314
   91OSM    C5S 8636   0.490   4.669   2.387
   91OSM    H5S 8637   0.413   4.748   2.380
   91OSM    C6S 8638   0.618   4.711   2.449
   91OSM    H6S 8639   0.641   4.806   2.395
   91OSM    H6T 8640   0.697   4.636   2.429
   91OSM    C7S 8641   0.621   4.742   2.596
   91OSM    H7S 8642   0.611   4.640   2.638
   91OSM    H7T 8643   0.544   4.818   2.626
   91OSM    C8S 8644   0.752   4.800   2.651
   91OSM    H8S 8645   0.764   4.903   2.613
   91OSM    H8T 8646   0.829   4.734   2.606
   91OSM    C9S 8647   0.777   4.804   2.803
   91OSM    H9S 8648   0.763   4.706   2.854
   91OSM    H9T 8649   0.693   4.864   2.844
   91OSM   C10S 8650   0.910   4.863   2.862
   91OSM   H10S 8651   0.936   4.929   2.777
   91OSM   H10T 8652   0.985   4.783   2.879
   91OSM   C11S 8653   0.906   4.954   2.983
   91OSM   H11S 8654   0.827   5.027   2.957
   91OSM   H11T 8655   1.002   5.006   3.003
   91OSM   C12S 8656   0.868   4.882   3.117
   91OSM   H12S 8657   0.774   4.831   3.088
   91OSM   H12T 8658   0.847   4.963   3.190
   91OSM   C13S 8659   0.976   4.787   3.172
   91OSM   H13S 8660   1.064   4.848   3.203
   91OSM   H13T 8661   1.004   4.718   3.090
   91OSM   C14S 8662   0.940   4.697   3.296
   91OSM   H14S 8663   0.847   4.638   3.279
   91OSM   H14T 8664   0.928   4.770   3.380
   91OSM   C15S 8665   1.053   4.602   3.349
   91OSM   H15S 8666   1.026   4.570   3.451
   91OSM   H15T 8667   1.145   4.666   3.349
   91OSM   C16S 8668   1.071   4.486   3.246
   91OSM   H16S 8669   1.101   4.536   3.151
   91OSM   H16T 8670   0.970   4.441   3.240
   91OSM   C17S 8671   1.174   4.372   3.284
   91OSM   H17S 8672   1.164   4.295   3.204
   91OSM   H17T 8673   1.138   4.327   3.379
   91OSM   C18S 8674   1.317   4.412   3.285
   91OSM   H18S 8675   1.331   4.492   3.360
   91OSM   H18T 8676   1.343   4.468   3.193
   91OSM   H18U 8677   1.391   4.331   3.305
   91OSM    C1F 8678   0.288   4.276   2.552
   91OSM     OF 8679   0.302   4.158   2.522
   91OSM    C2F 8680   0.242   4.311   2.689
   91OSM    H2F 8681   0.131   4.313   2.692
   91OSM    H2G 8682   0.269   4.418   2.702
   91OSM    C3F 8683   0.298   4.222   2.796
   91OSM    H3F 8684   0.407   4.233   2.815
   91OSM    H3G 8685   0.282   4.115   2.771
   91OSM    C4F 8686   0.244   4.247   2.937
   91OSM    H4F 8687   0.298   4.178   3.006
   91OSM    H4G 8688   0.140   4.209   2.946
   91OSM    C5F 8689   0.251   4.389   2.981
   91OSM    H5F 8690   0.158   4.438   2.944
   91OSM    H5G 8691   0.345   4.435   2.944
   91OSM    C6F 8692   0.263   4.397   3.131
   91OSM    H6F 8693   0.300   4.495   3.169
   91OSM    H6G 8694   0.339   4.322   3.163
   91OSM    C7F 8695   0.128   4.374   3.204
   91OSM    H7F 8696   0.070   4.282   3.180
   91OSM    H7G 8697   0.060   4.463   3.195
   91OSM    C8F 8698   0.146   4.349   3.364
   91OSM    H8F 8699   0.213   4.425   3.410
   91OSM    H8G 8700   0.183   4.245   3.377
   91OSM    C9F 8701   0.017   4.350   3.436
   91OSM    H9F 8702  -0.066   4.399   3.383
   91OSM   C10F 8703  -0.006   4.292   3.554
   91OSM   H10F 8704  -0.111   4.295   3.585
   91OSM   C11F 8705   0.098   4.220   3.643
   91OSM   H11F 8706   0.112   4.273   3.740
   91OSM   H11G 8707   0.198   4.224   3.595
   91OSM   C12F 8708   0.065   4.081   3.684
   91OSM   H12F 8709   0.149   4.051   3.750
   91OSM   H12G 8710   0.061   4.013   3.596
   91OSM   C13F 8711  -0.066   4.077   3.761
   91OSM   H13F 8712  -0.087   3.968   3.774
   91OSM   H13G 8713  -0.147   4.114   3.696
   91OSM   C14F 8714  -0.071   4.158   3.895
   91OSM   H14F 8715  -0.047   4.263   3.869
   91OSM   H14G 8716  -0.006   4.126   3.978
   91OSM   C15F 8717  -0.209   4.146   3.962
   91OSM   H15F 8718  -0.202   4.186   4.065
   91OSM   H15G 8719  -0.211   4.035   3.971
   91OSM   C16F 8720  -0.330   4.215   3.889
   91OSM   H16F 8721  -0.423   4.187   3.944
   91OSM   H16G 8722  -0.348   4.186   3.783
   91OSM   C17F 8723  -0.318   4.363   3.904
   91OSM   H17F 8724  -0.260   4.411   3.822
   91OSM   H17G 8725  -0.282   4.400   4.003
   91OSM   C18F 8726  -0.462   4.428   3.897
   91OSM   H18F 8727  -0.510   4.398   3.801
   91OSM   H18G 8728  -0.467   4.538   3.888
   91OSM   H18H 8729  -0.537   4.381   3.964
   92OSM      N 8730   3.670   6.439   1.816
   92OSM    C15 8731   3.706   6.433   1.965
   92OSM   H15A 8732   3.646   6.364   2.023
   92OSM   H15B 8733   3.691   6.533   2.002
   92OSM   H15C 8734   3.810   6.413   1.988
   92OSM    C14 8735   3.691   6.294   1.778
   92OSM   H14A 8736   3.655   6.229   1.856
   92OSM   H14B 8737   3.797   6.277   1.784
   92OSM   H14C 8738   3.663   6.279   1.675
   92OSM    C13 8739   3.528   6.484   1.804
   92OSM   H13A 8740   3.511   6.584   1.841
   92OSM   H13B 8741   3.459   6.418   1.854
   92OSM   H13C 8742   3.500   6.481   1.700
   92OSM    C12 8743   3.759   6.526   1.731
   92OSM   H12A 8744   3.722   6.524   1.630
   92OSM   H12B 8745   3.856   6.479   1.723
   92OSM    C11 8746   3.763   6.671   1.781
   92OSM   H11A 8747   3.836   6.728   1.720
   92OSM   H11B 8748   3.818   6.685   1.876
   92OSM      P 8749   3.578   6.836   1.883
   92OSM    O13 8750   3.586   6.975   1.833
   92OSM    O14 8751   3.442   6.781   1.891
   92OSM    O11 8752   3.668   6.807   2.011
   92OSM    O12 8753   3.650   6.744   1.769
   92OSM    C1S 8754   3.775   6.888   2.047
   92OSM    H1S 8755   3.759   6.997   2.033
   92OSM    H1T 8756   3.872   6.860   2.001
   92OSM     NF 8757   3.889   6.968   2.257
   92OSM    HNF 8758   3.987   6.946   2.262
   92OSM    C2S 8759   3.796   6.873   2.204
   92OSM    H2S 8760   3.701   6.900   2.254
   92OSM    C3S 8761   3.816   6.724   2.247
   92OSM    H3S 8762   3.916   6.704   2.203
   92OSM     O3 8763   3.739   6.621   2.179
   92OSM    HO3 8764   3.710   6.682   2.111
   92OSM    C4S 8765   3.812   6.701   2.393
   92OSM    H4S 8766   3.913   6.713   2.435
   92OSM    C5S 8767   3.703   6.683   2.471
   92OSM    H5S 8768   3.604   6.690   2.423
   92OSM    C6S 8769   3.724   6.665   2.621
   92OSM    H6S 8770   3.781   6.571   2.638
   92OSM    H6T 8771   3.618   6.662   2.653
   92OSM    C7S 8772   3.802   6.779   2.688
   92OSM    H7S 8773   3.739   6.868   2.667
   92OSM    H7T 8774   3.904   6.788   2.644
   92OSM    C8S 8775   3.812   6.773   2.842
   92OSM    H8S 8776   3.873   6.852   2.892
   92OSM    H8T 8777   3.856   6.674   2.867
   92OSM    C9S 8778   3.670   6.760   2.910
   92OSM    H9S 8779   3.621   6.677   2.856
   92OSM    H9T 8780   3.608   6.852   2.905
   92OSM   C10S 8781   3.681   6.731   3.062
   92OSM   H10S 8782   3.700   6.831   3.107
   92OSM   H10T 8783   3.764   6.664   3.092
   92OSM   C11S 8784   3.557   6.677   3.134
   92OSM   H11S 8785   3.534   6.572   3.106
   92OSM   H11T 8786   3.467   6.739   3.116
   92OSM   C12S 8787   3.567   6.681   3.291
   92OSM   H12S 8788   3.601   6.784   3.316
   92OSM   H12T 8789   3.644   6.607   3.324
   92OSM   C13S 8790   3.439   6.642   3.358
   92OSM   H13S 8791   3.359   6.700   3.308
   92OSM   H13T 8792   3.435   6.673   3.464
   92OSM   C14S 8793   3.415   6.487   3.369
   92OSM   H14S 8794   3.508   6.432   3.393
   92OSM   H14T 8795   3.367   6.455   3.274
   92OSM   C15S 8796   3.323   6.445   3.478
   92OSM   H15S 8797   3.345   6.496   3.574
   92OSM   H15T 8798   3.351   6.341   3.506
   92OSM   C16S 8799   3.174   6.469   3.450
   92OSM   H16S 8800   3.137   6.407   3.365
   92OSM   H16T 8801   3.155   6.577   3.437
   92OSM   C17S 8802   3.087   6.429   3.572
   92OSM   H17S 8803   3.130   6.331   3.598
   92OSM   H17T 8804   2.985   6.410   3.532
   92OSM   C18S 8805   3.080   6.524   3.690
   92OSM   H18S 8806   3.072   6.631   3.664
   92OSM   H18T 8807   3.179   6.533   3.740
   92OSM   H18U 8808   3.012   6.496   3.773
   92OSM    C1F 8809   3.857   7.097   2.259
   92OSM     OF 8810   3.743   7.130   2.230
   92OSM    C2F 8811   3.971   7.200   2.280
   92OSM    H2F 8812   3.921   7.298   2.269
   92OSM    H2G 8813   4.050   7.188   2.204
   92OSM    C3F 8814   4.038   7.178   2.420
   92OSM    H3F 8815   4.110   7.260   2.442
   92OSM    H3G 8816   4.103   7.088   2.418
   92OSM    C4F 8817   3.939   7.165   2.541
   92OSM    H4F 8818   3.882   7.071   2.526
   92OSM    H4G 8819   3.873   7.254   2.545
   92OSM    C5F 8820   4.013   7.164   2.674
   92OSM    H5F 8821   4.078   7.253   2.687
   92OSM    H5G 8822   4.072   7.070   2.676
   92OSM    C6F 8823   3.919   7.154   2.798
   92OSM    H6F 8824   3.846   7.071   2.788
   92OSM    H6G 8825   3.860   7.248   2.800
   92OSM    C7F 8826   3.998   7.155   2.929
   92OSM    H7F 8827   4.058   7.249   2.923
   92OSM    H7G 8828   4.072   7.073   2.916
   92OSM    C8F 8829   3.928   7.136   3.068
   92OSM    H8F 8830   4.002   7.157   3.148
   92OSM    H8G 8831   3.886   7.034   3.074
   92OSM    C9F 8832   3.815   7.227   3.072
   92OSM    H9F 8833   3.777   7.257   2.973
   92OSM   C10F 8834   3.741   7.264   3.176
   92OSM   H10F 8835   3.659   7.335   3.159
   92OSM   C11F 8836   3.775   7.216   3.314
   92OSM   H11F 8837   3.750   7.307   3.373
   92OSM   H11G 8838   3.885   7.203   3.325
   92OSM   C12F 8839   3.708   7.100   3.375
   92OSM   H12F 8840   3.723   7.014   3.306
   92OSM   H12G 8841   3.600   7.126   3.373
   92OSM   C13F 8842   3.747   7.058   3.518
   92OSM   H13F 8843   3.854   7.031   3.529
   92OSM   H13G 8844   3.701   6.961   3.548
   92OSM   C14F 8845   3.703   7.164   3.618
   92OSM   H14F 8846   3.602   7.207   3.601
   92OSM   H14G 8847   3.778   7.246   3.611
   92OSM   C15F 8848   3.706   7.101   3.757
   92OSM   H15F 8849   3.803   7.048   3.767
   92OSM   H15G 8850   3.630   7.023   3.778
   92OSM   C16F 8851   3.694   7.209   3.868
   92OSM   H16F 8852   3.587   7.234   3.885
   92OSM   H16G 8853   3.758   7.300   3.856
   92OSM   C17F 8854   3.752   7.168   4.011
   92OSM   H17F 8855   3.858   7.138   3.993
   92OSM   H17G 8856   3.699   7.078   4.050
   92OSM   C18F 8857   3.759   7.278   4.116
   92OSM   H18F 8858   3.654   7.311   4.131
   92OSM   H18G 8859   3.815   7.365   4.076
   92OSM   H18H 8860   3.791   7.245   4.217
   93OSM      N 8861   3.408   0.361   1.660
   93OSM    C15 8862   3.318   0.349   1.538
   93OSM   H15A 8863   3.304   0.245   1.517
   93OSM   H15B 8864   3.361   0.397   1.452
   93OSM   H15C 8865   3.219   0.390   1.555
   93OSM    C14 8866   3.348   0.286   1.775
   93OSM   H14A 8867   3.344   0.184   1.740
   93OSM   H14B 8868   3.248   0.325   1.784
   93OSM   H14C 8869   3.394   0.305   1.871
   93OSM    C13 8870   3.542   0.314   1.614
   93OSM   H13A 8871   3.587   0.383   1.544
   93OSM   H13B 8872   3.540   0.219   1.562
   93OSM   H13C 8873   3.605   0.300   1.700
   93OSM    C12 8874   3.418   0.512   1.703
   93OSM   H12A 8875   3.470   0.577   1.635
   93OSM   H12B 8876   3.475   0.521   1.794
   93OSM    C11 8877   3.273   0.580   1.712
   93OSM   H11A 8878   3.227   0.571   1.612
   93OSM   H11B 8879   3.299   0.687   1.725
   93OSM      P 8880   3.084   0.601   1.883
   93OSM    O13 8881   3.100   0.743   1.855
   93OSM    O14 8882   2.960   0.539   1.836
   93OSM    O11 8883   3.118   0.579   2.039
   93OSM    O12 8884   3.195   0.523   1.809
   93OSM    C1S 8885   3.234   0.508   2.086
   93OSM    H1S 8886   3.328   0.557   2.052
   93OSM    H1T 8887   3.231   0.407   2.040
   93OSM     NF 8888   3.380   0.449   2.279
   93OSM    HNF 8889   3.378   0.362   2.327
   93OSM    C2S 8890   3.254   0.511   2.242
   93OSM    H2S 8891   3.254   0.619   2.268
   93OSM    C3S 8892   3.132   0.444   2.310
   93OSM    H3S 8893   3.129   0.337   2.280
   93OSM     O3 8894   3.003   0.496   2.267
   93OSM    HO3 8895   3.018   0.542   2.184
   93OSM    C4S 8896   3.143   0.445   2.460
   93OSM    H4S 8897   3.196   0.356   2.496
   93OSM    C5S 8898   3.085   0.527   2.553
   93OSM    H5S 8899   3.016   0.606   2.520
   93OSM    C6S 8900   3.102   0.503   2.703
   93OSM    H6S 8901   3.128   0.596   2.757
   93OSM    H6T 8902   3.184   0.434   2.733
   93OSM    C7S 8903   2.976   0.444   2.754
   93OSM    H7S 8904   2.954   0.344   2.711
   93OSM    H7T 8905   2.885   0.500   2.722
   93OSM    C8S 8906   2.977   0.439   2.910
   93OSM    H8S 8907   2.991   0.537   2.960
   93OSM    H8T 8908   3.062   0.378   2.946
   93OSM    C9S 8909   2.852   0.371   2.949
   93OSM    H9S 8910   2.852   0.264   2.919
   93OSM    H9T 8911   2.766   0.422   2.899
   93OSM   C10S 8912   2.829   0.378   3.098
   93OSM   H10S 8913   2.741   0.312   3.115
   93OSM   H10T 8914   2.808   0.479   3.138
   93OSM   C11S 8915   2.942   0.312   3.176
   93OSM   H11S 8916   3.030   0.376   3.198
   93OSM   H11T 8917   2.978   0.225   3.116
   93OSM   C12S 8918   2.908   0.259   3.316
   93OSM   H12S 8919   2.986   0.191   3.354
   93OSM   H12T 8920   2.818   0.194   3.314
   93OSM   C13S 8921   2.907   0.375   3.419
   93OSM   H13S 8922   2.825   0.445   3.393
   93OSM   H13T 8923   3.003   0.431   3.414
   93OSM   C14S 8924   2.898   0.321   3.561
   93OSM   H14S 8925   2.992   0.271   3.590
   93OSM   H14T 8926   2.817   0.247   3.577
   93OSM   C15S 8927   2.884   0.439   3.654
   93OSM   H15S 8928   2.782   0.483   3.663
   93OSM   H15T 8929   2.949   0.522   3.621
   93OSM   C16S 8930   2.921   0.400   3.798
   93OSM   H16S 8931   2.948   0.492   3.855
   93OSM   H16T 8932   3.016   0.343   3.790
   93OSM   C17S 8933   2.814   0.328   3.876
   93OSM   H17S 8934   2.815   0.224   3.835
   93OSM   H17T 8935   2.714   0.376   3.874
   93OSM   C18S 8936   2.866   0.312   4.021
   93OSM   H18S 8937   2.799   0.247   4.082
   93OSM   H18T 8938   2.969   0.270   4.021
   93OSM   H18U 8939   2.870   0.414   4.065
   93OSM    C1F 8940   3.493   0.523   2.273
   93OSM     OF 8941   3.492   0.632   2.219
   93OSM    C2F 8942   3.620   0.453   2.318
   93OSM    H2F 8943   3.704   0.477   2.249
   93OSM    H2G 8944   3.614   0.342   2.316
   93OSM    C3F 8945   3.671   0.499   2.454
   93OSM    H3F 8946   3.698   0.607   2.443
   93OSM    H3G 8947   3.762   0.446   2.489
   93OSM    C4F 8948   3.559   0.492   2.561
   93OSM    H4F 8949   3.520   0.388   2.557
   93OSM    H4G 8950   3.482   0.565   2.528
   93OSM    C5F 8951   3.602   0.528   2.702
   93OSM    H5F 8952   3.659   0.623   2.705
   93OSM    H5G 8953   3.665   0.446   2.743
   93OSM    C6F 8954   3.483   0.526   2.805
   93OSM    H6F 8955   3.445   0.423   2.822
   93OSM    H6G 8956   3.399   0.569   2.747
   93OSM    C7F 8957   3.513   0.599   2.933
   93OSM    H7F 8958   3.560   0.697   2.913
   93OSM    H7G 8959   3.587   0.542   2.993
   93OSM    C8F 8960   3.390   0.628   3.027
   93OSM    H8F 8961   3.299   0.667   2.978
   93OSM    H8G 8962   3.428   0.692   3.110
   93OSM    C9F 8963   3.334   0.506   3.087
   93OSM    H9F 8964   3.288   0.432   3.020
   93OSM   C10F 8965   3.351   0.458   3.211
   93OSM   H10F 8966   3.309   0.357   3.222
   93OSM   C11F 8967   3.427   0.524   3.330
   93OSM   H11F 8968   3.471   0.622   3.302
   93OSM   H11G 8969   3.508   0.459   3.369
   93OSM   C12F 8970   3.340   0.547   3.454
   93OSM   H12F 8971   3.234   0.572   3.432
   93OSM   H12G 8972   3.385   0.627   3.518
   93OSM   C13F 8973   3.322   0.409   3.527
   93OSM   H13F 8974   3.420   0.361   3.547
   93OSM   H13G 8975   3.265   0.350   3.452
   93OSM   C14F 8976   3.248   0.420   3.661
   93OSM   H14F 8977   3.216   0.315   3.675
   93OSM   H14G 8978   3.159   0.484   3.644
   93OSM   C15F 8979   3.335   0.463   3.777
   93OSM   H15F 8980   3.359   0.572   3.782
   93OSM   H15G 8981   3.431   0.409   3.787
   93OSM   C16F 8982   3.261   0.432   3.916
   93OSM   H16F 8983   3.232   0.325   3.922
   93OSM   H16G 8984   3.164   0.484   3.933
   93OSM   C17F 8985   3.352   0.462   4.035
   93OSM   H17F 8986   3.400   0.561   4.042
   93OSM   H17G 8987   3.429   0.381   4.032
   93OSM   C18F 8988   3.280   0.450   4.170
   93OSM   H18F 8989   3.249   0.344   4.183
   93OSM   H18G 8990   3.356   0.489   4.242
   93OSM   H18H 8991   3.192   0.517   4.162
   94OSM      N 8992   5.620   6.542   1.577
   94OSM    C15 8993   5.686   6.412   1.578
   94OSM   H15A 8994   5.700   6.378   1.680
   94OSM   H15B 8995   5.774   6.417   1.516
   94OSM   H15C 8996   5.626   6.333   1.534
   94OSM    C14 8997   5.713   6.634   1.638
   94OSM   H14A 8998   5.727   6.630   1.745
   94OSM   H14B 8999   5.680   6.736   1.622
   94OSM   H14C 9000   5.806   6.629   1.582
   94OSM    C13 9001   5.585   6.584   1.439
   94OSM   H13A 9002   5.504   6.521   1.406
   94OSM   H13B 9003   5.670   6.589   1.372
   94OSM   H13C 9004   5.546   6.685   1.441
   94OSM    C12 9005   5.491   6.530   1.655
   94OSM   H12A 9006   5.445   6.434   1.635
   94OSM   H12B 9007   5.422   6.604   1.618
   94OSM    C11 9008   5.501   6.543   1.812
   94OSM   H11A 9009   5.587   6.481   1.843
   94OSM   H11B 9010   5.403   6.507   1.852
   94OSM      P 9011   5.404   6.787   1.833
   94OSM    O13 9012   5.471   6.914   1.787
   94OSM    O14 9013   5.301   6.728   1.749
   94OSM    O11 9014   5.350   6.799   1.979
   94OSM    O12 9015   5.525   6.683   1.858
   94OSM    C1S 9016   5.345   6.699   2.079
   94OSM    H1S 9017   5.408   6.611   2.056
   94OSM    H1T 9018   5.240   6.665   2.092
   94OSM     NF 9019   5.371   6.652   2.324
   94OSM    HNF 9020   5.293   6.668   2.382
   94OSM    C2S 9021   5.399   6.752   2.218
   94OSM    H2S 9022   5.509   6.771   2.222
   94OSM    C3S 9023   5.315   6.889   2.259
   94OSM    H3S 9024   5.208   6.858   2.269
   94OSM     O3 9025   5.327   6.992   2.162
   94OSM    HO3 9026   5.340   6.948   2.078
   94OSM    C4S 9027   5.367   6.943   2.392
   94OSM    H4S 9028   5.477   6.952   2.385
   94OSM    C5S 9029   5.295   6.967   2.505
   94OSM    H5S 9030   5.185   6.961   2.494
   94OSM    C6S 9031   5.338   7.031   2.635
   94OSM    H6S 9032   5.325   7.142   2.630
   94OSM    H6T 9033   5.446   7.006   2.648
   94OSM    C7S 9034   5.252   6.987   2.750
   94OSM    H7S 9035   5.249   6.876   2.754
   94OSM    H7T 9036   5.146   7.013   2.734
   94OSM    C8S 9037   5.299   7.036   2.887
   94OSM    H8S 9038   5.293   7.147   2.885
   94OSM    H8T 9039   5.401   7.003   2.915
   94OSM    C9S 9040   5.209   6.989   3.000
   94OSM    H9S 9041   5.190   6.880   3.004
   94OSM    H9T 9042   5.106   7.023   2.976
   94OSM   C10S 9043   5.256   7.042   3.137
   94OSM   H10S 9044   5.256   7.153   3.127
   94OSM   H10T 9045   5.363   7.017   3.151
   94OSM   C11S 9046   5.170   6.990   3.257
   94OSM   H11S 9047   5.200   6.886   3.284
   94OSM   H11T 9048   5.064   6.997   3.225
   94OSM   C12S 9049   5.188   7.071   3.382
   94OSM   H12S 9050   5.147   7.174   3.369
   94OSM   H12T 9051   5.296   7.072   3.406
   94OSM   C13S 9052   5.130   7.006   3.504
   94OSM   H13S 9053   5.160   6.900   3.523
   94OSM   H13T 9054   5.021   7.008   3.483
   94OSM   C14S 9055   5.169   7.085   3.621
   94OSM   H14S 9056   5.143   7.189   3.593
   94OSM   H14T 9057   5.275   7.083   3.654
   94OSM   C15S 9058   5.084   7.081   3.741
   94OSM   H15S 9059   4.979   7.111   3.720
   94OSM   H15T 9060   5.120   7.145   3.825
   94OSM   C16S 9061   5.089   6.944   3.826
   94OSM   H16S 9062   5.197   6.934   3.852
   94OSM   H16T 9063   5.058   6.867   3.752
   94OSM   C17S 9064   5.003   6.953   3.950
   94OSM   H17S 9065   5.022   7.057   3.985
   94OSM   H17T 9066   5.042   6.888   4.031
   94OSM   C18S 9067   4.848   6.921   3.944
   94OSM   H18S 9068   4.790   6.996   3.886
   94OSM   H18T 9069   4.802   6.917   4.045
   94OSM   H18U 9070   4.822   6.823   3.899
   94OSM    C1F 9071   5.446   6.547   2.327
   94OSM     OF 9072   5.542   6.535   2.247
   94OSM    C2F 9073   5.421   6.433   2.427
   94OSM    H2F 9074   5.450   6.340   2.374
   94OSM    H2G 9075   5.314   6.429   2.453
   94OSM    C3F 9076   5.508   6.452   2.557
   94OSM    H3F 9077   5.616   6.448   2.532
   94OSM    H3G 9078   5.485   6.356   2.608
   94OSM    C4F 9079   5.457   6.569   2.642
   94OSM    H4F 9080   5.347   6.565   2.656
   94OSM    H4G 9081   5.491   6.665   2.598
   94OSM    C5F 9082   5.525   6.570   2.781
   94OSM    H5F 9083   5.634   6.570   2.761
   94OSM    H5G 9084   5.494   6.481   2.839
   94OSM    C6F 9085   5.494   6.694   2.867
   94OSM    H6F 9086   5.387   6.683   2.891
   94OSM    H6G 9087   5.507   6.785   2.804
   94OSM    C7F 9088   5.584   6.700   2.992
   94OSM    H7F 9089   5.602   6.808   3.013
   94OSM    H7G 9090   5.688   6.667   2.971
   94OSM    C8F 9091   5.545   6.619   3.119
   94OSM    H8F 9092   5.635   6.593   3.179
   94OSM    H8G 9093   5.484   6.532   3.086
   94OSM    C9F 9094   5.456   6.707   3.198
   94OSM    H9F 9095   5.355   6.720   3.157
   94OSM   C10F 9096   5.492   6.790   3.293
   94OSM   H10F 9097   5.416   6.859   3.332
   94OSM   C11F 9098   5.635   6.812   3.343
   94OSM   H11F 9099   5.679   6.890   3.278
   94OSM   H11G 9100   5.685   6.713   3.328
   94OSM   C12F 9101   5.654   6.854   3.486
   94OSM   H12F 9102   5.614   6.957   3.499
   94OSM   H12G 9103   5.762   6.860   3.509
   94OSM   C13F 9104   5.581   6.764   3.583
   94OSM   H13F 9105   5.598   6.656   3.563
   94OSM   H13G 9106   5.474   6.782   3.560
   94OSM   C14F 9107   5.607   6.815   3.723
   94OSM   H14F 9108   5.587   6.923   3.735
   94OSM   H14G 9109   5.714   6.793   3.745
   94OSM   C15F 9110   5.519   6.742   3.816
   94OSM   H15F 9111   5.542   6.636   3.793
   94OSM   H15G 9112   5.410   6.748   3.798
   94OSM   C16F 9113   5.550   6.788   3.956
   94OSM   H16F 9114   5.517   6.894   3.965
   94OSM   H16G 9115   5.660   6.797   3.969
   94OSM   C17F 9116   5.486   6.693   4.058
   94OSM   H17F 9117   5.556   6.686   4.144
   94OSM   H17G 9118   5.469   6.596   4.007
   94OSM   C18F 9119   5.355   6.749   4.116
   94OSM   H18F 9120   5.298   6.805   4.039
   94OSM   H18G 9121   5.394   6.835   4.175
   94OSM   H18H 9122   5.295   6.684   4.183
   95OSM      N 9123   6.414   2.581   1.987
   95OSM    C15 9124   6.298   2.674   1.999
   95OSM   H15A 9125   6.209   2.618   1.975
   95OSM   H15B 9126   6.313   2.769   1.951
   95OSM   H15C 9127   6.287   2.696   2.104
   95OSM    C14 9128   6.393   2.455   2.069
   95OSM   H14A 9129   6.291   2.421   2.064
   95OSM   H14B 9130   6.419   2.475   2.172
   95OSM   H14C 9131   6.465   2.387   2.025
   95OSM    C13 9132   6.429   2.538   1.843
   95OSM   H13A 9133   6.343   2.491   1.797
   95OSM   H13B 9134   6.513   2.471   1.834
   95OSM   H13C 9135   6.453   2.620   1.777
   95OSM    C12 9136   6.538   2.642   2.033
   95OSM   H12A 9137   6.618   2.571   2.016
   95OSM   H12B 9138   6.554   2.647   2.140
   95OSM    C11 9139   6.576   2.774   1.976
   95OSM   H11A 9140   6.527   2.865   2.016
   95OSM   H11B 9141   6.545   2.775   1.869
   95OSM      P 9142   6.789   2.920   1.983
   95OSM    O13 9143   6.931   2.901   2.015
   95OSM    O14 9144   6.759   2.968   1.849
   95OSM    O11 9145   6.715   3.015   2.087
   95OSM    O12 9146   6.717   2.776   1.994
   95OSM    C1S 9147   6.713   2.973   2.220
   95OSM    H1S 9148   6.702   2.863   2.236
   95OSM    H1T 9149   6.626   3.026   2.264
   95OSM     NF 9150   6.794   2.985   2.449
   95OSM    HNF 9151   6.730   3.036   2.506
   95OSM    C2S 9152   6.823   3.032   2.318
   95OSM    H2S 9153   6.915   2.989   2.273
   95OSM    C3S 9154   6.819   3.192   2.302
   95OSM    H3S 9155   6.720   3.235   2.325
   95OSM     O3 9156   6.841   3.229   2.162
   95OSM    HO3 9157   6.822   3.144   2.121
   95OSM    C4S 9158   6.926   3.264   2.386
   95OSM    H4S 9159   7.031   3.256   2.352
   95OSM    C5S 9160   6.898   3.337   2.497
   95OSM    H5S 9161   6.791   3.343   2.523
   95OSM    C6S 9162   7.000   3.401   2.589
   95OSM    H6S 9163   6.952   3.418   2.688
   95OSM    H6T 9164   7.019   3.500   2.543
   95OSM    C7S 9165   7.123   3.314   2.611
   95OSM    H7S 9166   7.165   3.305   2.508
   95OSM    H7T 9167   7.094   3.214   2.648
   95OSM    C8S 9168   7.228   3.371   2.707
   95OSM    H8S 9169   7.272   3.456   2.650
   95OSM    H8T 9170   7.304   3.290   2.719
   95OSM    C9S 9171   7.178   3.414   2.846
   95OSM    H9S 9172   7.112   3.330   2.877
   95OSM    H9T 9173   7.122   3.510   2.839
   95OSM   C10S 9174   7.296   3.439   2.942
   95OSM   H10S 9175   7.345   3.530   2.902
   95OSM   H10T 9176   7.375   3.361   2.933
   95OSM   C11S 9177   7.260   3.473   3.086
   95OSM   H11S 9178   7.195   3.393   3.126
   95OSM   H11T 9179   7.201   3.567   3.082
   95OSM   C12S 9180   7.388   3.502   3.175
   95OSM   H12S 9181   7.431   3.599   3.144
   95OSM   H12T 9182   7.465   3.423   3.164
   95OSM   C13S 9183   7.349   3.515   3.321
   95OSM   H13S 9184   7.308   3.417   3.354
   95OSM   H13T 9185   7.277   3.600   3.324
   95OSM   C14S 9186   7.473   3.544   3.403
   95OSM   H14S 9187   7.510   3.646   3.381
   95OSM   H14T 9188   7.551   3.468   3.380
   95OSM   C15S 9189   7.456   3.530   3.557
   95OSM   H15S 9190   7.397   3.436   3.550
   95OSM   H15T 9191   7.373   3.599   3.584
   95OSM   C16S 9192   7.583   3.534   3.638
   95OSM   H16S 9193   7.625   3.636   3.627
   95OSM   H16T 9194   7.653   3.462   3.591
   95OSM   C17S 9195   7.569   3.527   3.784
   95OSM   H17S 9196   7.674   3.515   3.819
   95OSM   H17T 9197   7.514   3.439   3.823
   95OSM   C18S 9198   7.507   3.648   3.847
   95OSM   H18S 9199   7.491   3.630   3.955
   95OSM   H18T 9200   7.411   3.668   3.794
   95OSM   H18U 9201   7.576   3.735   3.840
   95OSM    C1F 9202   6.846   2.880   2.498
   95OSM     OF 9203   6.888   2.796   2.422
   95OSM    C2F 9204   6.848   2.862   2.648
   95OSM    H2F 9205   6.863   2.754   2.669
   95OSM    H2G 9206   6.744   2.882   2.681
   95OSM    C3F 9207   6.937   2.971   2.714
   95OSM    H3F 9208   6.892   3.072   2.698
   95OSM    H3G 9209   7.038   2.979   2.668
   95OSM    C4F 9210   6.960   2.957   2.861
   95OSM    H4F 9211   7.023   3.042   2.894
   95OSM    H4G 9212   7.002   2.859   2.890
   95OSM    C5F 9213   6.822   2.977   2.937
   95OSM    H5F 9214   6.757   2.887   2.943
   95OSM    H5G 9215   6.770   3.056   2.878
   95OSM    C6F 9216   6.841   3.037   3.081
   95OSM    H6F 9217   6.734   3.050   3.108
   95OSM    H6G 9218   6.892   3.135   3.093
   95OSM    C7F 9219   6.901   2.942   3.178
   95OSM    H7F 9220   7.002   2.914   3.142
   95OSM    H7G 9221   6.836   2.853   3.190
   95OSM    C8F 9222   6.921   2.997   3.321
   95OSM    H8F 9223   6.936   2.905   3.381
   95OSM    H8G 9224   6.828   3.054   3.342
   95OSM    C9F 9225   7.031   3.096   3.334
   95OSM    H9F 9226   7.060   3.139   3.237
   95OSM   C10F 9227   7.089   3.134   3.452
   95OSM   H10F 9228   7.172   3.206   3.449
   95OSM   C11F 9229   7.059   3.077   3.588
   95OSM   H11F 9230   7.105   2.977   3.602
   95OSM   H11G 9231   6.949   3.063   3.589
   95OSM   C12F 9232   7.098   3.162   3.711
   95OSM   H12F 9233   7.207   3.148   3.722
   95OSM   H12G 9234   7.037   3.119   3.794
   95OSM   C13F 9235   7.076   3.313   3.711
   95OSM   H13F 9236   6.966   3.325   3.701
   95OSM   H13G 9237   7.127   3.363   3.626
   95OSM   C14F 9238   7.127   3.374   3.846
   95OSM   H14F 9239   7.231   3.344   3.872
   95OSM   H14G 9240   7.070   3.315   3.921
   95OSM   C15F 9241   7.112   3.526   3.859
   95OSM   H15F 9242   7.007   3.554   3.837
   95OSM   H15G 9243   7.176   3.580   3.787
   95OSM   C16F 9244   7.147   3.570   4.002
   95OSM   H16F 9245   7.253   3.555   4.033
   95OSM   H16G 9246   7.095   3.496   4.066
   95OSM   C17F 9247   7.110   3.719   4.041
   95OSM   H17F 9248   7.113   3.726   4.152
   95OSM   H17G 9249   7.006   3.741   4.008
   95OSM   C18F 9250   7.205   3.814   3.967
   95OSM   H18F 9251   7.206   3.789   3.859
   95OSM   H18G 9252   7.308   3.805   4.010
   95OSM   H18H 9253   7.175   3.919   3.986
   96OSM      N 9254   1.542   0.662   1.739
   96OSM    C15 9255   1.448   0.588   1.641
   96OSM   H15A 9256   1.498   0.504   1.595
   96OSM   H15B 9257   1.422   0.653   1.558
   96OSM   H15C 9258   1.357   0.560   1.691
   96OSM    C14 9259   1.654   0.706   1.648
   96OSM   H14A 9260   1.709   0.618   1.616
   96OSM   H14B 9261   1.724   0.774   1.695
   96OSM   H14C 9262   1.616   0.757   1.561
   96OSM    C13 9263   1.474   0.781   1.788
   96OSM   H13A 9264   1.534   0.848   1.848
   96OSM   H13B 9265   1.399   0.746   1.858
   96OSM   H13C 9266   1.421   0.828   1.707
   96OSM    C12 9267   1.587   0.568   1.851
   96OSM   H12A 9268   1.646   0.484   1.815
   96OSM   H12B 9269   1.499   0.514   1.884
   96OSM    C11 9270   1.668   0.621   1.970
   96OSM   H11A 9271   1.668   0.548   2.054
   96OSM   H11B 9272   1.608   0.710   1.997
   96OSM      P 9273   1.909   0.563   1.908
   96OSM    O13 9274   1.857   0.432   1.870
   96OSM    O14 9275   2.008   0.626   1.813
   96OSM    O11 9276   1.978   0.552   2.055
   96OSM    O12 9277   1.794   0.666   1.931
   96OSM    C1S 9278   2.003   0.671   2.137
   96OSM    H1S 9279   1.907   0.723   2.158
   96OSM    H1T 9280   2.064   0.744   2.080
   96OSM     NF 9281   2.075   0.738   2.358
   96OSM    HNF 9282   2.148   0.806   2.364
   96OSM    C2S 9283   2.083   0.625   2.267
   96OSM    H2S 9284   2.041   0.534   2.316
   96OSM    C3S 9285   2.231   0.588   2.223
   96OSM    H3S 9286   2.283   0.681   2.191
   96OSM     O3 9287   2.241   0.511   2.106
   96OSM    HO3 9288   2.152   0.519   2.072
   96OSM    C4S 9289   2.300   0.536   2.345
   96OSM    H4S 9290   2.349   0.613   2.407
   96OSM    C5S 9291   2.309   0.411   2.387
   96OSM    H5S 9292   2.265   0.326   2.333
   96OSM    C6S 9293   2.376   0.375   2.519
   96OSM    H6S 9294   2.295   0.348   2.590
   96OSM    H6T 9295   2.430   0.458   2.570
   96OSM    C7S 9296   2.487   0.269   2.515
   96OSM    H7S 9297   2.562   0.310   2.445
   96OSM    H7T 9298   2.449   0.172   2.476
   96OSM    C8S 9299   2.557   0.241   2.643
   96OSM    H8S 9300   2.604   0.334   2.683
   96OSM    H8T 9301   2.643   0.176   2.616
   96OSM    C9S 9302   2.462   0.190   2.754
   96OSM    H9S 9303   2.364   0.166   2.707
   96OSM    H9T 9304   2.431   0.270   2.824
   96OSM   C10S 9305   2.522   0.067   2.829
   96OSM   H10S 9306   2.627   0.090   2.858
   96OSM   H10T 9307   2.526  -0.011   2.750
   96OSM   C11S 9308   2.451   0.002   2.943
   96OSM   H11S 9309   2.390  -0.083   2.906
   96OSM   H11T 9310   2.389   0.079   2.995
   96OSM   C12S 9311   2.552  -0.037   3.049
   96OSM   H12S 9312   2.590   0.061   3.084
   96OSM   H12T 9313   2.633  -0.091   2.996
   96OSM   C13S 9314   2.490  -0.119   3.165
   96OSM   H13S 9315   2.559  -0.164   3.239
   96OSM   H13T 9316   2.445  -0.201   3.105
   96OSM   C14S 9317   2.377  -0.048   3.236
   96OSM   H14S 9318   2.291  -0.042   3.166
   96OSM   H14T 9319   2.401   0.059   3.248
   96OSM   C15S 9320   2.351  -0.115   3.374
   96OSM   H15S 9321   2.446  -0.106   3.431
   96OSM   H15T 9322   2.330  -0.224   3.365
   96OSM   C16S 9323   2.222  -0.068   3.444
   96OSM   H16S 9324   2.138  -0.060   3.371
   96OSM   H16T 9325   2.249   0.031   3.487
   96OSM   C17S 9326   2.180  -0.158   3.559
   96OSM   H17S 9327   2.162  -0.260   3.521
   96OSM   H17T 9328   2.088  -0.117   3.606
   96OSM   C18S 9329   2.284  -0.171   3.665
   96OSM   H18S 9330   2.236  -0.191   3.763
   96OSM   H18T 9331   2.338  -0.074   3.662
   96OSM   H18U 9332   2.356  -0.250   3.634
   96OSM    C1F 9333   1.973   0.757   2.436
   96OSM     OF 9334   1.871   0.694   2.417
   96OSM    C2F 9335   1.991   0.849   2.551
   96OSM    H2F 9336   1.923   0.937   2.541
   96OSM    H2G 9337   2.095   0.886   2.556
   96OSM    C3F 9338   1.947   0.778   2.682
   96OSM    H3F 9339   2.010   0.695   2.720
   96OSM    H3G 9340   1.842   0.743   2.672
   96OSM    C4F 9341   1.938   0.866   2.801
   96OSM    H4F 9342   1.876   0.948   2.759
   96OSM    H4G 9343   2.036   0.913   2.820
   96OSM    C5F 9344   1.863   0.810   2.923
   96OSM    H5F 9345   1.805   0.718   2.899
   96OSM    H5G 9346   1.795   0.890   2.959
   96OSM    C6F 9347   1.954   0.779   3.042
   96OSM    H6F 9348   2.031   0.855   3.067
   96OSM    H6G 9349   2.003   0.683   3.014
   96OSM    C7F 9350   1.875   0.758   3.176
   96OSM    H7F 9351   1.799   0.680   3.158
   96OSM    H7G 9352   1.824   0.854   3.202
   96OSM    C8F 9353   1.963   0.717   3.295
   96OSM    H8F 9354   2.056   0.778   3.285
   96OSM    H8G 9355   2.004   0.615   3.283
   96OSM    C9F 9356   1.896   0.745   3.432
   96OSM    H9F 9357   1.791   0.777   3.423
   96OSM   C10F 9358   1.948   0.742   3.553
   96OSM   H10F 9359   1.890   0.747   3.646
   96OSM   C11F 9360   2.088   0.703   3.579
   96OSM   H11F 9361   2.151   0.793   3.599
   96OSM   H11G 9362   2.137   0.655   3.492
   96OSM   C12F 9363   2.092   0.601   3.695
   96OSM   H12F 9364   2.190   0.550   3.686
   96OSM   H12G 9365   2.016   0.522   3.678
   96OSM   C13F 9366   2.072   0.665   3.833
   96OSM   H13F 9367   1.971   0.709   3.847
   96OSM   H13G 9368   2.146   0.744   3.858
   96OSM   C14F 9369   2.086   0.566   3.951
   96OSM   H14F 9370   2.027   0.473   3.941
   96OSM   H14G 9371   2.049   0.615   4.044
   96OSM   C15F 9372   2.239   0.531   3.983
   96OSM   H15F 9373   2.298   0.625   3.996
   96OSM   H15G 9374   2.290   0.473   3.903
   96OSM   C16F 9375   2.246   0.452   4.117
   96OSM   H16F 9376   2.234   0.342   4.111
   96OSM   H16G 9377   2.167   0.485   4.187
   96OSM   C17F 9378   2.386   0.474   4.185
   96OSM   H17F 9379   2.368   0.419   4.280
   96OSM   H17G 9380   2.423   0.572   4.221
   96OSM   C18F 9381   2.499   0.385   4.127
   96OSM   H18F 9382   2.591   0.400   4.187
   96OSM   H18G 9383   2.527   0.405   4.021
   96OSM   H18H 9384   2.467   0.279   4.122
   97OSM      N 9385   5.703   3.294   2.030
   97OSM    C15 9386   5.649   3.348   1.900
   97OSM   H15A 9387   5.725   3.362   1.825
   97OSM   H15B 9388   5.593   3.438   1.919
   97OSM   H15C 9389   5.582   3.280   1.850
   97OSM    C14 9390   5.767   3.164   2.001
   97OSM   H14A 9391   5.829   3.169   1.913
   97OSM   H14B 9392   5.688   3.090   1.995
   97OSM   H14C 9393   5.838   3.143   2.080
   97OSM    C13 9394   5.813   3.392   2.061
   97OSM   H13A 9395   5.769   3.484   2.097
   97OSM   H13B 9396   5.868   3.407   1.969
   97OSM   H13C 9397   5.882   3.354   2.135
   97OSM    C12 9398   5.602   3.276   2.137
   97OSM   H12A 9399   5.576   3.374   2.172
   97OSM   H12B 9400   5.661   3.240   2.221
   97OSM    C11 9401   5.483   3.189   2.117
   97OSM   H11A 9402   5.441   3.205   2.015
   97OSM   H11B 9403   5.411   3.220   2.195
   97OSM      P 9404   5.451   2.931   2.172
   97OSM    O13 9405   5.318   2.927   2.101
   97OSM    O14 9406   5.537   2.807   2.153
   97OSM    O11 9407   5.426   2.950   2.326
   97OSM    O12 9408   5.526   3.057   2.122
   97OSM    C1S 9409   5.533   3.010   2.408
   97OSM    H1S 9410   5.607   3.067   2.347
   97OSM    H1T 9411   5.605   2.934   2.444
   97OSM     NF 9412   5.606   3.173   2.582
   97OSM    HNF 9413   5.655   3.135   2.660
   97OSM    C2S 9414   5.493   3.090   2.533
   97OSM    H2S 9415   5.414   3.154   2.488
   97OSM    C3S 9416   5.418   3.006   2.644
   97OSM    H3S 9417   5.487   2.934   2.692
   97OSM     O3 9418   5.318   2.929   2.585
   97OSM    HO3 9419   5.338   2.921   2.491
   97OSM    C4S 9420   5.359   3.090   2.754
   97OSM    H4S 9421   5.422   3.099   2.844
   97OSM    C5S 9422   5.242   3.152   2.757
   97OSM    H5S 9423   5.193   3.163   2.659
   97OSM    C6S 9424   5.180   3.232   2.865
   97OSM    H6S 9425   5.125   3.315   2.816
   97OSM    H6T 9426   5.256   3.287   2.925
   97OSM    C7S 9427   5.095   3.153   2.962
   97OSM    H7S 9428   5.156   3.068   2.999
   97OSM    H7T 9429   5.008   3.113   2.905
   97OSM    C8S 9430   5.040   3.241   3.078
   97OSM    H8S 9431   4.968   3.315   3.037
   97OSM    H8T 9432   5.124   3.298   3.123
   97OSM    C9S 9433   4.956   3.167   3.177
   97OSM    H9S 9434   4.875   3.115   3.122
   97OSM    H9T 9435   4.905   3.233   3.251
   97OSM   C10S 9436   5.030   3.066   3.261
   97OSM   H10S 9437   5.081   2.994   3.194
   97OSM   H10T 9438   4.956   3.005   3.316
   97OSM   C11S 9439   5.130   3.137   3.358
   97OSM   H11S 9440   5.204   3.195   3.298
   97OSM   H11T 9441   5.183   3.056   3.414
   97OSM   C12S 9442   5.062   3.237   3.447
   97OSM   H12S 9443   4.965   3.192   3.480
   97OSM   H12T 9444   5.027   3.325   3.390
   97OSM   C13S 9445   5.132   3.285   3.569
   97OSM   H13S 9446   5.228   3.338   3.551
   97OSM   H13T 9447   5.149   3.204   3.643
   97OSM   C14S 9448   5.052   3.384   3.653
   97OSM   H14S 9449   5.009   3.458   3.582
   97OSM   H14T 9450   5.136   3.433   3.705
   97OSM   C15S 9451   4.940   3.331   3.735
   97OSM   H15S 9452   4.869   3.258   3.690
   97OSM   H15T 9453   4.887   3.424   3.766
   97OSM   C16S 9454   4.989   3.295   3.880
   97OSM   H16S 9455   4.901   3.276   3.946
   97OSM   H16T 9456   5.045   3.375   3.934
   97OSM   C17S 9457   5.070   3.165   3.895
   97OSM   H17S 9458   5.178   3.185   3.874
   97OSM   H17T 9459   5.036   3.083   3.829
   97OSM   C18S 9460   5.081   3.102   4.034
   97OSM   H18S 9461   4.987   3.049   4.061
   97OSM   H18T 9462   5.097   3.176   4.116
   97OSM   H18U 9463   5.150   3.017   4.045
   97OSM    C1F 9464   5.657   3.275   2.511
   97OSM     OF 9465   5.599   3.318   2.413
   97OSM    C2F 9466   5.789   3.337   2.561
   97OSM    H2F 9467   5.836   3.250   2.610
   97OSM    H2G 9468   5.772   3.414   2.640
   97OSM    C3F 9469   5.877   3.396   2.451
   97OSM    H3F 9470   5.815   3.444   2.373
   97OSM    H3G 9471   5.914   3.304   2.400
   97OSM    C4F 9472   5.991   3.488   2.496
   97OSM    H4F 9473   5.953   3.581   2.543
   97OSM    H4G 9474   6.046   3.513   2.402
   97OSM    C5F 9475   6.100   3.432   2.588
   97OSM    H5F 9476   6.137   3.338   2.541
   97OSM    H5G 9477   6.044   3.398   2.678
   97OSM    C6F 9478   6.208   3.530   2.630
   97OSM    H6F 9479   6.165   3.631   2.643
   97OSM    H6G 9480   6.286   3.548   2.552
   97OSM    C7F 9481   6.281   3.508   2.764
   97OSM    H7F 9482   6.204   3.484   2.841
   97OSM    H7G 9483   6.340   3.595   2.799
   97OSM    C8F 9484   6.389   3.396   2.754
   97OSM    H8F 9485   6.351   3.300   2.715
   97OSM    H8G 9486   6.418   3.373   2.859
   97OSM    C9F 9487   6.509   3.431   2.669
   97OSM    H9F 9488   6.496   3.450   2.561
   97OSM   C10F 9489   6.625   3.473   2.719
   97OSM   H10F 9490   6.705   3.478   2.645
   97OSM   C11F 9491   6.674   3.481   2.861
   97OSM   H11F 9492   6.603   3.551   2.909
   97OSM   H11G 9493   6.768   3.541   2.866
   97OSM   C12F 9494   6.686   3.356   2.951
   97OSM   H12F 9495   6.771   3.287   2.931
   97OSM   H12G 9496   6.602   3.287   2.926
   97OSM   C13F 9497   6.685   3.389   3.097
   97OSM   H13F 9498   6.646   3.304   3.158
   97OSM   H13G 9499   6.610   3.470   3.110
   97OSM   C14F 9500   6.816   3.432   3.146
   97OSM   H14F 9501   6.867   3.499   3.073
   97OSM   H14G 9502   6.883   3.345   3.159
   97OSM   C15F 9503   6.817   3.502   3.290
   97OSM   H15F 9504   6.769   3.433   3.362
   97OSM   H15G 9505   6.743   3.586   3.291
   97OSM   C16F 9506   6.955   3.544   3.345
   97OSM   H16F 9507   6.991   3.610   3.262
   97OSM   H16G 9508   7.014   3.451   3.359
   97OSM   C17F 9509   6.957   3.623   3.475
   97OSM   H17F 9510   6.937   3.563   3.567
   97OSM   H17G 9511   6.877   3.700   3.478
   97OSM   C18F 9512   7.087   3.706   3.483
   97OSM   H18F 9513   7.180   3.645   3.487
   97OSM   H18G 9514   7.076   3.771   3.572
   97OSM   H18H 9515   7.101   3.772   3.394
   98OSM      N 9516   0.395   5.506   1.714
   98OSM    C15 9517   0.264   5.559   1.648
   98OSM   H15A 9518   0.296   5.614   1.561
   98OSM   H15B 9519   0.206   5.619   1.717
   98OSM   H15C 9520   0.200   5.481   1.611
   98OSM    C14 9521   0.459   5.408   1.622
   98OSM   H14A 9522   0.544   5.358   1.666
   98OSM   H14B 9523   0.478   5.462   1.530
   98OSM   H14C 9524   0.389   5.326   1.615
   98OSM    C13 9525   0.485   5.626   1.739
   98OSM   H13A 9526   0.429   5.694   1.802
   98OSM   H13B 9527   0.518   5.681   1.652
   98OSM   H13C 9528   0.575   5.604   1.794
   98OSM    C12 9529   0.359   5.430   1.844
   98OSM   H12A 9530   0.448   5.382   1.882
   98OSM   H12B 9531   0.295   5.348   1.814
   98OSM    C11 9532   0.285   5.509   1.960
   98OSM   H11A 9533   0.334   5.608   1.974
   98OSM   H11B 9534   0.288   5.462   2.060
   98OSM      P 9535   0.043   5.432   1.915
   98OSM    O13 9536  -0.082   5.501   1.905
   98OSM    O14 9537   0.068   5.313   1.821
   98OSM    O11 9538   0.043   5.363   2.062
   98OSM    O12 9539   0.148   5.539   1.911
   98OSM    C1S 9540   0.048   5.443   2.185
   98OSM    H1S 9541   0.117   5.529   2.174
   98OSM    H1T 9542   0.094   5.377   2.261
   98OSM     NF 9543  -0.070   5.562   2.362
   98OSM    HNF 9544  -0.095   5.524   2.450
   98OSM    C2S 9545  -0.095   5.489   2.237
   98OSM    H2S 9546  -0.131   5.561   2.161
   98OSM    C3S 9547  -0.195   5.364   2.243
   98OSM    H3S 9548  -0.144   5.278   2.291
   98OSM     O3 9549  -0.231   5.317   2.114
   98OSM    HO3 9550  -0.162   5.356   2.060
   98OSM    C4S 9551  -0.323   5.395   2.330
   98OSM    H4S 9552  -0.392   5.458   2.272
   98OSM    C5S 9553  -0.353   5.344   2.454
   98OSM    H5S 9554  -0.283   5.274   2.500
   98OSM    C6S 9555  -0.485   5.381   2.509
   98OSM    H6S 9556  -0.556   5.295   2.511
   98OSM    H6T 9557  -0.550   5.447   2.447
   98OSM    C7S 9558  -0.475   5.451   2.642
   98OSM    H7S 9559  -0.405   5.537   2.638
   98OSM    H7T 9560  -0.448   5.373   2.717
   98OSM    C8S 9561  -0.617   5.493   2.681
   98OSM    H8S 9562  -0.688   5.408   2.674
   98OSM    H8T 9563  -0.659   5.572   2.616
   98OSM    C9S 9564  -0.619   5.555   2.820
   98OSM    H9S 9565  -0.729   5.565   2.830
   98OSM    H9T 9566  -0.572   5.655   2.830
   98OSM   C10S 9567  -0.554   5.471   2.929
   98OSM   H10S 9568  -0.443   5.477   2.918
   98OSM   H10T 9569  -0.584   5.365   2.918
   98OSM   C11S 9570  -0.591   5.521   3.070
   98OSM   H11S 9571  -0.695   5.486   3.082
   98OSM   H11T 9572  -0.584   5.632   3.067
   98OSM   C12S 9573  -0.507   5.459   3.176
   98OSM   H12S 9574  -0.399   5.482   3.168
   98OSM   H12T 9575  -0.504   5.351   3.148
   98OSM   C13S 9576  -0.558   5.481   3.317
   98OSM   H13S 9577  -0.482   5.440   3.387
   98OSM   H13T 9578  -0.642   5.413   3.341
   98OSM   C14S 9579  -0.585   5.630   3.348
   98OSM   H14S 9580  -0.683   5.657   3.302
   98OSM   H14T 9581  -0.512   5.696   3.297
   98OSM   C15S 9582  -0.599   5.665   3.504
   98OSM   H15S 9583  -0.499   5.656   3.552
   98OSM   H15T 9584  -0.663   5.593   3.559
   98OSM   C16S 9585  -0.636   5.812   3.526
   98OSM   H16S 9586  -0.732   5.826   3.472
   98OSM   H16T 9587  -0.566   5.885   3.480
   98OSM   C17S 9588  -0.649   5.856   3.673
   98OSM   H17S 9589  -0.556   5.812   3.716
   98OSM   H17T 9590  -0.735   5.806   3.721
   98OSM   C18S 9591  -0.659   6.007   3.696
   98OSM   H18S 9592  -0.755   6.038   3.649
   98OSM   H18T 9593  -0.667   6.019   3.806
   98OSM   H18U 9594  -0.572   6.065   3.657
   98OSM    C1F 9595  -0.030   5.689   2.366
   98OSM     OF 9596  -0.035   5.760   2.267
   98OSM    C2F 9597   0.013   5.733   2.497
   98OSM    H2F 9598   0.014   5.647   2.568
   98OSM    H2G 9599  -0.063   5.812   2.516
   98OSM    C3F 9600   0.167   5.781   2.493
   98OSM    H3F 9601   0.197   5.832   2.587
   98OSM    H3G 9602   0.180   5.864   2.420
   98OSM    C4F 9603   0.268   5.670   2.461
   98OSM    H4F 9604   0.292   5.687   2.354
   98OSM    H4G 9605   0.217   5.571   2.466
   98OSM    C5F 9606   0.395   5.670   2.545
   98OSM    H5F 9607   0.436   5.773   2.550
   98OSM    H5G 9608   0.476   5.615   2.493
   98OSM    C6F 9609   0.381   5.635   2.705
   98OSM    H6F 9610   0.323   5.542   2.723
   98OSM    H6G 9611   0.319   5.722   2.736
   98OSM    C7F 9612   0.521   5.628   2.765
   98OSM    H7F 9613   0.559   5.732   2.755
   98OSM    H7G 9614   0.583   5.559   2.704
   98OSM    C8F 9615   0.528   5.576   2.914
   98OSM    H8F 9616   0.477   5.659   2.967
   98OSM    H8G 9617   0.635   5.593   2.938
   98OSM    C9F 9618   0.478   5.437   2.945
   98OSM    H9F 9619   0.437   5.384   2.858
   98OSM   C10F 9620   0.478   5.376   3.066
   98OSM   H10F 9621   0.442   5.274   3.085
   98OSM   C11F 9622   0.530   5.459   3.183
   98OSM   H11F 9623   0.498   5.565   3.173
   98OSM   H11G 9624   0.641   5.464   3.187
   98OSM   C12F 9625   0.507   5.407   3.331
   98OSM   H12F 9626   0.401   5.410   3.365
   98OSM   H12G 9627   0.565   5.475   3.397
   98OSM   C13F 9628   0.550   5.267   3.350
   98OSM   H13F 9629   0.627   5.240   3.274
   98OSM   H13G 9630   0.461   5.212   3.312
   98OSM   C14F 9631   0.572   5.219   3.493
   98OSM   H14F 9632   0.491   5.255   3.559
   98OSM   H14G 9633   0.668   5.256   3.534
   98OSM   C15F 9634   0.580   5.066   3.505
   98OSM   H15F 9635   0.660   5.032   3.435
   98OSM   H15G 9636   0.481   5.026   3.475
   98OSM   C16F 9637   0.619   5.010   3.643
   98OSM   H16F 9638   0.556   5.066   3.715
   98OSM   H16G 9639   0.726   5.041   3.650
   98OSM   C17F 9640   0.636   4.857   3.657
   98OSM   H17F 9641   0.630   4.835   3.766
   98OSM   H17G 9642   0.735   4.833   3.613
   98OSM   C18F 9643   0.518   4.776   3.586
   98OSM   H18F 9644   0.529   4.756   3.477
   98OSM   H18G 9645   0.418   4.820   3.606
   98OSM   H18H 9646   0.509   4.678   3.638
   99OSM      N 9647   5.465   0.289   1.690
   99OSM    C15 9648   5.614   0.278   1.698
   99OSM   H15A 9649   5.652   0.355   1.632
   99OSM   H15B 9650   5.651   0.180   1.669
   99OSM   H15C 9651   5.653   0.290   1.798
   99OSM    C14 9652   5.436   0.436   1.698
   99OSM   H14A 9653   5.330   0.453   1.690
   99OSM   H14B 9654   5.472   0.500   1.618
   99OSM   H14C 9655   5.470   0.477   1.791
   99OSM    C13 9656   5.418   0.243   1.559
   99OSM   H13A 9657   5.467   0.293   1.477
   99OSM   H13B 9658   5.310   0.253   1.559
   99OSM   H13C 9659   5.447   0.141   1.536
   99OSM    C12 9660   5.395   0.208   1.807
   99OSM   H12A 9661   5.428   0.251   1.901
   99OSM   H12B 9662   5.431   0.106   1.809
   99OSM    C11 9663   5.243   0.194   1.802
   99OSM   H11A 9664   5.207   0.116   1.871
   99OSM   H11B 9665   5.224   0.136   1.709
   99OSM      P 9666   5.066   0.346   1.925
   99OSM    O13 9667   5.026   0.489   1.926
   99OSM    O14 9668   4.955   0.249   1.892
   99OSM    O11 9669   5.142   0.314   2.052
   99OSM    O12 9670   5.174   0.323   1.809
   99OSM    C1S 9671   5.081   0.318   2.176
   99OSM    H1S 9672   5.003   0.239   2.173
   99OSM    H1T 9673   5.021   0.410   2.195
   99OSM     NF 9674   5.120   0.295   2.427
   99OSM    HNF 9675   5.137   0.387   2.462
   99OSM    C2S 9676   5.183   0.291   2.294
   99OSM    H2S 9677   5.221   0.187   2.287
   99OSM    C3S 9678   5.311   0.387   2.275
   99OSM    H3S 9679   5.269   0.489   2.286
   99OSM     O3 9680   5.372   0.372   2.143
   99OSM    HO3 9681   5.296   0.336   2.096
   99OSM    C4S 9682   5.410   0.374   2.386
   99OSM    H4S 9683   5.380   0.424   2.480
   99OSM    C5S 9684   5.536   0.330   2.381
   99OSM    H5S 9685   5.586   0.289   2.292
   99OSM    C6S 9686   5.636   0.327   2.495
   99OSM    H6S 9687   5.716   0.399   2.465
   99OSM    H6T 9688   5.681   0.226   2.493
   99OSM    C7S 9689   5.583   0.343   2.634
   99OSM    H7S 9690   5.483   0.297   2.638
   99OSM    H7T 9691   5.564   0.451   2.652
   99OSM    C8S 9692   5.674   0.282   2.738
   99OSM    H8S 9693   5.779   0.317   2.744
   99OSM    H8T 9694   5.684   0.172   2.727
   99OSM    C9S 9695   5.633   0.306   2.882
   99OSM    H9S 9696   5.525   0.288   2.902
   99OSM    H9T 9697   5.668   0.411   2.889
   99OSM   C10S 9698   5.727   0.237   2.985
   99OSM   H10S 9699   5.832   0.263   2.961
   99OSM   H10T 9700   5.708   0.129   2.967
   99OSM   C11S 9701   5.683   0.273   3.128
   99OSM   H11S 9702   5.590   0.217   3.153
   99OSM   H11T 9703   5.655   0.380   3.138
   99OSM   C12S 9704   5.800   0.232   3.224
   99OSM   H12S 9705   5.897   0.283   3.204
   99OSM   H12T 9706   5.821   0.124   3.212
   99OSM   C13S 9707   5.754   0.283   3.361
   99OSM   H13S 9708   5.657   0.238   3.391
   99OSM   H13T 9709   5.729   0.391   3.350
   99OSM   C14S 9710   5.861   0.272   3.470
   99OSM   H14S 9711   5.865   0.361   3.537
   99OSM   H14T 9712   5.961   0.269   3.423
   99OSM   C15S 9713   5.853   0.153   3.569
   99OSM   H15S 9714   5.880   0.057   3.520
   99OSM   H15T 9715   5.752   0.143   3.615
   99OSM   C16S 9716   5.945   0.168   3.693
   99OSM   H16S 9717   5.920   0.265   3.740
   99OSM   H16T 9718   6.047   0.177   3.650
   99OSM   C17S 9719   5.925   0.053   3.796
   99OSM   H17S 9720   5.960  -0.040   3.747
   99OSM   H17T 9721   5.817   0.050   3.821
   99OSM   C18S 9722   5.997   0.081   3.929
   99OSM   H18S 9723   5.971   0.187   3.951
   99OSM   H18T 9724   6.105   0.061   3.913
   99OSM   H18U 9725   5.964   0.026   4.020
   99OSM    C1F 9726   5.035   0.208   2.475
   99OSM     OF 9727   5.005   0.102   2.418
   99OSM    C2F 9728   4.972   0.243   2.608
   99OSM    H2F 9729   4.972   0.354   2.614
   99OSM    H2G 9730   5.033   0.207   2.693
   99OSM    C3F 9731   4.823   0.184   2.621
   99OSM    H3F 9732   4.804   0.075   2.625
   99OSM    H3G 9733   4.764   0.229   2.538
   99OSM    C4F 9734   4.753   0.227   2.752
   99OSM    H4F 9735   4.646   0.199   2.741
   99OSM    H4G 9736   4.773   0.335   2.770
   99OSM    C5F 9737   4.799   0.144   2.869
   99OSM    H5F 9738   4.910   0.150   2.873
   99OSM    H5G 9739   4.771   0.037   2.870
   99OSM    C6F 9740   4.764   0.202   3.005
   99OSM    H6F 9741   4.662   0.171   3.036
   99OSM    H6G 9742   4.770   0.312   3.007
   99OSM    C7F 9743   4.867   0.165   3.113
   99OSM    H7F 9744   4.968   0.206   3.092
   99OSM    H7G 9745   4.868   0.055   3.132
   99OSM    C8F 9746   4.836   0.226   3.251
   99OSM    H8F 9747   4.863   0.333   3.244
   99OSM    H8G 9748   4.903   0.185   3.330
   99OSM    C9F 9749   4.700   0.215   3.314
   99OSM    H9F 9750   4.623   0.190   3.239
   99OSM   C10F 9751   4.673   0.231   3.443
   99OSM   H10F 9752   4.575   0.206   3.488
   99OSM   C11F 9753   4.777   0.277   3.550
   99OSM   H11F 9754   4.804   0.382   3.524
   99OSM   H11G 9755   4.868   0.216   3.565
   99OSM   C12F 9756   4.703   0.287   3.685
   99OSM   H12F 9757   4.664   0.186   3.710
   99OSM   H12G 9758   4.613   0.352   3.685
   99OSM   C13F 9759   4.783   0.349   3.802
   99OSM   H13F 9760   4.872   0.283   3.816
   99OSM   H13G 9761   4.729   0.348   3.899
   99OSM   C14F 9762   4.828   0.491   3.757
   99OSM   H14F 9763   4.738   0.555   3.741
   99OSM   H14G 9764   4.899   0.491   3.672
   99OSM   C15F 9765   4.912   0.559   3.869
   99OSM   H15F 9766   5.001   0.493   3.878
   99OSM   H15G 9767   4.864   0.560   3.969
   99OSM   C16F 9768   4.966   0.693   3.832
   99OSM   H16F 9769   4.884   0.767   3.843
   99OSM   H16G 9770   4.997   0.696   3.726
   99OSM   C17F 9771   5.089   0.738   3.907
   99OSM   H17F 9772   5.174   0.741   3.836
   99OSM   H17G 9773   5.114   0.658   3.979
   99OSM   C18F 9774   5.085   0.870   3.979
   99OSM   H18F 9775   5.114   0.956   3.914
   99OSM   H18G 9776   5.168   0.868   4.053
   99OSM   H18H 9777   4.988   0.897   4.025
  100OSM      N 9778   0.849   6.856   1.685
  100OSM    C15 9779   0.878   6.712   1.712
  100OSM   H15A 9780   0.797   6.653   1.752
  100OSM   H15B 9781   0.965   6.700   1.773
  100OSM   H15C 9782   0.897   6.661   1.618
  100OSM    C14 9783   0.963   6.917   1.615
  100OSM   H14A 9784   1.052   6.923   1.677
  100OSM   H14B 9785   0.931   7.019   1.596
  100OSM   H14C 9786   0.996   6.882   1.518
  100OSM    C13 9787   0.730   6.867   1.599
  100OSM   H13A 9788   0.744   6.804   1.512
  100OSM   H13B 9789   0.722   6.968   1.560
  100OSM   H13C 9790   0.641   6.830   1.648
  100OSM    C12 9791   0.823   6.929   1.808
  100OSM   H12A 9792   0.743   6.881   1.862
  100OSM   H12B 9793   0.788   7.027   1.780
  100OSM    C11 9794   0.942   6.937   1.911
  100OSM   H11A 9795   0.988   6.836   1.919
  100OSM   H11B 9796   0.912   6.959   2.016
  100OSM      P 9797   1.033   7.183   1.872
  100OSM    O13 9798   1.161   7.231   1.808
  100OSM    O14 9799   0.906   7.231   1.813
  100OSM    O11 9800   1.029   7.215   2.024
  100OSM    O12 9801   1.045   7.021   1.868
  100OSM    C1S 9802   1.121   7.129   2.108
  100OSM    H1S 9803   1.227   7.142   2.076
  100OSM    H1T 9804   1.090   7.023   2.096
  100OSM     NF 9805   1.206   7.080   2.330
  100OSM    HNF 9806   1.172   7.031   2.410
  100OSM    C2S 9807   1.110   7.164   2.260
  100OSM    H2S 9808   1.136   7.271   2.278
  100OSM    C3S 9809   0.966   7.154   2.325
  100OSM    H3S 9810   0.925   7.055   2.299
  100OSM     O3 9811   0.871   7.244   2.270
  100OSM    HO3 9812   0.900   7.259   2.180
  100OSM    C4S 9813   0.966   7.172   2.477
  100OSM    H4S 9814   1.024   7.259   2.511
  100OSM    C5S 9815   0.907   7.092   2.573
  100OSM    H5S 9816   0.844   7.008   2.540
  100OSM    C6S 9817   0.918   7.102   2.727
  100OSM    H6S 9818   0.999   7.042   2.775
  100OSM    H6T 9819   0.822   7.078   2.778
  100OSM    C7S 9820   0.941   7.246   2.771
  100OSM    H7S 9821   0.875   7.317   2.717
  100OSM    H7T 9822   1.042   7.269   2.732
  100OSM    C8S 9823   0.938   7.254   2.922
  100OSM    H8S 9824   1.004   7.181   2.974
  100OSM    H8T 9825   0.831   7.224   2.932
  100OSM    C9S 9826   0.931   7.395   2.983
  100OSM    H9S 9827   0.832   7.440   2.963
  100OSM    H9T 9828   1.012   7.461   2.944
  100OSM   C10S 9829   0.946   7.388   3.134
  100OSM   H10S 9830   1.054   7.377   3.158
  100OSM   H10T 9831   0.889   7.303   3.176
  100OSM   C11S 9832   0.887   7.507   3.209
  100OSM   H11S 9833   0.780   7.513   3.181
  100OSM   H11T 9834   0.935   7.600   3.170
  100OSM   C12S 9835   0.909   7.504   3.354
  100OSM   H12S 9836   1.017   7.495   3.378
  100OSM   H12T 9837   0.855   7.417   3.398
  100OSM   C13S 9838   0.857   7.629   3.440
  100OSM   H13S 9839   0.765   7.660   3.387
  100OSM   H13T 9840   0.938   7.705   3.439
  100OSM   C14S 9841   0.808   7.595   3.589
  100OSM   H14S 9842   0.739   7.509   3.577
  100OSM   H14T 9843   0.724   7.664   3.615
  100OSM   C15S 9844   0.912   7.566   3.698
  100OSM   H15S 9845   0.987   7.645   3.717
  100OSM   H15T 9846   0.972   7.479   3.664
  100OSM   C16S 9847   0.845   7.506   3.828
  100OSM   H16S 9848   0.930   7.470   3.890
  100OSM   H16T 9849   0.795   7.415   3.788
  100OSM   C17S 9850   0.781   7.602   3.925
  100OSM   H17S 9851   0.825   7.699   3.892
  100OSM   H17T 9852   0.813   7.583   4.030
  100OSM   C18S 9853   0.631   7.601   3.918
  100OSM   H18S 9854   0.587   7.503   3.948
  100OSM   H18T 9855   0.602   7.631   3.815
  100OSM   H18U 9856   0.581   7.690   3.963
  100OSM    C1F 9857   1.338   7.121   2.318
  100OSM     OF 9858   1.367   7.230   2.273
  100OSM    C2F 9859   1.446   7.024   2.359
  100OSM    H2F 9860   1.504   7.008   2.266
  100OSM    H2G 9861   1.391   6.937   2.399
  100OSM    C3F 9862   1.541   7.081   2.462
  100OSM    H3F 9863   1.581   7.177   2.423
  100OSM    H3G 9864   1.627   7.012   2.477
  100OSM    C4F 9865   1.477   7.108   2.600
  100OSM    H4F 9866   1.392   7.179   2.586
  100OSM    H4G 9867   1.547   7.159   2.670
  100OSM    C5F 9868   1.425   6.977   2.662
  100OSM    H5F 9869   1.508   6.909   2.689
  100OSM    H5G 9870   1.363   6.919   2.591
  100OSM    C6F 9871   1.342   6.995   2.785
  100OSM    H6F 9872   1.313   6.889   2.802
  100OSM    H6G 9873   1.250   7.056   2.786
  100OSM    C7F 9874   1.426   7.039   2.908
  100OSM    H7F 9875   1.441   7.148   2.923
  100OSM    H7G 9876   1.529   6.999   2.905
  100OSM    C8F 9877   1.381   6.972   3.034
  100OSM    H8F 9878   1.436   7.011   3.123
  100OSM    H8G 9879   1.397   6.862   3.037
  100OSM    C9F 9880   1.238   6.990   3.059
  100OSM    H9F 9881   1.170   6.920   3.008
  100OSM   C10F 9882   1.185   7.072   3.146
  100OSM   H10F 9883   1.076   7.079   3.152
  100OSM   C11F 9884   1.256   7.160   3.235
  100OSM   H11F 9885   1.181   7.238   3.260
  100OSM   H11G 9886   1.353   7.200   3.199
  100OSM   C12F 9887   1.277   7.078   3.368
  100OSM   H12F 9888   1.364   7.009   3.368
  100OSM   H12G 9889   1.188   7.015   3.388
  100OSM   C13F 9890   1.290   7.174   3.486
  100OSM   H13F 9891   1.204   7.245   3.486
  100OSM   H13G 9892   1.382   7.233   3.469
  100OSM   C14F 9893   1.310   7.115   3.630
  100OSM   H14F 9894   1.368   7.186   3.692
  100OSM   H14G 9895   1.381   7.029   3.622
  100OSM   C15F 9896   1.178   7.072   3.698
  100OSM   H15F 9897   1.150   6.971   3.663
  100OSM   H15G 9898   1.103   7.152   3.680
  100OSM   C16F 9899   1.209   7.053   3.854
  100OSM   H16F 9900   1.309   7.003   3.856
  100OSM   H16G 9901   1.129   6.982   3.882
  100OSM   C17F 9902   1.207   7.185   3.933
  100OSM   H17F 9903   1.264   7.257   3.871
  100OSM   H17G 9904   1.252   7.175   4.034
  100OSM   C18F 9905   1.067   7.243   3.938
  100OSM   H18F 9906   1.028   7.259   3.835
  100OSM   H18G 9907   1.055   7.339   3.993
  100OSM   H18H 9908   1.006   7.160   3.979
  101SLPC     N 9909   2.870   2.735   6.616
  101SLPC   C13 9910   2.915   2.670   6.493
  101SLPC  H13A 9911   2.924   2.736   6.408
  101SLPC  H13B 9912   3.016   2.635   6.500
  101SLPC  H13C 9913   2.858   2.581   6.473
  101SLPC   C14 9914   2.928   2.872   6.632
  101SLPC  H14A 9915   2.906   2.923   6.539
  101SLPC  H14B 9916   2.888   2.940   6.705
  101SLPC  H14C 9917   3.035   2.870   6.644
  101SLPC   C15 9918   2.920   2.649   6.731
  101SLPC  H15A 9919   3.027   2.639   6.722
  101SLPC  H15B 9920   2.908   2.699   6.826
  101SLPC  H15C 9921   2.872   2.553   6.728
  101SLPC   C12 9922   2.721   2.739   6.626
  101SLPC  H12A 9923   2.678   2.804   6.551
  101SLPC  H12B 9924   2.700   2.787   6.720
  101SLPC   C11 9925   2.633   2.611   6.616
  101SLPC  H11A 9926   2.533   2.651   6.646
  101SLPC  H11B 9927   2.661   2.534   6.691
  101SLPC     P 9928   2.524   2.602   6.379
  101SLPC   O13 9929   2.545   2.506   6.264
  101SLPC   O14 9930   2.390   2.599   6.442
  101SLPC   O12 9931   2.630   2.555   6.487
  101SLPC   O11 9932   2.556   2.754   6.348
  101SLPC    C1 9933   2.684   2.780   6.295
  101SLPC    HA 9934   2.750   2.827   6.371
  101SLPC    HB 9935   2.734   2.690   6.253
  101SLPC    C2 9936   2.673   2.894   6.186
  101SLPC    HS 9937   2.616   2.977   6.233
  101SLPC   O21 9938   2.603   2.841   6.074
  101SLPC   C21 9939   2.504   2.902   6.014
  101SLPC   O22 9940   2.464   3.015   6.041
  101SLPC   C22 9941   2.456   2.821   5.899
  101SLPC   H2R 9942   2.444   2.716   5.933
  101SLPC   H2S 9943   2.359   2.868   5.873
  101SLPC    C3 9944   2.805   2.939   6.135
  101SLPC    HX 9945   2.852   2.854   6.082
  101SLPC    HY 9946   2.873   2.960   6.221
  101SLPC   O31 9947   2.802   3.049   6.051
  101SLPC   C31 9948   2.916   3.068   5.986
  101SLPC   O32 9949   3.021   3.010   6.008
  101SLPC   C32 9950   2.894   3.191   5.900
  101SLPC   H2X 9951   2.900   3.281   5.965
  101SLPC   H2Y 9952   2.791   3.195   5.857
  101SLPC   C23 9953   2.554   2.822   5.774
  101SLPC   H3R 9954   2.512   2.746   5.705
  101SLPC   H3S 9955   2.650   2.783   5.816
  101SLPC   C24 9956   2.584   2.963   5.717
  101SLPC   H4R 9957   2.630   3.028   5.794
  101SLPC   H4S 9958   2.483   3.005   5.697
  101SLPC   C25 9959   2.654   2.952   5.585
  101SLPC   H5R 9960   2.717   2.862   5.595
  101SLPC   H5S 9961   2.719   3.039   5.560
  101SLPC   C26 9962   2.549   2.954   5.470
  101SLPC   H6R 9963   2.506   3.056   5.466
  101SLPC   H6S 9964   2.467   2.883   5.494
  101SLPC   C27 9965   2.603   2.920   5.326
  101SLPC   H7R 9966   2.509   2.940   5.269
  101SLPC   H7S 9967   2.639   2.816   5.310
  101SLPC   C28 9968   2.722   3.008   5.294
  101SLPC   H8R 9969   2.818   2.976   5.339
  101SLPC   H8S 9970   2.712   3.113   5.328
  101SLPC   C29 9971   2.734   3.008   5.145
  101SLPC   H9R 9972   2.634   3.014   5.098
  101SLPC  C210 9973   2.841   2.981   5.072
  101SLPC  H10R 9974   2.824   2.979   4.963
  101SLPC  C211 9975   2.979   2.955   5.117
  101SLPC  H11R 9976   3.007   2.998   5.215
  101SLPC  H11S 9977   3.030   3.019   5.041
  101SLPC  C212 9978   3.027   2.811   5.111
  101SLPC  H12R 9979   2.983   2.754   5.028
  101SLPC  C213 9980   3.100   2.738   5.192
  101SLPC  H13R 9981   3.115   2.631   5.170
  101SLPC  C214 9982   3.171   2.777   5.318
  101SLPC  H14R 9983   3.231   2.869   5.302
  101SLPC  H14S 9984   3.236   2.697   5.357
  101SLPC  C215 9985   3.077   2.805   5.436
  101SLPC  H15R 9986   2.993   2.733   5.446
  101SLPC  H15S 9987   3.041   2.908   5.413
  101SLPC  C216 9988   3.166   2.817   5.560
  101SLPC  H16R 9989   3.257   2.881   5.553
  101SLPC  H16S 9990   3.206   2.714   5.565
  101SLPC  C217 9991   3.092   2.851   5.693
  101SLPC  H17R 9992   3.041   2.949   5.683
  101SLPC  H17S 9993   3.176   2.859   5.765
  101SLPC  C218 9994   2.993   2.748   5.743
  101SLPC  H18R 9995   2.948   2.767   5.843
  101SLPC  H18S 9996   3.019   2.640   5.734
  101SLPC  H18T 9997   2.908   2.780   5.680
  101SLPC   C33 9998   3.006   3.215   5.791
  101SLPC   H3X 9999   3.092   3.145   5.789
  101SLPC   H3Y10000   3.048   3.315   5.813
  101SLPC   C3410001   2.940   3.206   5.657
  101SLPC   H4X10002   2.869   3.290   5.646
  101SLPC   H4Y10003   2.885   3.111   5.645
  101SLPC   C3510004   3.046   3.225   5.552
  101SLPC   H5X10005   3.114   3.138   5.549
  101SLPC   H5Y10006   3.111   3.310   5.582
  101SLPC   C3610007   2.986   3.260   5.410
  101SLPC   H6X10008   2.907   3.337   5.404
  101SLPC   H6Y10009   2.929   3.168   5.384
  101SLPC   C3710010   3.092   3.296   5.310
  101SLPC   H7X10011   3.176   3.224   5.318
  101SLPC   H7Y10012   3.122   3.401   5.329
  101SLPC   C3810013   3.035   3.308   5.167
  101SLPC   H8X10014   2.948   3.240   5.153
  101SLPC   H8Y10015   3.112   3.260   5.104
  101SLPC   C3910016   3.023   3.453   5.118
  101SLPC   H9X10017   3.117   3.506   5.144
  101SLPC   H9Y10018   2.943   3.502   5.178
  101SLPC  C31010019   2.988   3.463   4.966
  101SLPC  H10X10020   2.901   3.403   4.934
  101SLPC  H10Y10021   3.072   3.415   4.912
  101SLPC  C31110022   2.981   3.609   4.907
  101SLPC  H11X10023   3.068   3.668   4.943
  101SLPC  H11Y10024   2.889   3.662   4.938
  101SLPC  C31210025   2.980   3.603   4.755
  101SLPC  H12X10026   2.893   3.564   4.698
  101SLPC  H12Y10027   3.069   3.543   4.725
  101SLPC  C31310028   2.990   3.755   4.700
  101SLPC  H13X10029   3.039   3.820   4.775
  101SLPC  H13Y10030   2.890   3.801   4.686
  101SLPC  C31410031   3.063   3.770   4.562
  101SLPC  H14X10032   3.174   3.762   4.571
  101SLPC  H14Y10033   3.043   3.874   4.531
  101SLPC  C31510034   3.003   3.679   4.461
  101SLPC  H15X10035   2.893   3.692   4.466
  101SLPC  H15Y10036   3.039   3.578   4.490
  101SLPC  C31610037   3.064   3.703   4.319
  101SLPC  H16X10038   3.026   3.619   4.257
  101SLPC  H16Y10039   3.170   3.677   4.337
  101SLPC  C31710040   3.033   3.840   4.259
  101SLPC  H17X10041   3.077   3.919   4.323
  101SLPC  H17Y10042   2.923   3.850   4.253
  101SLPC  C31810043   3.082   3.850   4.111
  101SLPC  H18X10044   3.193   3.857   4.107
  101SLPC  H18Y10045   3.035   3.938   4.063
  101SLPC  H18Z10046   3.049   3.756   4.061
  102SLPC     N10047   2.304   3.750   6.388
  102SLPC   C1310048   2.276   3.666   6.510
  102SLPC  H13A10049   2.291   3.717   6.604
  102SLPC  H13B10050   2.173   3.636   6.511
  102SLPC  H13C10051   2.332   3.573   6.506
  102SLPC   C1410052   2.450   3.787   6.409
  102SLPC  H14A10053   2.523   3.710   6.387
  102SLPC  H14B10054   2.466   3.867   6.338
  102SLPC  H14C10055   2.476   3.810   6.511
  102SLPC   C1510056   2.222   3.874   6.406
  102SLPC  H15A10057   2.219   3.903   6.510
  102SLPC  H15B10058   2.261   3.951   6.341
  102SLPC  H15C10059   2.119   3.858   6.380
  102SLPC   C1210060   2.271   3.677   6.260
  102SLPC  H12A10061   2.342   3.596   6.248
  102SLPC  H12B10062   2.287   3.731   6.168
  102SLPC   C1110063   2.121   3.634   6.236
  102SLPC  H11A10064   2.123   3.588   6.135
  102SLPC  H11B10065   2.065   3.728   6.222
  102SLPC     P10066   2.118   3.388   6.348
  102SLPC   O1310067   2.248   3.385   6.419
  102SLPC   O1410068   2.011   3.310   6.416
  102SLPC   O1210069   2.064   3.544   6.334
  102SLPC   O1110070   2.136   3.356   6.195
  102SLPC    C110071   2.136   3.224   6.136
  102SLPC    HA10072   2.243   3.199   6.126
  102SLPC    HB10073   2.084   3.144   6.195
  102SLPC    C210074   2.071   3.238   5.999
  102SLPC    HS10075   2.093   3.339   5.959
  102SLPC   O2110076   1.927   3.206   6.018
  102SLPC   C2110077   1.851   3.307   5.991
  102SLPC   O2210078   1.877   3.421   5.954
  102SLPC   C2210079   1.706   3.251   6.007
  102SLPC   H2R10080   1.702   3.142   5.989
  102SLPC   H2S10081   1.667   3.273   6.109
  102SLPC    C310082   2.142   3.138   5.900
  102SLPC    HX10083   2.117   3.033   5.923
  102SLPC    HY10084   2.252   3.152   5.910
  102SLPC   O3110085   2.087   3.151   5.771
  102SLPC   C3110086   2.146   3.093   5.670
  102SLPC   O3210087   2.234   3.013   5.684
  102SLPC   C3210088   2.107   3.138   5.532
  102SLPC   H2X10089   2.133   3.063   5.454
  102SLPC   H2Y10090   2.165   3.232   5.518
  102SLPC   C2310091   1.600   3.301   5.906
  102SLPC   H3R10092   1.591   3.412   5.901
  102SLPC   H3S10093   1.497   3.265   5.930
  102SLPC   C2410094   1.643   3.243   5.767
  102SLPC   H4R10095   1.639   3.133   5.777
  102SLPC   H4S10096   1.748   3.275   5.749
  102SLPC   C2510097   1.543   3.279   5.654
  102SLPC   H5R10098   1.575   3.381   5.625
  102SLPC   H5S10099   1.438   3.276   5.690
  102SLPC   C2610100   1.550   3.175   5.545
  102SLPC   H6R10101   1.559   3.074   5.592
  102SLPC   H6S10102   1.648   3.187   5.495
  102SLPC   C2710103   1.433   3.187   5.448
  102SLPC   H7R10104   1.439   3.289   5.407
  102SLPC   H7S10105   1.339   3.177   5.507
  102SLPC   C2810106   1.439   3.078   5.339
  102SLPC   H8R10107   1.434   2.985   5.400
  102SLPC   H8S10108   1.541   3.078   5.294
  102SLPC   C2910109   1.335   3.095   5.239
  102SLPC   H9R10110   1.245   3.040   5.270
  102SLPC  C21010111   1.347   3.140   5.112
  102SLPC  H10R10112   1.254   3.142   5.052
  102SLPC  C21110113   1.481   3.197   5.056
  102SLPC  H11R10114   1.494   3.169   4.949
  102SLPC  H11S10115   1.564   3.139   5.102
  102SLPC  C21210116   1.500   3.345   5.078
  102SLPC  H12R10117   1.561   3.356   5.170
  102SLPC  C21310118   1.470   3.452   5.002
  102SLPC  H13R10119   1.497   3.548   5.049
  102SLPC  C21410120   1.397   3.467   4.876
  102SLPC  H14R10121   1.315   3.540   4.893
  102SLPC  H14S10122   1.374   3.367   4.835
  102SLPC  C21510123   1.467   3.542   4.759
  102SLPC  H15R10124   1.546   3.470   4.731
  102SLPC  H15S10125   1.509   3.640   4.791
  102SLPC  C21610126   1.365   3.560   4.644
  102SLPC  H16R10127   1.270   3.604   4.680
  102SLPC  H16S10128   1.335   3.457   4.616
  102SLPC  C21710129   1.414   3.647   4.522
  102SLPC  H17R10130   1.417   3.753   4.555
  102SLPC  H17S10131   1.327   3.650   4.453
  102SLPC  C21810132   1.545   3.597   4.460
  102SLPC  H18R10133   1.520   3.499   4.413
  102SLPC  H18S10134   1.625   3.579   4.536
  102SLPC  H18T10135   1.581   3.677   4.391
  102SLPC   C3310136   1.959   3.190   5.525
  102SLPC   H3X10137   1.927   3.251   5.612
  102SLPC   H3Y10138   1.894   3.101   5.518
  102SLPC   C3410139   1.934   3.286   5.405
  102SLPC   H4X10140   2.026   3.346   5.392
  102SLPC   H4Y10141   1.849   3.357   5.418
  102SLPC   C3510142   1.900   3.214   5.270
  102SLPC   H5X10143   1.801   3.167   5.291
  102SLPC   H5Y10144   1.970   3.130   5.253
  102SLPC   C3610145   1.901   3.304   5.140
  102SLPC   H6X10146   2.000   3.356   5.144
  102SLPC   H6Y10147   1.830   3.389   5.144
  102SLPC   C3710148   1.883   3.217   5.019
  102SLPC   H7X10149   1.788   3.162   5.038
  102SLPC   H7Y10150   1.959   3.136   5.016
  102SLPC   C3810151   1.868   3.294   4.887
  102SLPC   H8X10152   1.965   3.346   4.867
  102SLPC   H8Y10153   1.794   3.374   4.907
  102SLPC   C3910154   1.828   3.215   4.764
  102SLPC   H9X10155   1.722   3.189   4.784
  102SLPC   H9Y10156   1.871   3.113   4.778
  102SLPC  C31010157   1.850   3.283   4.635
  102SLPC  H10X10158   1.947   3.335   4.625
  102SLPC  H10Y10159   1.768   3.358   4.629
  102SLPC  C31110160   1.835   3.178   4.526
  102SLPC  H11X10161   1.759   3.103   4.556
  102SLPC  H11Y10162   1.936   3.135   4.513
  102SLPC  C31210163   1.797   3.238   4.386
  102SLPC  H12X10164   1.695   3.281   4.398
  102SLPC  H12Y10165   1.793   3.162   4.305
  102SLPC  C31310166   1.887   3.340   4.331
  102SLPC  H13X10167   1.978   3.289   4.292
  102SLPC  H13Y10168   1.911   3.421   4.403
  102SLPC  C31410169   1.811   3.424   4.222
  102SLPC  H14X10170   1.723   3.481   4.259
  102SLPC  H14Y10171   1.778   3.356   4.141
  102SLPC  C31510172   1.914   3.513   4.146
  102SLPC  H15X10173   1.867   3.533   4.047
  102SLPC  H15Y10174   2.005   3.453   4.125
  102SLPC  C31610175   1.955   3.642   4.215
  102SLPC  H16X10176   2.041   3.684   4.160
  102SLPC  H16Y10177   1.985   3.605   4.315
  102SLPC  C31710178   1.841   3.750   4.206
  102SLPC  H17X10179   1.750   3.706   4.251
  102SLPC  H17Y10180   1.820   3.780   4.101
  102SLPC  C31810181   1.877   3.868   4.297
  102SLPC  H18X10182   1.908   3.821   4.393
  102SLPC  H18Y10183   1.790   3.935   4.312
  102SLPC  H18Z10184   1.968   3.923   4.265
  103SLPC     N10185   1.586   2.801   6.465
  103SLPC   C1310186   1.706   2.730   6.527
  103SLPC  H13A10187   1.744   2.658   6.455
  103SLPC  H13B10188   1.781   2.800   6.561
  103SLPC  H13C10189   1.674   2.670   6.611
  103SLPC   C1410190   1.543   2.888   6.573
  103SLPC  H14A10191   1.520   2.835   6.664
  103SLPC  H14B10192   1.600   2.976   6.599
  103SLPC  H14C10193   1.452   2.936   6.541
  103SLPC   C1510194   1.480   2.696   6.452
  103SLPC  H15A10195   1.396   2.740   6.401
  103SLPC  H15B10196   1.524   2.619   6.390
  103SLPC  H15C10197   1.455   2.651   6.547
  103SLPC   C1210198   1.626   2.874   6.336
  103SLPC  H12A10199   1.654   2.798   6.263
  103SLPC  H12B10200   1.711   2.940   6.347
  103SLPC   C1110201   1.518   2.956   6.267
  103SLPC  H11A10202   1.560   3.035   6.200
  103SLPC  H11B10203   1.471   3.016   6.348
  103SLPC     P10204   1.290   2.888   6.173
  103SLPC   O1310205   1.223   2.782   6.243
  103SLPC   O1410206   1.251   3.023   6.217
  103SLPC   O1210207   1.441   2.865   6.197
  103SLPC   O1110208   1.274   2.854   6.018
  103SLPC    C110209   1.315   2.943   5.913
  103SLPC    HA10210   1.234   2.964   5.840
  103SLPC    HB10211   1.345   3.042   5.954
  103SLPC    C210212   1.440   2.891   5.836
  103SLPC    HS10213   1.471   2.968   5.763
  103SLPC   O2110214   1.415   2.758   5.785
  103SLPC   C2110215   1.323   2.765   5.689
  103SLPC   O2210216   1.283   2.869   5.636
  103SLPC   C2210217   1.287   2.621   5.652
  103SLPC   H2R10218   1.312   2.562   5.742
  103SLPC   H2S10219   1.177   2.611   5.658
  103SLPC    C310220   1.561   2.884   5.926
  103SLPC    HX10221   1.565   2.803   6.001
  103SLPC    HY10222   1.561   2.977   5.988
  103SLPC   O3110223   1.678   2.893   5.845
  103SLPC   C3110224   1.766   2.792   5.850
  103SLPC   O3210225   1.745   2.681   5.900
  103SLPC   C3210226   1.884   2.825   5.766
  103SLPC   H2X10227   1.960   2.744   5.756
  103SLPC   H2Y10228   1.929   2.918   5.808
  103SLPC   C2310229   1.359   2.579   5.525
  103SLPC   H3R10230   1.368   2.468   5.523
  103SLPC   H3S10231   1.467   2.606   5.526
  103SLPC   C2410232   1.300   2.630   5.398
  103SLPC   H4R10233   1.303   2.741   5.402
  103SLPC   H4S10234   1.194   2.599   5.387
  103SLPC   C2510235   1.380   2.605   5.264
  103SLPC   H5R10236   1.489   2.612   5.286
  103SLPC   H5S10237   1.355   2.682   5.188
  103SLPC   C2610238   1.341   2.468   5.203
  103SLPC   H6R10239   1.356   2.396   5.286
  103SLPC   H6S10240   1.418   2.455   5.124
  103SLPC   C2710241   1.214   2.442   5.126
  103SLPC   H7R10242   1.132   2.450   5.201
  103SLPC   H7S10243   1.231   2.337   5.092
  103SLPC   C2810244   1.177   2.532   5.006
  103SLPC   H8R10245   1.182   2.637   5.044
  103SLPC   H8S10246   1.068   2.520   4.990
  103SLPC   C2910247   1.250   2.499   4.876
  103SLPC   H9R10248   1.241   2.393   4.848
  103SLPC  C21010249   1.315   2.588   4.801
  103SLPC  H10R10250   1.367   2.550   4.712
  103SLPC  C21110251   1.325   2.739   4.834
  103SLPC  H11R10252   1.406   2.746   4.910
  103SLPC  H11S10253   1.230   2.766   4.884
  103SLPC  C21210254   1.358   2.827   4.707
  103SLPC  H12R10255   1.451   2.884   4.713
  103SLPC  C21310256   1.279   2.841   4.597
  103SLPC  H13R10257   1.320   2.906   4.519
  103SLPC  C21410258   1.142   2.783   4.567
  103SLPC  H14R10259   1.087   2.855   4.502
  103SLPC  H14S10260   1.085   2.750   4.656
  103SLPC  C21510261   1.154   2.665   4.471
  103SLPC  H15R10262   1.203   2.577   4.518
  103SLPC  H15S10263   1.214   2.686   4.380
  103SLPC  C21610264   1.011   2.603   4.445
  103SLPC  H16R10265   0.958   2.663   4.367
  103SLPC  H16S10266   0.950   2.620   4.536
  103SLPC  C21710267   1.006   2.460   4.401
  103SLPC  H17R10268   0.904   2.425   4.376
  103SLPC  H17S10269   1.035   2.410   4.496
  103SLPC  C21810270   1.094   2.428   4.275
  103SLPC  H18R10271   1.067   2.479   4.180
  103SLPC  H18S10272   1.098   2.317   4.264
  103SLPC  H18T10273   1.198   2.456   4.302
  103SLPC   C3310274   1.830   2.857   5.621
  103SLPC   H3X10275   1.920   2.862   5.556
  103SLPC   H3Y10276   1.779   2.956   5.617
  103SLPC   C3410277   1.730   2.758   5.566
  103SLPC   H4X10278   1.646   2.758   5.639
  103SLPC   H4Y10279   1.776   2.659   5.547
  103SLPC   C3510280   1.671   2.808   5.431
  103SLPC   H5X10281   1.674   2.919   5.434
  103SLPC   H5Y10282   1.564   2.779   5.426
  103SLPC   C3610283   1.750   2.761   5.312
  103SLPC   H6X10284   1.758   2.650   5.306
  103SLPC   H6Y10285   1.846   2.818   5.310
  103SLPC   C3710286   1.682   2.806   5.173
  103SLPC   H7X10287   1.646   2.911   5.183
  103SLPC   H7Y10288   1.593   2.742   5.159
  103SLPC   C3810289   1.782   2.795   5.057
  103SLPC   H8X10290   1.827   2.697   5.085
  103SLPC   H8Y10291   1.871   2.861   5.054
  103SLPC   C3910292   1.714   2.806   4.917
  103SLPC   H9X10293   1.677   2.909   4.900
  103SLPC   H9Y10294   1.626   2.738   4.913
  103SLPC  C31010295   1.809   2.787   4.796
  103SLPC  H10X10296   1.865   2.692   4.808
  103SLPC  H10Y10297   1.879   2.873   4.799
  103SLPC  C31110298   1.742   2.780   4.654
  103SLPC  H11X10299   1.820   2.793   4.576
  103SLPC  H11Y10300   1.663   2.855   4.635
  103SLPC  C31210301   1.668   2.641   4.639
  103SLPC  H12X10302   1.585   2.620   4.710
  103SLPC  H12Y10303   1.739   2.560   4.664
  103SLPC  C31310304   1.628   2.622   4.493
  103SLPC  H13X10305   1.708   2.629   4.417
  103SLPC  H13Y10306   1.554   2.701   4.469
  103SLPC  C31410307   1.567   2.483   4.482
  103SLPC  H14X10308   1.503   2.466   4.571
  103SLPC  H14Y10309   1.654   2.413   4.484
  103SLPC  C31510310   1.477   2.451   4.364
  103SLPC  H15X10311   1.423   2.545   4.340
  103SLPC  H15Y10312   1.392   2.382   4.386
  103SLPC  C31610313   1.558   2.414   4.242
  103SLPC  H16X10314   1.591   2.309   4.258
  103SLPC  H16Y10315   1.642   2.486   4.240
  103SLPC  C31710316   1.473   2.424   4.113
  103SLPC  H17X10317   1.382   2.360   4.115
  103SLPC  H17Y10318   1.544   2.381   4.039
  103SLPC  C31810319   1.435   2.563   4.074
  103SLPC  H18X10320   1.516   2.637   4.091
  103SLPC  H18Y10321   1.336   2.586   4.119
  103SLPC  H18Z10322   1.424   2.568   3.964
  104SLPC     N10323   3.801   0.811   6.363
  104SLPC   C1310324   3.727   0.683   6.387
  104SLPC  H13A10325   3.676   0.644   6.300
  104SLPC  H13B10326   3.789   0.597   6.406
  104SLPC  H13C10327   3.669   0.692   6.478
  104SLPC   C1410328   3.879   0.794   6.242
  104SLPC  H14A10329   3.800   0.762   6.175
  104SLPC  H14B10330   3.915   0.889   6.205
  104SLPC  H14C10331   3.956   0.720   6.255
  104SLPC   C1510332   3.892   0.845   6.470
  104SLPC  H15A10333   3.949   0.758   6.499
  104SLPC  H15B10334   3.963   0.923   6.446
  104SLPC  H15C10335   3.843   0.881   6.559
  104SLPC   C1210336   3.698   0.918   6.334
  104SLPC  H12A10337   3.755   1.008   6.320
  104SLPC  H12B10338   3.633   0.935   6.419
  104SLPC   C1110339   3.608   0.905   6.217
  104SLPC  H11A10340   3.527   0.981   6.222
  104SLPC  H11B10341   3.564   0.803   6.222
  104SLPC     P10342   3.708   1.037   6.012
  104SLPC   O1310343   3.592   1.126   6.019
  104SLPC   O1410344   3.832   1.105   6.045
  104SLPC   O1210345   3.668   0.909   6.093
  104SLPC   O1110346   3.711   0.979   5.871
  104SLPC    C110347   3.591   0.951   5.795
  104SLPC    HA10348   3.578   0.842   5.781
  104SLPC    HB10349   3.498   0.989   5.843
  104SLPC    C210350   3.591   1.011   5.652
  104SLPC    HS10351   3.548   1.113   5.660
  104SLPC   O2110352   3.521   0.912   5.567
  104SLPC   C2110353   3.394   0.928   5.565
  104SLPC   O2210354   3.336   1.028   5.608
  104SLPC   C2210355   3.325   0.809   5.494
  104SLPC   H2R10356   3.295   0.835   5.390
  104SLPC   H2S10357   3.391   0.720   5.505
  104SLPC    C310358   3.737   1.020   5.596
  104SLPC    HX10359   3.791   0.926   5.617
  104SLPC    HY10360   3.793   1.102   5.646
  104SLPC   O3110361   3.734   1.048   5.451
  104SLPC   C3110362   3.727   0.954   5.361
  104SLPC   O3210363   3.759   0.834   5.375
  104SLPC   C3210364   3.675   1.009   5.228
  104SLPC   H2X10365   3.694   0.936   5.145
  104SLPC   H2Y10366   3.719   1.105   5.194
  104SLPC   C2310367   3.186   0.766   5.560
  104SLPC   H3R10368   3.113   0.849   5.554
  104SLPC   H3S10369   3.201   0.752   5.670
  104SLPC   C2410370   3.127   0.630   5.510
  104SLPC   H4R10371   3.025   0.618   5.552
  104SLPC   H4S10372   3.188   0.546   5.550
  104SLPC   C2510373   3.102   0.628   5.359
  104SLPC   H5R10374   3.084   0.524   5.323
  104SLPC   H5S10375   3.193   0.664   5.306
  104SLPC   C2610376   2.985   0.699   5.298
  104SLPC   H6R10377   2.970   0.799   5.345
  104SLPC   H6S10378   2.894   0.640   5.323
  104SLPC   C2710379   3.025   0.726   5.149
  104SLPC   H7R10380   2.933   0.748   5.091
  104SLPC   H7S10381   3.059   0.632   5.102
  104SLPC   C2810382   3.124   0.838   5.127
  104SLPC   H8R10383   3.155   0.850   5.021
  104SLPC   H8S10384   3.220   0.820   5.179
  104SLPC   C2910385   3.078   0.972   5.173
  104SLPC   H9R10386   3.145   1.014   5.250
  104SLPC  C21010387   2.990   1.053   5.118
  104SLPC  H10R10388   2.966   1.154   5.154
  104SLPC  C21110389   2.912   1.019   4.989
  104SLPC  H11R10390   2.879   0.914   4.985
  104SLPC  H11S10391   2.986   1.019   4.906
  104SLPC  C21210392   2.795   1.113   4.962
  104SLPC  H12R10393   2.749   1.154   5.053
  104SLPC  C21310394   2.736   1.146   4.846
  104SLPC  H13R10395   2.646   1.209   4.855
  104SLPC  C21410396   2.785   1.103   4.707
  104SLPC  H14R10397   2.697   1.071   4.647
  104SLPC  H14S10398   2.866   1.027   4.715
  104SLPC  C21510399   2.855   1.217   4.624
  104SLPC  H15R10400   2.951   1.253   4.667
  104SLPC  H15S10401   2.788   1.304   4.607
  104SLPC  C21610402   2.886   1.172   4.474
  104SLPC  H16R10403   2.815   1.091   4.448
  104SLPC  H16S10404   2.991   1.137   4.474
  104SLPC  C21710405   2.865   1.295   4.386
  104SLPC  H17R10406   2.938   1.373   4.418
  104SLPC  H17S10407   2.762   1.333   4.404
  104SLPC  C21810408   2.878   1.271   4.237
  104SLPC  H18R10409   2.878   1.370   4.187
  104SLPC  H18S10410   2.796   1.203   4.207
  104SLPC  H18T10411   2.972   1.222   4.201
  104SLPC   C3310412   3.521   1.019   5.241
  104SLPC   H3X10413   3.491   1.078   5.330
  104SLPC   H3Y10414   3.486   0.913   5.239
  104SLPC   C3410415   3.449   1.084   5.122
  104SLPC   H4X10416   3.502   1.180   5.107
  104SLPC   H4Y10417   3.341   1.110   5.136
  104SLPC   C3510418   3.449   0.993   4.996
  104SLPC   H5X10419   3.368   0.922   5.024
  104SLPC   H5Y10420   3.540   0.931   4.986
  104SLPC   C3610421   3.422   1.062   4.859
  104SLPC   H6X10422   3.504   1.124   4.818
  104SLPC   H6Y10423   3.339   1.137   4.859
  104SLPC   C3710424   3.397   0.957   4.743
  104SLPC   H7X10425   3.322   0.884   4.780
  104SLPC   H7Y10426   3.490   0.896   4.733
  104SLPC   C3810427   3.343   1.013   4.612
  104SLPC   H8X10428   3.424   1.082   4.577
  104SLPC   H8Y10429   3.242   1.060   4.617
  104SLPC   C3910430   3.331   0.901   4.508
  104SLPC   H9X10431   3.258   0.828   4.548
  104SLPC   H9Y10432   3.428   0.848   4.497
  104SLPC  C31010433   3.278   0.954   4.375
  104SLPC  H10X10434   3.344   1.039   4.347
  104SLPC  H10Y10435   3.175   0.994   4.381
  104SLPC  C31110436   3.282   0.842   4.270
  104SLPC  H11X10437   3.206   0.764   4.293
  104SLPC  H11Y10438   3.380   0.794   4.288
  104SLPC  C31210439   3.260   0.876   4.117
  104SLPC  H12X10440   3.159   0.918   4.099
  104SLPC  H12Y10441   3.277   0.783   4.060
  104SLPC  C31310442   3.366   0.985   4.069
  104SLPC  H13X10443   3.459   0.939   4.028
  104SLPC  H13Y10444   3.388   1.056   4.152
  104SLPC  C31410445   3.318   1.081   3.962
  104SLPC  H14X10446   3.289   1.027   3.869
  104SLPC  H14Y10447   3.407   1.144   3.942
  104SLPC  C31510448   3.204   1.173   4.013
  104SLPC  H15X10449   3.219   1.192   4.121
  104SLPC  H15Y10450   3.108   1.118   4.002
  104SLPC  C31610451   3.198   1.305   3.930
  104SLPC  H16X10452   3.171   1.273   3.828
  104SLPC  H16Y10453   3.289   1.367   3.943
  104SLPC  C31710454   3.085   1.397   3.984
  104SLPC  H17X10455   3.104   1.418   4.092
  104SLPC  H17Y10456   2.993   1.337   3.972
  104SLPC  C31810457   3.071   1.534   3.908
  104SLPC  H18X10458   3.169   1.587   3.913
  104SLPC  H18Y10459   2.993   1.598   3.954
  104SLPC  H18Z10460   3.057   1.516   3.799
  105SLPC     N10461   4.544   5.939   6.322
  105SLPC   C1310462   4.552   5.809   6.256
  105SLPC  H13A10463   4.523   5.729   6.322
  105SLPC  H13B10464   4.486   5.811   6.171
  105SLPC  H13C10465   4.642   5.777   6.207
  105SLPC   C1410466   4.647   5.933   6.428
  105SLPC  H14A10467   4.634   5.854   6.501
  105SLPC  H14B10468   4.750   5.923   6.398
  105SLPC  H14C10469   4.631   6.024   6.485
  105SLPC   C1510470   4.408   5.959   6.384
  105SLPC  H15A10471   4.328   5.943   6.314
  105SLPC  H15B10472   4.386   5.894   6.467
  105SLPC  H15C10473   4.401   6.066   6.399
  105SLPC   C1210474   4.587   6.050   6.226
  105SLPC  H12A10475   4.533   6.028   6.135
  105SLPC  H12B10476   4.693   6.040   6.207
  105SLPC   C1110477   4.559   6.197   6.267
  105SLPC  H11A10478   4.610   6.277   6.209
  105SLPC  H11B10479   4.603   6.212   6.368
  105SLPC     P10480   4.341   6.242   6.128
  105SLPC   O1310481   4.363   6.121   6.046
  105SLPC   O1410482   4.207   6.278   6.162
  105SLPC   O1210483   4.422   6.226   6.266
  105SLPC   O1110484   4.405   6.356   6.048
  105SLPC    C110485   4.334   6.481   6.010
  105SLPC    HA10486   4.282   6.517   6.101
  105SLPC    HB10487   4.402   6.560   5.972
  105SLPC    C210488   4.245   6.461   5.878
  105SLPC    HS10489   4.177   6.378   5.907
  105SLPC   O2110490   4.335   6.421   5.767
  105SLPC   C2110491   4.279   6.336   5.684
  105SLPC   O2210492   4.170   6.289   5.696
  105SLPC   C2210493   4.354   6.333   5.556
  105SLPC   H2R10494   4.446   6.392   5.577
  105SLPC   H2S10495   4.385   6.226   5.556
  105SLPC    C310496   4.166   6.583   5.844
  105SLPC    HX10497   4.227   6.676   5.842
  105SLPC    HY10498   4.096   6.581   5.929
  105SLPC   O3110499   4.093   6.576   5.718
  105SLPC   C3110500   3.963   6.532   5.724
  105SLPC   O3210501   3.906   6.501   5.823
  105SLPC   C3210502   3.913   6.499   5.589
  105SLPC   H2X10503   3.809   6.463   5.607
  105SLPC   H2Y10504   3.960   6.409   5.543
  105SLPC   C2310505   4.258   6.367   5.445
  105SLPC   H3R10506   4.194   6.452   5.474
  105SLPC   H3S10507   4.193   6.278   5.426
  105SLPC   C2410508   4.334   6.419   5.314
  105SLPC   H4R10509   4.416   6.347   5.291
  105SLPC   H4S10510   4.398   6.509   5.323
  105SLPC   C2510511   4.234   6.423   5.198
  105SLPC   H5R10512   4.157   6.498   5.227
  105SLPC   H5S10513   4.195   6.321   5.180
  105SLPC   C2610514   4.284   6.481   5.063
  105SLPC   H6R10515   4.335   6.575   5.092
  105SLPC   H6S10516   4.200   6.510   4.997
  105SLPC   C2710517   4.384   6.388   4.989
  105SLPC   H7R10518   4.334   6.290   5.004
  105SLPC   H7S10519   4.481   6.366   5.038
  105SLPC   C2810520   4.395   6.420   4.842
  105SLPC   H8R10521   4.292   6.416   4.803
  105SLPC   H8S10522   4.453   6.349   4.780
  105SLPC   C2910523   4.451   6.561   4.829
  105SLPC   H9R10524   4.382   6.633   4.875
  105SLPC  C21010525   4.566   6.605   4.767
  105SLPC  H10R10526   4.580   6.713   4.751
  105SLPC  C21110527   4.679   6.517   4.709
  105SLPC  H11R10528   4.683   6.521   4.598
  105SLPC  H11S10529   4.669   6.409   4.735
  105SLPC  C21210530   4.817   6.556   4.753
  105SLPC  H12R10531   4.884   6.579   4.669
  105SLPC  C21310532   4.869   6.547   4.877
  105SLPC  H13R10533   4.971   6.569   4.911
  105SLPC  C21410534   4.789   6.503   5.002
  105SLPC  H14R10535   4.834   6.428   5.071
  105SLPC  H14S10536   4.691   6.458   4.975
  105SLPC  C21510537   4.758   6.627   5.092
  105SLPC  H15R10538   4.690   6.698   5.041
  105SLPC  H15S10539   4.855   6.681   5.102
  105SLPC  C21610540   4.696   6.601   5.231
  105SLPC  H16R10541   4.603   6.541   5.235
  105SLPC  H16S10542   4.679   6.702   5.274
  105SLPC  C21710543   4.796   6.525   5.328
  105SLPC  H17R10544   4.889   6.585   5.327
  105SLPC  H17S10545   4.840   6.430   5.290
  105SLPC  C21810546   4.750   6.495   5.476
  105SLPC  H18R10547   4.639   6.493   5.481
  105SLPC  H18S10548   4.782   6.570   5.552
  105SLPC  H18T10549   4.783   6.394   5.508
  105SLPC   C3310550   3.920   6.604   5.480
  105SLPC   H3X10551   4.021   6.650   5.477
  105SLPC   H3Y10552   3.850   6.681   5.520
  105SLPC   C3410553   3.888   6.561   5.335
  105SLPC   H4X10554   3.780   6.540   5.322
  105SLPC   H4Y10555   3.953   6.484   5.288
  105SLPC   C3510556   3.907   6.669   5.231
  105SLPC   H5X10557   4.017   6.688   5.232
  105SLPC   H5Y10558   3.869   6.760   5.282
  105SLPC   C3610559   3.842   6.649   5.092
  105SLPC   H6X10560   3.856   6.742   5.033
  105SLPC   H6Y10561   3.736   6.619   5.106
  105SLPC   C3710562   3.906   6.545   5.005
  105SLPC   H7X10563   3.916   6.442   5.045
  105SLPC   H7Y10564   4.002   6.587   4.968
  105SLPC   C3810565   3.814   6.528   4.877
  105SLPC   H8X10566   3.797   6.627   4.830
  105SLPC   H8Y10567   3.716   6.500   4.922
  105SLPC   C3910568   3.854   6.418   4.780
  105SLPC   H9X10569   3.846   6.327   4.842
  105SLPC   H9Y10570   3.953   6.437   4.733
  105SLPC  C31010571   3.755   6.391   4.659
  105SLPC  H10X10572   3.654   6.381   4.705
  105SLPC  H10Y10573   3.795   6.292   4.629
  105SLPC  C31110574   3.757   6.496   4.551
  105SLPC  H11X10575   3.859   6.519   4.513
  105SLPC  H11Y10576   3.730   6.591   4.602
  105SLPC  C31210577   3.665   6.472   4.429
  105SLPC  H12X10578   3.617   6.566   4.391
  105SLPC  H12Y10579   3.572   6.421   4.461
  105SLPC  C31310580   3.720   6.405   4.304
  105SLPC  H13X10581   3.744   6.300   4.332
  105SLPC  H13Y10582   3.817   6.437   4.262
  105SLPC  C31410583   3.625   6.411   4.178
  105SLPC  H14X10584   3.519   6.434   4.201
  105SLPC  H14Y10585   3.617   6.309   4.134
  105SLPC  C31510586   3.668   6.513   4.074
  105SLPC  H15X10587   3.760   6.481   4.021
  105SLPC  H15Y10588   3.703   6.607   4.122
  105SLPC  C31610589   3.560   6.538   3.968
  105SLPC  H16X10590   3.487   6.609   4.012
  105SLPC  H16Y10591   3.514   6.437   3.962
  105SLPC  C31710592   3.605   6.580   3.827
  105SLPC  H17X10593   3.687   6.510   3.798
  105SLPC  H17Y10594   3.523   6.560   3.755
  105SLPC  C31810595   3.644   6.723   3.817
  105SLPC  H18X10596   3.551   6.779   3.843
  105SLPC  H18Y10597   3.679   6.736   3.713
  105SLPC  H18Z10598   3.723   6.747   3.891
  106SLPC     N10599   1.370   0.521   6.183
  106SLPC   C1310600   1.333   0.381   6.212
  106SLPC  H13A10601   1.248   0.366   6.276
  106SLPC  H13B10602   1.305   0.327   6.122
  106SLPC  H13C10603   1.420   0.337   6.259
  106SLPC   C1410604   1.451   0.545   6.056
  106SLPC  H14A10605   1.534   0.476   6.056
  106SLPC  H14B10606   1.392   0.539   5.965
  106SLPC  H14C10607   1.487   0.647   6.057
  106SLPC   C1510608   1.464   0.563   6.292
  106SLPC  H15A10609   1.553   0.503   6.309
  106SLPC  H15B10610   1.489   0.667   6.275
  106SLPC  H15C10611   1.409   0.562   6.385
  106SLPC   C1210612   1.248   0.612   6.191
  106SLPC  H12A10613   1.175   0.577   6.119
  106SLPC  H12B10614   1.275   0.715   6.176
  106SLPC   C1110615   1.166   0.602   6.322
  106SLPC  H11A10616   1.119   0.695   6.362
  106SLPC  H11B10617   1.230   0.567   6.406
  106SLPC     P10618   0.918   0.511   6.291
  106SLPC   O1310619   0.857   0.504   6.429
  106SLPC   O1410620   0.892   0.623   6.205
  106SLPC   O1210621   1.069   0.495   6.311
  106SLPC   O1110622   0.891   0.373   6.220
  106SLPC    C110623   0.967   0.327   6.101
  106SLPC    HA10624   1.061   0.381   6.076
  106SLPC    HB10625   1.004   0.226   6.128
  106SLPC    C210626   0.886   0.340   5.967
  106SLPC    HS10627   0.958   0.319   5.884
  106SLPC   O2110628   0.814   0.465   5.950
  106SLPC   C2110629   0.899   0.561   5.919
  106SLPC   O2210630   1.021   0.550   5.910
  106SLPC   C2210631   0.812   0.687   5.900
  106SLPC   H2R10632   0.714   0.652   5.861
  106SLPC   H2S10633   0.802   0.736   6.000
  106SLPC    C310634   0.784   0.227   5.949
  106SLPC    HX10635   0.699   0.221   6.020
  106SLPC    HY10636   0.849   0.141   5.973
  106SLPC   O3110637   0.759   0.199   5.811
  106SLPC   C3110638   0.634   0.220   5.774
  106SLPC   O3210639   0.555   0.296   5.826
  106SLPC   C3210640   0.601   0.157   5.635
  106SLPC   H2X10641   0.524   0.079   5.654
  106SLPC   H2Y10642   0.693   0.114   5.588
  106SLPC   C2310643   0.869   0.799   5.805
  106SLPC   H3R10644   0.956   0.854   5.846
  106SLPC   H3S10645   0.788   0.875   5.806
  106SLPC   C2410646   0.911   0.766   5.661
  106SLPC   H4R10647   0.896   0.657   5.647
  106SLPC   H4S10648   1.019   0.784   5.639
  106SLPC   C2510649   0.814   0.834   5.564
  106SLPC   H5R10650   0.795   0.942   5.582
  106SLPC   H5S10651   0.711   0.792   5.568
  106SLPC   C2610652   0.868   0.828   5.419
  106SLPC   H6R10653   0.890   0.723   5.390
  106SLPC   H6S10654   0.954   0.898   5.416
  106SLPC   C2710655   0.771   0.885   5.315
  106SLPC   H7R10656   0.731   0.978   5.362
  106SLPC   H7S10657   0.686   0.817   5.293
  106SLPC   C2810658   0.828   0.906   5.178
  106SLPC   H8R10659   0.857   0.807   5.139
  106SLPC   H8S10660   0.917   0.973   5.187
  106SLPC   C2910661   0.733   0.986   5.094
  106SLPC   H9R10662   0.738   1.093   5.122
  106SLPC  C21010663   0.658   0.943   4.988
  106SLPC  H10R10664   0.612   1.017   4.922
  106SLPC  C21110665   0.650   0.804   4.923
  106SLPC  H11R10666   0.565   0.801   4.851
  106SLPC  H11S10667   0.637   0.729   5.003
  106SLPC  C21210668   0.782   0.791   4.843
  106SLPC  H12R10669   0.875   0.814   4.896
  106SLPC  C21310670   0.799   0.767   4.710
  106SLPC  H13R10671   0.902   0.761   4.673
  106SLPC  C21410672   0.692   0.736   4.607
  106SLPC  H14R10673   0.591   0.746   4.652
  106SLPC  H14S10674   0.702   0.631   4.571
  106SLPC  C21510675   0.697   0.837   4.488
  106SLPC  H15R10676   0.689   0.940   4.528
  106SLPC  H15S10677   0.608   0.822   4.423
  106SLPC  C21610678   0.816   0.819   4.403
  106SLPC  H16R10679   0.828   0.714   4.368
  106SLPC  H16S10680   0.898   0.856   4.468
  106SLPC  C21710681   0.814   0.907   4.275
  106SLPC  H17R10682   0.812   1.011   4.316
  106SLPC  H17S10683   0.727   0.882   4.212
  106SLPC  C21810684   0.946   0.897   4.197
  106SLPC  H18R10685   0.949   0.954   4.101
  106SLPC  H18S10686   0.966   0.795   4.159
  106SLPC  H18T10687   1.032   0.943   4.250
  106SLPC   C3310688   0.550   0.267   5.534
  106SLPC   H3X10689   0.470   0.332   5.575
  106SLPC   H3Y10690   0.506   0.201   5.456
  106SLPC   C3410691   0.668   0.359   5.490
  106SLPC   H4X10692   0.753   0.289   5.478
  106SLPC   H4Y10693   0.695   0.419   5.579
  106SLPC   C3510694   0.618   0.446   5.372
  106SLPC   H5X10695   0.689   0.521   5.332
  106SLPC   H5Y10696   0.525   0.497   5.406
  106SLPC   C3610697   0.584   0.359   5.240
  106SLPC   H6X10698   0.493   0.300   5.264
  106SLPC   H6Y10699   0.677   0.299   5.230
  106SLPC   C3710700   0.560   0.443   5.114
  106SLPC   H7X10701   0.654   0.503   5.115
  106SLPC   H7Y10702   0.476   0.511   5.140
  106SLPC   C3810703   0.540   0.353   4.992
  106SLPC   H8X10704   0.462   0.285   5.032
  106SLPC   H8Y10705   0.633   0.300   4.965
  106SLPC   C3910706   0.494   0.440   4.873
  106SLPC   H9X10707   0.577   0.506   4.837
  106SLPC   H9Y10708   0.410   0.505   4.905
  106SLPC  C31010709   0.449   0.343   4.761
  106SLPC  H10X10710   0.383   0.263   4.800
  106SLPC  H10Y10711   0.543   0.289   4.737
  106SLPC  C31110712   0.390   0.408   4.632
  106SLPC  H11X10713   0.477   0.424   4.564
  106SLPC  H11Y10714   0.334   0.498   4.664
  106SLPC  C31210715   0.290   0.319   4.560
  106SLPC  H12X10716   0.210   0.289   4.631
  106SLPC  H12Y10717   0.342   0.231   4.517
  106SLPC  C31310718   0.224   0.386   4.441
  106SLPC  H13X10719   0.307   0.433   4.383
  106SLPC  H13Y10720   0.153   0.468   4.463
  106SLPC  C31410721   0.141   0.285   4.354
  106SLPC  H14X10722   0.062   0.250   4.423
  106SLPC  H14Y10723   0.189   0.188   4.331
  106SLPC  C31510724   0.085   0.352   4.228
  106SLPC  H15X10725   0.173   0.401   4.182
  106SLPC  H15Y10726   0.011   0.431   4.252
  106SLPC  C31610727   0.023   0.257   4.131
  106SLPC  H16X10728   0.104   0.199   4.082
  106SLPC  H16Y10729  -0.014   0.316   4.044
  106SLPC  C31710730  -0.087   0.175   4.181
  106SLPC  H17X10731  -0.164   0.244   4.224
  106SLPC  H17Y10732  -0.047   0.105   4.257
  106SLPC  C31810733  -0.157   0.093   4.070
  106SLPC  H18X10734  -0.253   0.052   4.109
  106SLPC  H18Y10735  -0.095   0.010   4.030
  106SLPC  H18Z10736  -0.184   0.155   3.982
  107SLPC     N10737   4.959   4.155   1.743
  107SLPC   C1310738   4.822   4.094   1.732
  107SLPC  H13A10739   4.780   4.087   1.831
  107SLPC  H13B10740   4.742   4.154   1.690
  107SLPC  H13C10741   4.822   4.002   1.677
  107SLPC   C1410742   5.001   4.165   1.596
  107SLPC  H14A10743   5.097   4.215   1.590
  107SLPC  H14B10744   4.993   4.074   1.539
  107SLPC  H14C10745   4.930   4.221   1.538
  107SLPC   C1510746   5.052   4.051   1.808
  107SLPC  H15A10747   5.011   4.025   1.904
  107SLPC  H15B10748   5.033   3.961   1.753
  107SLPC  H15C10749   5.152   4.092   1.819
  107SLPC   C1210750   4.969   4.284   1.814
  107SLPC  H12A10751   4.915   4.361   1.762
  107SLPC  H12B10752   5.075   4.306   1.818
  107SLPC   C1110753   4.931   4.282   1.964
  107SLPC  H11A10754   4.834   4.227   1.970
  107SLPC  H11B10755   4.915   4.384   2.004
  107SLPC     P10756   5.149   4.264   2.111
  107SLPC   O1310757   5.239   4.273   1.991
  107SLPC   O1410758   5.131   4.379   2.201
  107SLPC   O1210759   5.010   4.204   2.059
  107SLPC   O1110760   5.203   4.148   2.210
  107SLPC    C110761   5.163   4.014   2.182
  107SLPC    HA10762   5.069   3.991   2.127
  107SLPC    HB10763   5.248   3.970   2.126
  107SLPC    C210764   5.152   3.933   2.306
  107SLPC    HS10765   5.049   3.950   2.343
  107SLPC   O2110766   5.245   3.971   2.410
  107SLPC   C2110767   5.198   3.981   2.536
  107SLPC   O2210768   5.094   3.937   2.573
  107SLPC   C2210769   5.301   4.079   2.604
  107SLPC   H2R10770   5.390   4.013   2.615
  107SLPC   H2S10771   5.323   4.157   2.528
  107SLPC    C310772   5.165   3.778   2.273
  107SLPC    HX10773   5.273   3.772   2.248
  107SLPC    HY10774   5.104   3.750   2.184
  107SLPC   O3110775   5.135   3.696   2.390
  107SLPC   C3110776   5.011   3.665   2.412
  107SLPC   O3210777   4.915   3.713   2.348
  107SLPC   C3210778   4.996   3.571   2.524
  107SLPC   H2X10779   5.097   3.536   2.556
  107SLPC   H2Y10780   4.925   3.495   2.486
  107SLPC   C2310781   5.248   4.143   2.734
  107SLPC   H3R10782   5.217   4.068   2.810
  107SLPC   H3S10783   5.159   4.206   2.715
  107SLPC   C2410784   5.352   4.229   2.812
  107SLPC   H4R10785   5.418   4.282   2.740
  107SLPC   H4S10786   5.424   4.160   2.862
  107SLPC   C2510787   5.287   4.324   2.906
  107SLPC   H5R10788   5.223   4.273   2.981
  107SLPC   H5S10789   5.200   4.370   2.852
  107SLPC   C2610790   5.373   4.441   2.958
  107SLPC   H6R10791   5.419   4.496   2.873
  107SLPC   H6S10792   5.459   4.394   3.011
  107SLPC   C2710793   5.303   4.535   3.044
  107SLPC   H7R10794   5.249   4.486   3.128
  107SLPC   H7S10795   5.227   4.598   2.994
  107SLPC   C2810796   5.396   4.628   3.120
  107SLPC   H8R10797   5.449   4.676   3.036
  107SLPC   H8S10798   5.473   4.579   3.185
  107SLPC   C2910799   5.321   4.725   3.208
  107SLPC   H9R10800   5.282   4.798   3.136
  107SLPC  C21010801   5.293   4.728   3.338
  107SLPC  H10R10802   5.217   4.794   3.382
  107SLPC  C21110803   5.344   4.630   3.436
  107SLPC  H11R10804   5.376   4.531   3.397
  107SLPC  H11S10805   5.253   4.605   3.493
  107SLPC  C21210806   5.447   4.677   3.536
  107SLPC  H12R10807   5.490   4.775   3.510
  107SLPC  C21310808   5.458   4.625   3.664
  107SLPC  H13R10809   5.525   4.674   3.736
  107SLPC  C21410810   5.384   4.509   3.723
  107SLPC  H14R10811   5.441   4.419   3.692
  107SLPC  H14S10812   5.288   4.489   3.671
  107SLPC  C21510813   5.384   4.527   3.869
  107SLPC  H15R10814   5.324   4.617   3.894
  107SLPC  H15S10815   5.485   4.548   3.909
  107SLPC  C21610816   5.336   4.401   3.939
  107SLPC  H16R10817   5.395   4.317   3.897
  107SLPC  H16S10818   5.229   4.385   3.913
  107SLPC  C21710819   5.360   4.401   4.091
  107SLPC  H17R10820   5.325   4.489   4.148
  107SLPC  H17S10821   5.471   4.398   4.088
  107SLPC  C21810822   5.313   4.273   4.156
  107SLPC  H18R10823   5.202   4.268   4.155
  107SLPC  H18S10824   5.342   4.274   4.264
  107SLPC  H18T10825   5.356   4.192   4.094
  107SLPC   C3310826   4.935   3.644   2.653
  107SLPC   H3X10827   4.843   3.686   2.607
  107SLPC   H3Y10828   5.001   3.726   2.690
  107SLPC   C3410829   4.897   3.542   2.762
  107SLPC   H4X10830   4.851   3.607   2.840
  107SLPC   H4Y10831   4.991   3.494   2.798
  107SLPC   C3510832   4.798   3.433   2.716
  107SLPC   H5X10833   4.854   3.361   2.653
  107SLPC   H5Y10834   4.711   3.471   2.658
  107SLPC   C3610835   4.752   3.351   2.839
  107SLPC   H6X10836   4.836   3.297   2.888
  107SLPC   H6Y10837   4.688   3.271   2.797
  107SLPC   C3710838   4.663   3.428   2.938
  107SLPC   H7X10839   4.617   3.510   2.878
  107SLPC   H7Y10840   4.733   3.475   3.010
  107SLPC   C3810841   4.554   3.348   3.015
  107SLPC   H8X10842   4.477   3.312   2.943
  107SLPC   H8Y10843   4.497   3.428   3.067
  107SLPC   C3910844   4.632   3.248   3.098
  107SLPC   H9X10845   4.713   3.303   3.151
  107SLPC   H9Y10846   4.665   3.169   3.027
  107SLPC  C31010847   4.546   3.181   3.199
  107SLPC  H10X10848   4.494   3.247   3.272
  107SLPC  H10Y10849   4.599   3.115   3.272
  107SLPC  C31110850   4.439   3.093   3.122
  107SLPC  H11X10851   4.489   3.012   3.065
  107SLPC  H11Y10852   4.373   3.153   3.056
  107SLPC  C31210853   4.339   3.034   3.224
  107SLPC  H12X10854   4.267   3.114   3.248
  107SLPC  H12Y10855   4.384   2.998   3.318
  107SLPC  C31310856   4.250   2.918   3.172
  107SLPC  H13X10857   4.202   2.972   3.088
  107SLPC  H13Y10858   4.183   2.887   3.255
  107SLPC  C31410859   4.330   2.786   3.148
  107SLPC  H14X10860   4.415   2.806   3.079
  107SLPC  H14Y10861   4.256   2.719   3.099
  107SLPC  C31510862   4.390   2.732   3.283
  107SLPC  H15X10863   4.458   2.809   3.326
  107SLPC  H15Y10864   4.456   2.650   3.247
  107SLPC  C31610865   4.290   2.689   3.383
  107SLPC  H16X10866   4.253   2.591   3.347
  107SLPC  H16Y10867   4.208   2.761   3.405
  107SLPC  C31710868   4.359   2.647   3.514
  107SLPC  H17X10869   4.390   2.744   3.559
  107SLPC  H17Y10870   4.443   2.581   3.485
  107SLPC  C31810871   4.279   2.559   3.613
  107SLPC  H18X10872   4.191   2.611   3.656
  107SLPC  H18Y10873   4.342   2.520   3.696
  107SLPC  H18Z10874   4.247   2.469   3.555
  108SLPC     N10875   3.716   5.552   1.774
  108SLPC   C1310876   3.771   5.664   1.844
  108SLPC  H13A10877   3.874   5.682   1.816
  108SLPC  H13B10878   3.719   5.753   1.813
  108SLPC  H13C10879   3.765   5.646   1.951
  108SLPC   C1410880   3.786   5.425   1.791
  108SLPC  H14A10881   3.723   5.344   1.756
  108SLPC  H14B10882   3.881   5.421   1.739
  108SLPC  H14C10883   3.803   5.402   1.895
  108SLPC   C1510884   3.693   5.584   1.628
  108SLPC  H15A10885   3.651   5.503   1.570
  108SLPC  H15B10886   3.620   5.663   1.622
  108SLPC  H15C10887   3.783   5.622   1.583
  108SLPC   C1210888   3.577   5.519   1.835
  108SLPC  H12A10889   3.535   5.432   1.787
  108SLPC  H12B10890   3.505   5.597   1.815
  108SLPC   C1110891   3.563   5.520   1.990
  108SLPC  H11A10892   3.457   5.509   2.020
  108SLPC  H11B10893   3.591   5.618   2.033
  108SLPC     P10894   3.611   5.276   2.044
  108SLPC   O1310895   3.495   5.254   1.952
  108SLPC   O1410896   3.733   5.204   2.006
  108SLPC   O1210897   3.646   5.429   2.053
  108SLPC   O1110898   3.568   5.241   2.194
  108SLPC    C110899   3.578   5.337   2.297
  108SLPC    HA10900   3.685   5.354   2.323
  108SLPC    HB10901   3.532   5.436   2.276
  108SLPC    C210902   3.505   5.289   2.428
  108SLPC    HS10903   3.531   5.348   2.518
  108SLPC   O2110904   3.541   5.154   2.462
  108SLPC   C2110905   3.671   5.135   2.492
  108SLPC   O2210906   3.760   5.220   2.502
  108SLPC   C2210907   3.698   4.992   2.535
  108SLPC   H2R10908   3.623   4.974   2.616
  108SLPC   H2S10909   3.675   4.921   2.453
  108SLPC    C310910   3.353   5.296   2.400
  108SLPC    HX10911   3.343   5.209   2.332
  108SLPC    HY10912   3.329   5.389   2.345
  108SLPC   O3110913   3.274   5.277   2.519
  108SLPC   C3110914   3.147   5.318   2.497
  108SLPC   O3210915   3.105   5.345   2.385
  108SLPC   C3210916   3.067   5.319   2.626
  108SLPC   H2X10917   3.008   5.225   2.626
  108SLPC   H2Y10918   2.995   5.404   2.615
  108SLPC   C2310919   3.841   4.959   2.578
  108SLPC   H3R10920   3.911   4.985   2.496
  108SLPC   H3S10921   3.849   4.848   2.574
  108SLPC   C2410922   3.898   5.021   2.711
  108SLPC   H4R10923   3.823   5.012   2.793
  108SLPC   H4S10924   3.913   5.131   2.710
  108SLPC   C2510925   4.024   4.944   2.759
  108SLPC   H5R10926   4.107   4.993   2.704
  108SLPC   H5S10927   4.031   4.840   2.723
  108SLPC   C2610928   4.055   4.953   2.910
  108SLPC   H6R10929   3.994   5.038   2.948
  108SLPC   H6S10930   4.164   4.973   2.918
  108SLPC   C2710931   4.025   4.821   2.990
  108SLPC   H7R10932   4.090   4.734   2.968
  108SLPC   H7S10933   3.922   4.789   2.964
  108SLPC   C2810934   4.017   4.823   3.146
  108SLPC   H8R10935   4.118   4.859   3.176
  108SLPC   H8S10936   4.006   4.713   3.163
  108SLPC   C2910937   3.915   4.908   3.200
  108SLPC   H9R10938   3.874   4.980   3.127
  108SLPC  C21010939   3.857   4.899   3.318
  108SLPC  H10R10940   3.779   4.968   3.354
  108SLPC  C21110941   3.893   4.790   3.414
  108SLPC  H11R10942   3.999   4.760   3.400
  108SLPC  H11S10943   3.835   4.696   3.401
  108SLPC  C21210944   3.880   4.841   3.557
  108SLPC  H12R10945   3.940   4.929   3.585
  108SLPC  C21310946   3.797   4.800   3.649
  108SLPC  H13R10947   3.786   4.856   3.743
  108SLPC  C21410948   3.701   4.687   3.644
  108SLPC  H14R10949   3.703   4.623   3.735
  108SLPC  H14S10950   3.709   4.620   3.556
  108SLPC  C21510951   3.555   4.743   3.632
  108SLPC  H15R10952   3.500   4.658   3.588
  108SLPC  H15S10953   3.542   4.837   3.573
  108SLPC  C21610954   3.486   4.779   3.768
  108SLPC  H16R10955   3.516   4.878   3.809
  108SLPC  H16S10956   3.520   4.706   3.845
  108SLPC  C21710957   3.333   4.766   3.772
  108SLPC  H17R10958   3.293   4.673   3.727
  108SLPC  H17S10959   3.300   4.844   3.701
  108SLPC  C21810960   3.266   4.785   3.909
  108SLPC  H18R10961   3.311   4.718   3.985
  108SLPC  H18S10962   3.160   4.752   3.909
  108SLPC  H18T10963   3.262   4.895   3.925
  108SLPC   C3310964   3.155   5.346   2.758
  108SLPC   H3X10965   3.225   5.422   2.717
  108SLPC   H3Y10966   3.206   5.250   2.782
  108SLPC   C3410967   3.076   5.393   2.881
  108SLPC   H4X10968   3.083   5.316   2.961
  108SLPC   H4Y10969   2.968   5.412   2.863
  108SLPC   C3510970   3.147   5.518   2.951
  108SLPC   H5X10971   3.122   5.613   2.900
  108SLPC   H5Y10972   3.257   5.510   2.940
  108SLPC   C3610973   3.106   5.514   3.103
  108SLPC   H6X10974   3.147   5.422   3.149
  108SLPC   H6Y10975   2.997   5.506   3.123
  108SLPC   C3710976   3.167   5.633   3.187
  108SLPC   H7X10977   3.087   5.710   3.183
  108SLPC   H7Y10978   3.267   5.663   3.151
  108SLPC   C3810979   3.186   5.592   3.336
  108SLPC   H8X10980   3.240   5.676   3.383
  108SLPC   H8Y10981   3.247   5.500   3.324
  108SLPC   C3910982   3.060   5.564   3.419
  108SLPC   H9X10983   3.040   5.457   3.395
  108SLPC   H9Y10984   2.975   5.614   3.369
  108SLPC  C31010985   3.080   5.580   3.573
  108SLPC  H10X10986   3.158   5.509   3.606
  108SLPC  H10Y10987   2.991   5.535   3.623
  108SLPC  C31110988   3.083   5.720   3.623
  108SLPC  H11X10989   2.983   5.769   3.617
  108SLPC  H11Y10990   3.155   5.791   3.576
  108SLPC  C31210991   3.124   5.717   3.775
  108SLPC  H12X10992   3.232   5.689   3.778
  108SLPC  H12Y10993   3.053   5.646   3.821
  108SLPC  C31310994   3.106   5.855   3.845
  108SLPC  H13X10995   3.154   5.857   3.945
  108SLPC  H13Y10996   2.998   5.875   3.858
  108SLPC  C31410997   3.179   5.976   3.776
  108SLPC  H14X10998   3.154   5.994   3.669
  108SLPC  H14Y10999   3.288   5.962   3.790
  108SLPC  C31511000   3.162   6.111   3.849
  108SLPC  H15X11001   3.054   6.136   3.860
  108SLPC  H15Y11002   3.215   6.197   3.802
  108SLPC  C31611003   3.218   6.106   3.993
  108SLPC  H16X11004   3.323   6.071   3.997
  108SLPC  H16Y11005   3.165   6.024   4.046
  108SLPC  C31711006   3.219   6.239   4.068
  108SLPC  H17X11007   3.120   6.288   4.056
  108SLPC  H17Y11008   3.290   6.315   4.029
  108SLPC  C31811009   3.250   6.220   4.213
  108SLPC  H18X11010   3.255   6.320   4.260
  108SLPC  H18Y11011   3.333   6.150   4.238
  108SLPC  H18Z11012   3.155   6.178   4.251
  109SLPC     N11013   1.728   2.827   2.047
  109SLPC   C1311014   1.682   2.730   1.943
  109SLPC  H13A11015   1.622   2.651   1.986
  109SLPC  H13B11016   1.635   2.786   1.862
  109SLPC  H13C11017   1.776   2.699   1.900
  109SLPC   C1411018   1.806   2.930   1.966
  109SLPC  H14A11019   1.826   3.017   2.027
  109SLPC  H14B11020   1.904   2.901   1.930
  109SLPC  H14C11021   1.753   2.973   1.882
  109SLPC   C1511022   1.809   2.755   2.140
  109SLPC  H15A11023   1.756   2.685   2.202
  109SLPC  H15B11024   1.893   2.709   2.090
  109SLPC  H15C11025   1.861   2.821   2.208
  109SLPC   C1211026   1.619   2.910   2.105
  109SLPC  H12A11027   1.556   2.836   2.152
  109SLPC  H12B11028   1.561   2.954   2.026
  109SLPC   C1111029   1.665   3.020   2.205
  109SLPC  H11A11030   1.739   2.965   2.267
  109SLPC  H11B11031   1.574   3.054   2.259
  109SLPC     P11032   1.824   3.223   2.236
  109SLPC   O1311033   1.951   3.150   2.255
  109SLPC   O1411034   1.840   3.361   2.190
  109SLPC   O1211035   1.731   3.136   2.143
  109SLPC   O1111036   1.738   3.238   2.369
  109SLPC    C111037   1.646   3.340   2.402
  109SLPC    HA11038   1.636   3.417   2.322
  109SLPC    HB11039   1.544   3.298   2.390
  109SLPC    C211040   1.656   3.390   2.546
  109SLPC    HS11041   1.555   3.408   2.588
  109SLPC   O2111042   1.739   3.508   2.541
  109SLPC   C2111043   1.679   3.615   2.495
  109SLPC   O2211044   1.559   3.616   2.467
  109SLPC   C2211045   1.783   3.724   2.482
  109SLPC   H2R11046   1.880   3.673   2.469
  109SLPC   H2S11047   1.762   3.792   2.397
  109SLPC    C311048   1.707   3.285   2.642
  109SLPC    HX11049   1.817   3.277   2.628
  109SLPC    HY11050   1.650   3.192   2.623
  109SLPC   O3111051   1.679   3.323   2.774
  109SLPC   C3111052   1.578   3.264   2.840
  109SLPC   O3211053   1.500   3.180   2.801
  109SLPC   C3211054   1.599   3.305   2.990
  109SLPC   H2X11055   1.531   3.393   2.989
  109SLPC   H2Y11056   1.706   3.329   3.009
  109SLPC   C2311057   1.793   3.803   2.618
  109SLPC   H3R11058   1.886   3.864   2.614
  109SLPC   H3S11059   1.783   3.735   2.705
  109SLPC   C2411060   1.679   3.901   2.636
  109SLPC   H4R11061   1.582   3.847   2.640
  109SLPC   H4S11062   1.668   3.969   2.549
  109SLPC   C2511063   1.700   3.982   2.762
  109SLPC   H5R11064   1.797   4.036   2.763
  109SLPC   H5S11065   1.688   3.910   2.846
  109SLPC   C2611066   1.591   4.098   2.764
  109SLPC   H6R11067   1.492   4.049   2.776
  109SLPC   H6S11068   1.596   4.155   2.669
  109SLPC   C2711069   1.607   4.183   2.890
  109SLPC   H7R11070   1.533   4.266   2.878
  109SLPC   H7S11071   1.713   4.217   2.890
  109SLPC   C2811072   1.570   4.109   3.023
  109SLPC   H8R11073   1.619   4.009   3.023
  109SLPC   H8S11074   1.460   4.093   3.021
  109SLPC   C2911075   1.602   4.199   3.142
  109SLPC   H9R11076   1.557   4.299   3.138
  109SLPC  C21011077   1.671   4.163   3.250
  109SLPC  H10R11078   1.683   4.237   3.330
  109SLPC  C21111079   1.736   4.037   3.285
  109SLPC  H11R11080   1.761   3.998   3.184
  109SLPC  H11S11081   1.658   3.969   3.324
  109SLPC  C21211082   1.858   4.044   3.374
  109SLPC  H12R11083   1.946   4.081   3.321
  109SLPC  C21311084   1.871   3.996   3.499
  109SLPC  H13R11085   1.969   4.018   3.545
  109SLPC  C21411086   1.768   3.938   3.589
  109SLPC  H14R11087   1.754   3.828   3.584
  109SLPC  H14S11088   1.663   3.963   3.562
  109SLPC  C21511089   1.783   3.999   3.731
  109SLPC  H15R11090   1.703   3.969   3.802
  109SLPC  H15S11091   1.775   4.109   3.715
  109SLPC  C21611092   1.914   3.960   3.805
  109SLPC  H16R11093   1.925   4.022   3.896
  109SLPC  H16S11094   1.999   4.000   3.746
  109SLPC  C21711095   1.936   3.809   3.825
  109SLPC  H17R11096   1.914   3.764   3.726
  109SLPC  H17S11097   1.864   3.777   3.904
  109SLPC  C21811098   2.074   3.764   3.874
  109SLPC  H18R11099   2.079   3.653   3.868
  109SLPC  H18S11100   2.100   3.798   3.976
  109SLPC  H18T11101   2.144   3.808   3.799
  109SLPC   C3311102   1.549   3.203   3.093
  109SLPC   H3X11103   1.622   3.120   3.107
  109SLPC   H3Y11104   1.454   3.155   3.061
  109SLPC   C3411105   1.521   3.269   3.229
  109SLPC   H4X11106   1.438   3.341   3.212
  109SLPC   H4Y11107   1.619   3.311   3.262
  109SLPC   C3511108   1.475   3.166   3.340
  109SLPC   H5X11109   1.558   3.096   3.365
  109SLPC   H5Y11110   1.391   3.111   3.292
  109SLPC   C3611111   1.429   3.222   3.474
  109SLPC   H6X11112   1.393   3.140   3.540
  109SLPC   H6Y11113   1.347   3.292   3.447
  109SLPC   C3711114   1.530   3.315   3.552
  109SLPC   H7X11115   1.544   3.399   3.481
  109SLPC   H7Y11116   1.627   3.263   3.564
  109SLPC   C3811117   1.481   3.359   3.685
  109SLPC   H8X11118   1.455   3.273   3.750
  109SLPC   H8Y11119   1.388   3.417   3.669
  109SLPC   C3911120   1.582   3.451   3.757
  109SLPC   H9X11121   1.584   3.543   3.695
  109SLPC   H9Y11122   1.683   3.405   3.752
  109SLPC  C31011123   1.562   3.486   3.905
  109SLPC  H10X11124   1.650   3.529   3.956
  109SLPC  H10Y11125   1.532   3.389   3.950
  109SLPC  C31111126   1.454   3.581   3.939
  109SLPC  H11X11127   1.362   3.520   3.931
  109SLPC  H11Y11128   1.472   3.669   3.873
  109SLPC  C31211129   1.471   3.651   4.075
  109SLPC  H12X11130   1.581   3.668   4.073
  109SLPC  H12Y11131   1.452   3.579   4.158
  109SLPC  C31311132   1.385   3.776   4.092
  109SLPC  H13X11133   1.440   3.851   4.031
  109SLPC  H13Y11134   1.380   3.802   4.200
  109SLPC  C31411135   1.238   3.775   4.052
  109SLPC  H14X11136   1.221   3.767   3.942
  109SLPC  H14Y11137   1.194   3.873   4.079
  109SLPC  C31511138   1.155   3.672   4.133
  109SLPC  H15X11139   1.170   3.690   4.242
  109SLPC  H15Y11140   1.206   3.574   4.119
  109SLPC  C31611141   1.007   3.665   4.104
  109SLPC  H16X11142   0.979   3.657   3.996
  109SLPC  H16Y11143   0.952   3.756   4.137
  109SLPC  C31711144   0.939   3.543   4.166
  109SLPC  H17X11145   0.949   3.547   4.277
  109SLPC  H17Y11146   0.991   3.455   4.124
  109SLPC  C31811147   0.790   3.540   4.128
  109SLPC  H18X11148   0.723   3.479   4.193
  109SLPC  H18Y11149   0.771   3.501   4.025
  109SLPC  H18Z11150   0.760   3.647   4.128
  110SLPC     N11151   6.651   4.381   2.244
  110SLPC   C1311152   6.572   4.329   2.355
  110SLPC  H13A11153   6.490   4.393   2.384
  110SLPC  H13B11154   6.537   4.227   2.347
  110SLPC  H13C11155   6.635   4.327   2.443
  110SLPC   C1411156   6.760   4.470   2.296
  110SLPC  H14A11157   6.829   4.504   2.220
  110SLPC  H14B11158   6.709   4.553   2.342
  110SLPC  H14C11159   6.819   4.418   2.371
  110SLPC   C1511160   6.566   4.459   2.154
  110SLPC  H15A11161   6.478   4.404   2.125
  110SLPC  H15B11162   6.527   4.549   2.200
  110SLPC  H15C11163   6.615   4.500   2.067
  110SLPC   C1211164   6.715   4.262   2.164
  110SLPC  H12A11165   6.761   4.196   2.236
  110SLPC  H12B11166   6.780   4.312   2.094
  110SLPC   C1111167   6.622   4.170   2.080
  110SLPC  H11A11168   6.687   4.104   2.019
  110SLPC  H11B11169   6.568   4.230   2.003
  110SLPC     P11170   6.579   3.980   2.243
  110SLPC   O1311171   6.527   3.863   2.168
  110SLPC   O1411172   6.724   3.993   2.266
  110SLPC   O1211173   6.526   4.103   2.163
  110SLPC   O1111174   6.509   3.996   2.382
  110SLPC    C111175   6.395   3.928   2.429
  110SLPC    HA11176   6.306   3.989   2.404
  110SLPC    HB11177   6.379   3.827   2.386
  110SLPC    C211178   6.402   3.908   2.583
  110SLPC    HS11179   6.319   3.839   2.609
  110SLPC   O2111180   6.385   4.032   2.650
  110SLPC   C2111181   6.261   4.081   2.649
  110SLPC   O2211182   6.166   4.021   2.601
  110SLPC   C2211183   6.262   4.220   2.706
  110SLPC   H2R11184   6.362   4.233   2.753
  110SLPC   H2S11185   6.256   4.288   2.619
  110SLPC    C311186   6.534   3.841   2.627
  110SLPC    HX11187   6.603   3.919   2.590
  110SLPC    HY11188   6.545   3.747   2.568
  110SLPC   O3111189   6.541   3.809   2.769
  110SLPC   C3111190   6.565   3.903   2.853
  110SLPC   O3211191   6.597   4.018   2.830
  110SLPC   C3211192   6.538   3.849   2.996
  110SLPC   H2X11193   6.534   3.934   3.067
  110SLPC   H2Y11194   6.620   3.777   3.017
  110SLPC   C2311195   6.159   4.243   2.813
  110SLPC   H3R11196   6.057   4.203   2.793
  110SLPC   H3S11197   6.147   4.352   2.828
  110SLPC   C2411198   6.207   4.189   2.948
  110SLPC   H4R11199   6.305   4.237   2.973
  110SLPC   H4S11200   6.224   4.081   2.931
  110SLPC   C2511201   6.091   4.198   3.056
  110SLPC   H5R11202   5.996   4.160   3.013
  110SLPC   H5S11203   6.078   4.305   3.080
  110SLPC   C2611204   6.137   4.121   3.181
  110SLPC   H6R11205   6.189   4.027   3.154
  110SLPC   H6S11206   6.056   4.096   3.253
  110SLPC   C2711207   6.236   4.208   3.265
  110SLPC   H7R11208   6.157   4.269   3.314
  110SLPC   H7S11209   6.294   4.276   3.199
  110SLPC   C2811210   6.323   4.121   3.358
  110SLPC   H8R11211   6.400   4.181   3.410
  110SLPC   H8S11212   6.375   4.052   3.288
  110SLPC   C2911213   6.249   4.031   3.452
  110SLPC   H9R11214   6.174   3.962   3.411
  110SLPC  C21011215   6.255   4.046   3.586
  110SLPC  H10R11216   6.203   3.967   3.643
  110SLPC  C21111217   6.325   4.154   3.665
  110SLPC  H11R11218   6.387   4.229   3.613
  110SLPC  H11S11219   6.394   4.108   3.739
  110SLPC  C21211220   6.220   4.230   3.742
  110SLPC  H12R11221   6.172   4.312   3.687
  110SLPC  C21311222   6.196   4.213   3.871
  110SLPC  H13R11223   6.127   4.282   3.920
  110SLPC  C21411224   6.265   4.121   3.966
  110SLPC  H14R11225   6.297   4.175   4.058
  110SLPC  H14S11226   6.347   4.066   3.916
  110SLPC  C21511227   6.155   4.029   4.021
  110SLPC  H15R11228   6.116   3.979   3.930
  110SLPC  H15S11229   6.071   4.085   4.068
  110SLPC  C21611230   6.191   3.915   4.126
  110SLPC  H16R11231   6.102   3.851   4.144
  110SLPC  H16S11232   6.230   3.965   4.217
  110SLPC  C21711233   6.308   3.830   4.071
  110SLPC  H17R11234   6.398   3.880   4.031
  110SLPC  H17S11235   6.270   3.773   3.984
  110SLPC  C21811236   6.348   3.720   4.164
  110SLPC  H18R11237   6.271   3.645   4.192
  110SLPC  H18S11238   6.397   3.751   4.259
  110SLPC  H18T11239   6.426   3.666   4.106
  110SLPC   C3311240   6.408   3.769   3.012
  110SLPC   H3X11241   6.409   3.674   2.954
  110SLPC   H3Y11242   6.321   3.833   2.984
  110SLPC   C3411243   6.382   3.728   3.157
  110SLPC   H4X11244   6.367   3.825   3.209
  110SLPC   H4Y11245   6.468   3.680   3.208
  110SLPC   C3511246   6.256   3.637   3.166
  110SLPC   H5X11247   6.288   3.536   3.132
  110SLPC   H5Y11248   6.176   3.662   3.094
  110SLPC   C3611249   6.198   3.636   3.310
  110SLPC   H6X11250   6.101   3.586   3.330
  110SLPC   H6Y11251   6.182   3.741   3.344
  110SLPC   C3711252   6.296   3.569   3.412
  110SLPC   H7X11253   6.284   3.605   3.516
  110SLPC   H7Y11254   6.395   3.613   3.385
  110SLPC   C3811255   6.304   3.418   3.399
  110SLPC   H8X11256   6.293   3.377   3.296
  110SLPC   H8Y11257   6.211   3.386   3.450
  110SLPC   C3911258   6.421   3.339   3.464
  110SLPC   H9X11259   6.427   3.367   3.572
  110SLPC   H9Y11260   6.512   3.379   3.416
  110SLPC  C31011261   6.428   3.184   3.437
  110SLPC  H10X11262   6.458   3.158   3.334
  110SLPC  H10Y11263   6.323   3.148   3.448
  110SLPC  C31111264   6.518   3.116   3.537
  110SLPC  H11X11265   6.499   3.121   3.646
  110SLPC  H11Y11266   6.623   3.150   3.524
  110SLPC  C31211267   6.527   2.963   3.502
  110SLPC  H12X11268   6.630   2.929   3.523
  110SLPC  H12Y11269   6.523   2.951   3.392
  110SLPC  C31311270   6.414   2.884   3.565
  110SLPC  H13X11271   6.319   2.912   3.514
  110SLPC  H13Y11272   6.393   2.914   3.670
  110SLPC  C31411273   6.437   2.737   3.558
  110SLPC  H14X11274   6.542   2.718   3.589
  110SLPC  H14Y11275   6.431   2.689   3.458
  110SLPC  C31511276   6.343   2.661   3.644
  110SLPC  H15X11277   6.249   2.645   3.586
  110SLPC  H15Y11278   6.305   2.708   3.737
  110SLPC  C31611279   6.391   2.518   3.670
  110SLPC  H16X11280   6.470   2.511   3.748
  110SLPC  H16Y11281   6.434   2.476   3.577
  110SLPC  C31711282   6.270   2.442   3.735
  110SLPC  H17X11283   6.294   2.335   3.716
  110SLPC  H17Y11284   6.172   2.465   3.687
  110SLPC  C31811285   6.247   2.470   3.883
  110SLPC  H18X11286   6.326   2.432   3.951
  110SLPC  H18Y11287   6.157   2.411   3.912
  110SLPC  H18Z11288   6.229   2.578   3.903
  111SLPC     N11289   4.179   1.365   2.128
  111SLPC   C1311290   4.306   1.410   2.083
  111SLPC  H13A11291   4.376   1.436   2.161
  111SLPC  H13B11292   4.353   1.326   2.034
  111SLPC  H13C11293   4.304   1.484   2.004
  111SLPC   C1411294   4.103   1.321   1.998
  111SLPC  H14A11295   4.139   1.231   1.950
  111SLPC  H14B11296   4.001   1.300   2.023
  111SLPC  H14C11297   4.111   1.394   1.919
  111SLPC   C1511298   4.107   1.473   2.203
  111SLPC  H15A11299   4.001   1.450   2.200
  111SLPC  H15B11300   4.144   1.484   2.304
  111SLPC  H15C11301   4.127   1.568   2.156
  111SLPC   C1211302   4.198   1.246   2.227
  111SLPC  H12A11303   4.250   1.282   2.315
  111SLPC  H12B11304   4.280   1.185   2.191
  111SLPC   C1111305   4.070   1.161   2.268
  111SLPC  H11A11306   4.007   1.235   2.322
  111SLPC  H11B11307   4.090   1.094   2.354
  111SLPC     P11308   4.060   0.964   2.100
  111SLPC   O1311309   4.032   0.962   1.954
  111SLPC   O1411310   4.198   0.944   2.145
  111SLPC   O1211311   4.002   1.100   2.156
  111SLPC   O1111312   3.962   0.853   2.161
  111SLPC    C111313   3.831   0.857   2.203
  111SLPC    HA11314   3.774   0.929   2.142
  111SLPC    HB11315   3.781   0.759   2.185
  111SLPC    C211316   3.829   0.877   2.358
  111SLPC    HS11317   3.894   0.964   2.381
  111SLPC   O2111318   3.883   0.752   2.402
  111SLPC   C2111319   4.006   0.754   2.447
  111SLPC   O2211320   4.067   0.851   2.491
  111SLPC   C2211321   4.062   0.619   2.421
  111SLPC   H2R11322   3.980   0.550   2.389
  111SLPC   H2S11323   4.137   0.617   2.339
  111SLPC    C311324   3.693   0.909   2.414
  111SLPC    HX11325   3.616   0.838   2.377
  111SLPC    HY11326   3.672   1.008   2.368
  111SLPC   O3111327   3.693   0.915   2.559
  111SLPC   C3111328   3.760   1.011   2.615
  111SLPC   O3211329   3.812   1.104   2.558
  111SLPC   C3211330   3.748   0.991   2.768
  111SLPC   H2X11331   3.854   1.001   2.800
  111SLPC   H2Y11332   3.699   0.896   2.798
  111SLPC   C2311333   4.133   0.577   2.556
  111SLPC   H3R11334   4.228   0.627   2.584
  111SLPC   H3S11335   4.160   0.475   2.522
  111SLPC   C2411336   4.036   0.563   2.675
  111SLPC   H4R11337   4.075   0.478   2.735
  111SLPC   H4S11338   3.943   0.524   2.630
  111SLPC   C2511339   4.023   0.683   2.769
  111SLPC   H5R11340   4.004   0.770   2.704
  111SLPC   H5S11341   4.119   0.710   2.818
  111SLPC   C2611342   3.906   0.666   2.868
  111SLPC   H6R11343   3.904   0.567   2.917
  111SLPC   H6S11344   3.809   0.683   2.816
  111SLPC   C2711345   3.924   0.762   2.988
  111SLPC   H7R11346   3.956   0.863   2.957
  111SLPC   H7S11347   4.015   0.720   3.036
  111SLPC   C2811348   3.808   0.760   3.091
  111SLPC   H8R11349   3.782   0.655   3.115
  111SLPC   H8S11350   3.721   0.797   3.033
  111SLPC   C2911351   3.834   0.848   3.210
  111SLPC   H9R11352   3.868   0.947   3.176
  111SLPC  C21011353   3.817   0.818   3.341
  111SLPC  H10R11354   3.834   0.891   3.421
  111SLPC  C21111355   3.777   0.681   3.378
  111SLPC  H11R11356   3.700   0.634   3.314
  111SLPC  H11S11357   3.723   0.694   3.474
  111SLPC  C21211358   3.899   0.586   3.394
  111SLPC  H12R11359   3.971   0.570   3.312
  111SLPC  C21311360   3.931   0.551   3.522
  111SLPC  H13R11361   4.025   0.495   3.533
  111SLPC  C21411362   3.867   0.587   3.649
  111SLPC  H14R11363   3.915   0.512   3.716
  111SLPC  H14S11364   3.758   0.567   3.646
  111SLPC  C21511365   3.908   0.725   3.707
  111SLPC  H15R11366   3.865   0.804   3.642
  111SLPC  H15S11367   4.018   0.729   3.700
  111SLPC  C21611368   3.875   0.737   3.861
  111SLPC  H16R11369   3.919   0.835   3.890
  111SLPC  H16S11370   3.928   0.662   3.925
  111SLPC  C21711371   3.717   0.741   3.895
  111SLPC  H17R11372   3.712   0.773   4.001
  111SLPC  H17S11373   3.667   0.642   3.894
  111SLPC  C21811374   3.635   0.847   3.816
  111SLPC  H18R11375   3.684   0.946   3.827
  111SLPC  H18S11376   3.533   0.847   3.859
  111SLPC  H18T11377   3.624   0.816   3.710
  111SLPC   C3311378   3.691   1.121   2.828
  111SLPC   H3X11379   3.584   1.128   2.799
  111SLPC   H3Y11380   3.740   1.210   2.783
  111SLPC   C3411381   3.709   1.134   2.978
  111SLPC   H4X11382   3.814   1.106   3.004
  111SLPC   H4Y11383   3.630   1.075   3.028
  111SLPC   C3511384   3.700   1.278   3.025
  111SLPC   H5X11385   3.592   1.301   3.017
  111SLPC   H5Y11386   3.751   1.347   2.954
  111SLPC   C3611387   3.756   1.290   3.169
  111SLPC   H6X11388   3.773   1.397   3.193
  111SLPC   H6Y11389   3.849   1.229   3.171
  111SLPC   C3711390   3.668   1.236   3.277
  111SLPC   H7X11391   3.658   1.126   3.283
  111SLPC   H7Y11392   3.566   1.279   3.266
  111SLPC   C3811393   3.711   1.289   3.412
  111SLPC   H8X11394   3.715   1.400   3.413
  111SLPC   H8Y11395   3.806   1.248   3.453
  111SLPC   C3911396   3.609   1.254   3.524
  111SLPC   H9X11397   3.540   1.171   3.501
  111SLPC   H9Y11398   3.546   1.345   3.538
  111SLPC  C31011399   3.680   1.216   3.662
  111SLPC  H10X11400   3.705   1.108   3.657
  111SLPC  H10Y11401   3.597   1.226   3.735
  111SLPC  C31111402   3.792   1.312   3.706
  111SLPC  H11X11403   3.755   1.413   3.679
  111SLPC  H11Y11404   3.881   1.281   3.648
  111SLPC  C31211405   3.831   1.325   3.855
  111SLPC  H12X11406   3.942   1.315   3.862
  111SLPC  H12Y11407   3.780   1.234   3.893
  111SLPC  C31311408   3.776   1.453   3.924
  111SLPC  H13X11409   3.670   1.462   3.893
  111SLPC  H13Y11410   3.830   1.537   3.877
  111SLPC  C31411411   3.792   1.471   4.080
  111SLPC  H14X11412   3.732   1.400   4.141
  111SLPC  H14Y11413   3.764   1.577   4.102
  111SLPC  C31511414   3.943   1.453   4.132
  111SLPC  H15X11415   4.003   1.529   4.076
  111SLPC  H15Y11416   3.971   1.350   4.104
  111SLPC  C31611417   3.955   1.451   4.281
  111SLPC  H16X11418   3.898   1.537   4.323
  111SLPC  H16Y11419   4.061   1.470   4.309
  111SLPC  C31711420   3.910   1.320   4.351
  111SLPC  H17X11421   3.967   1.237   4.304
  111SLPC  H17Y11422   3.806   1.304   4.315
  111SLPC  C31811423   3.922   1.332   4.506
  111SLPC  H18X11424   3.880   1.237   4.545
  111SLPC  H18Y11425   3.866   1.422   4.540
  111SLPC  H18Z11426   4.025   1.340   4.547
  112SLPC     N11427   6.719   5.113   1.743
  112SLPC   C1311428   6.823   5.204   1.677
  112SLPC  H13A11429   6.842   5.158   1.581
  112SLPC  H13B11430   6.792   5.306   1.661
  112SLPC  H13C11431   6.913   5.212   1.736
  112SLPC   C1411432   6.623   5.056   1.644
  112SLPC  H14A11433   6.549   4.988   1.683
  112SLPC  H14B11434   6.591   5.134   1.576
  112SLPC  H14C11435   6.672   4.991   1.572
  112SLPC   C1511436   6.641   5.195   1.842
  112SLPC  H15A11437   6.616   5.289   1.796
  112SLPC  H15B11438   6.553   5.153   1.890
  112SLPC  H15C11439   6.699   5.220   1.930
  112SLPC   C1211440   6.785   4.993   1.812
  112SLPC  H12A11441   6.834   4.943   1.729
  112SLPC  H12B11442   6.716   4.917   1.844
  112SLPC   C1111443   6.878   5.024   1.931
  112SLPC  H11A11444   6.820   5.077   2.010
  112SLPC  H11B11445   6.953   5.099   1.901
  112SLPC     P11446   6.839   4.802   2.057
  112SLPC   O1311447   6.741   4.736   1.969
  112SLPC   O1411448   6.909   4.709   2.147
  112SLPC   O1211449   6.937   4.902   1.978
  112SLPC   O1111450   6.756   4.899   2.148
  112SLPC    C111451   6.826   4.971   2.253
  112SLPC    HA11452   6.937   4.970   2.242
  112SLPC    HB11453   6.786   5.073   2.241
  112SLPC    C211454   6.797   4.917   2.401
  112SLPC    HS11455   6.823   4.808   2.401
  112SLPC   O2111456   6.663   4.933   2.442
  112SLPC   C2111457   6.572   4.842   2.420
  112SLPC   O2211458   6.598   4.733   2.367
  112SLPC   C2211459   6.438   4.879   2.474
  112SLPC   H2R11460   6.377   4.905   2.385
  112SLPC   H2S11461   6.391   4.788   2.519
  112SLPC    C311462   6.889   4.999   2.503
  112SLPC    HX11463   6.885   5.106   2.473
  112SLPC    HY11464   6.991   4.958   2.482
  112SLPC   O3111465   6.848   4.976   2.635
  112SLPC   C3111466   6.886   5.072   2.727
  112SLPC   O3211467   6.951   5.170   2.698
  112SLPC   C3211468   6.840   5.026   2.867
  112SLPC   H2X11469   6.887   4.929   2.895
  112SLPC   H2Y11470   6.729   5.014   2.862
  112SLPC   C2311471   6.436   4.996   2.571
  112SLPC   H3R11472   6.334   5.038   2.582
  112SLPC   H3S11473   6.504   5.077   2.535
  112SLPC   C2411474   6.470   4.943   2.710
  112SLPC   H4R11475   6.575   4.905   2.714
  112SLPC   H4S11476   6.416   4.848   2.730
  112SLPC   C2511477   6.440   5.044   2.814
  112SLPC   H5R11478   6.333   5.073   2.808
  112SLPC   H5S11479   6.499   5.139   2.811
  112SLPC   C2611480   6.445   4.974   2.951
  112SLPC   H6R11481   6.548   4.948   2.981
  112SLPC   H6S11482   6.382   4.882   2.957
  112SLPC   C2711483   6.379   5.060   3.064
  112SLPC   H7R11484   6.275   5.081   3.032
  112SLPC   H7S11485   6.438   5.154   3.073
  112SLPC   C2811486   6.383   5.002   3.206
  112SLPC   H8R11487   6.486   4.970   3.230
  112SLPC   H8S11488   6.322   4.911   3.188
  112SLPC   C2911489   6.315   5.089   3.307
  112SLPC   H9R11490   6.224   5.139   3.271
  112SLPC  C21011491   6.354   5.107   3.442
  112SLPC  H10R11492   6.300   5.187   3.495
  112SLPC  C21111493   6.471   5.066   3.515
  112SLPC  H11R11494   6.543   5.031   3.438
  112SLPC  H11S11495   6.448   4.976   3.575
  112SLPC  C21211496   6.532   5.184   3.592
  112SLPC  H12R11497   6.554   5.275   3.534
  112SLPC  C21311498   6.561   5.199   3.719
  112SLPC  H13R11499   6.610   5.291   3.754
  112SLPC  C21411500   6.535   5.102   3.824
  112SLPC  H14R11501   6.622   5.107   3.893
  112SLPC  H14S11502   6.527   4.999   3.783
  112SLPC  C21511503   6.414   5.130   3.913
  112SLPC  H15R11504   6.399   5.034   3.967
  112SLPC  H15S11505   6.327   5.147   3.846
  112SLPC  C21611506   6.418   5.251   4.007
  112SLPC  H16R11507   6.322   5.247   4.062
  112SLPC  H16S11508   6.416   5.347   3.951
  112SLPC  C21711509   6.543   5.246   4.103
  112SLPC  H17R11510   6.632   5.258   4.038
  112SLPC  H17S11511   6.538   5.143   4.144
  112SLPC  C21811512   6.543   5.359   4.207
  112SLPC  H18R11513   6.611   5.334   4.291
  112SLPC  H18S11514   6.442   5.364   4.253
  112SLPC  H18T11515   6.562   5.451   4.148
  112SLPC   C3311516   6.861   5.130   2.977
  112SLPC   H3X11517   6.831   5.232   2.946
  112SLPC   H3Y11518   6.971   5.124   2.993
  112SLPC   C3411519   6.770   5.102   3.099
  112SLPC   H4X11520   6.770   4.995   3.127
  112SLPC   H4Y11521   6.675   5.122   3.045
  112SLPC   C3511522   6.792   5.185   3.230
  112SLPC   H5X11523   6.708   5.175   3.302
  112SLPC   H5Y11524   6.781   5.291   3.199
  112SLPC   C3611525   6.922   5.151   3.297
  112SLPC   H6X11526   6.998   5.201   3.234
  112SLPC   H6Y11527   6.946   5.042   3.294
  112SLPC   C3711528   6.919   5.199   3.440
  112SLPC   H7X11529   6.852   5.139   3.506
  112SLPC   H7Y11530   6.866   5.296   3.445
  112SLPC   C3811531   7.057   5.214   3.509
  112SLPC   H8X11532   7.119   5.284   3.450
  112SLPC   H8Y11533   7.110   5.117   3.515
  112SLPC   C3911534   7.038   5.280   3.647
  112SLPC   H9X11535   7.006   5.193   3.708
  112SLPC   H9Y11536   6.956   5.354   3.643
  112SLPC  C31011537   7.157   5.332   3.725
  112SLPC  H10X11538   7.125   5.375   3.822
  112SLPC  H10Y11539   7.205   5.423   3.683
  112SLPC  C31111540   7.265   5.226   3.745
  112SLPC  H11X11541   7.312   5.183   3.654
  112SLPC  H11Y11542   7.218   5.137   3.791
  112SLPC  C31211543   7.384   5.275   3.835
  112SLPC  H12X11544   7.445   5.338   3.766
  112SLPC  H12Y11545   7.448   5.187   3.854
  112SLPC  C31311546   7.342   5.342   3.962
  112SLPC  H13X11547   7.256   5.411   3.952
  112SLPC  H13Y11548   7.430   5.391   4.010
  112SLPC  C31411549   7.306   5.234   4.064
  112SLPC  H14X11550   7.242   5.156   4.018
  112SLPC  H14Y11551   7.250   5.273   4.151
  112SLPC  C31511552   7.419   5.164   4.128
  112SLPC  H15X11553   7.489   5.230   4.183
  112SLPC  H15Y11554   7.488   5.128   4.049
  112SLPC  C31611555   7.383   5.048   4.218
  112SLPC  H16X11556   7.313   5.080   4.298
  112SLPC  H16Y11557   7.477   5.011   4.266
  112SLPC  C31711558   7.318   4.926   4.147
  112SLPC  H17X11559   7.389   4.904   4.064
  112SLPC  H17Y11560   7.217   4.953   4.111
  112SLPC  C31811561   7.296   4.799   4.237
  112SLPC  H18X11562   7.238   4.842   4.322
  112SLPC  H18Y11563   7.396   4.768   4.275
  112SLPC  H18Z11564   7.245   4.721   4.178
  113SAPC     N11565   5.291   4.001   6.454
  113SAPC   C1211566   5.342   3.856   6.427
  113SAPC  H12A11567   5.447   3.844   6.450
  113SAPC  H12B11568   5.342   3.846   6.320
  113SAPC   C1311569   5.303   4.044   6.598
  113SAPC  H13A11570   5.249   3.974   6.660
  113SAPC  H13B11571   5.406   4.044   6.631
  113SAPC  H13C11572   5.265   4.143   6.620
  113SAPC   C1411573   5.374   4.084   6.367
  113SAPC  H14A11574   5.421   4.165   6.421
  113SAPC  H14B11575   5.450   4.023   6.322
  113SAPC  H14C11576   5.320   4.138   6.291
  113SAPC   C1511577   5.142   4.020   6.411
  113SAPC  H15A11578   5.074   3.965   6.475
  113SAPC  H15B11579   5.118   4.124   6.429
  113SAPC  H15C11580   5.128   3.988   6.309
  113SAPC   C1111581   5.266   3.735   6.493
  113SAPC  H11A11582   5.263   3.744   6.604
  113SAPC  H11B11583   5.321   3.639   6.480
  113SAPC     P11584   5.109   3.673   6.297
  113SAPC   O1311585   5.179   3.748   6.196
  113SAPC   O1411586   5.139   3.526   6.313
  113SAPC   O1211587   5.130   3.726   6.442
  113SAPC   O1111588   4.958   3.697   6.276
  113SAPC    C111589   4.876   3.584   6.222
  113SAPC    HA11590   4.927   3.485   6.225
  113SAPC    HB11591   4.785   3.566   6.282
  113SAPC    C211592   4.829   3.601   6.073
  113SAPC    HS11593   4.768   3.517   6.033
  113SAPC   O2111594   4.944   3.610   5.992
  113SAPC   C2111595   5.014   3.492   5.970
  113SAPC   O2211596   4.972   3.385   6.008
  113SAPC   C2211597   5.128   3.518   5.868
  113SAPC   H2R11598   5.096   3.571   5.776
  113SAPC   H2S11599   5.202   3.579   5.925
  113SAPC    C311600   4.746   3.724   6.071
  113SAPC    HX11601   4.798   3.802   6.129
  113SAPC    HY11602   4.651   3.700   6.123
  113SAPC   O3111603   4.727   3.753   5.926
  113SAPC   C3111604   4.693   3.887   5.905
  113SAPC   O3211605   4.702   3.976   5.982
  113SAPC   C3211606   4.603   3.891   5.779
  113SAPC   H2X11607   4.497   3.869   5.800
  113SAPC   H2Y11608   4.644   3.815   5.709
  113SAPC   C2311609   5.195   3.384   5.822
  113SAPC   H3R11610   5.140   3.321   5.749
  113SAPC   H3S11611   5.214   3.313   5.905
  113SAPC   C2411612   5.336   3.421   5.764
  113SAPC   H4R11613   5.378   3.326   5.725
  113SAPC   H4S11614   5.395   3.454   5.852
  113SAPC   C2511615   5.345   3.524   5.658
  113SAPC   H5R11616   5.344   3.625   5.700
  113SAPC   C2611617   5.327   3.511   5.525
  113SAPC   H6R11618   5.341   3.605   5.469
  113SAPC   C2711619   5.292   3.392   5.449
  113SAPC   H7R11620   5.319   3.300   5.504
  113SAPC   H7S11621   5.354   3.385   5.356
  113SAPC   C2811622   5.143   3.380   5.418
  113SAPC   H8R11623   5.084   3.373   5.510
  113SAPC   C2911624   5.091   3.361   5.294
  113SAPC   H9R11625   4.983   3.353   5.276
  113SAPC  C21011626   5.178   3.357   5.173
  113SAPC  H10R11627   5.277   3.309   5.186
  113SAPC  H10S11628   5.204   3.463   5.152
  113SAPC  C21111629   5.112   3.297   5.048
  113SAPC  H11R11630   5.116   3.187   5.039
  113SAPC  C21211631   5.054   3.356   4.944
  113SAPC  H12R11632   5.004   3.293   4.869
  113SAPC  C21311633   5.024   3.501   4.916
  113SAPC  H13R11634   5.038   3.570   5.002
  113SAPC  H13S11635   4.919   3.514   4.882
  113SAPC  C21411636   5.123   3.555   4.804
  113SAPC  H14R11637   5.221   3.504   4.803
  113SAPC  C21511638   5.073   3.632   4.712
  113SAPC  H15R11639   5.139   3.658   4.628
  113SAPC  C21611640   4.930   3.683   4.698
  113SAPC  H16R11641   4.914   3.743   4.790
  113SAPC  H16S11642   4.849   3.608   4.693
  113SAPC  C21711643   4.908   3.768   4.573
  113SAPC  H17R11644   4.798   3.783   4.568
  113SAPC  H17S11645   4.944   3.707   4.487
  113SAPC  C21811646   4.983   3.907   4.572
  113SAPC  H18R11647   5.090   3.877   4.577
  113SAPC  H18S11648   4.951   3.962   4.662
  113SAPC  C21911649   4.959   3.998   4.456
  113SAPC  H19R11650   4.930   4.102   4.483
  113SAPC  H19S11651   4.870   3.954   4.405
  113SAPC  C22011652   5.091   4.006   4.365
  113SAPC  H20R11653   5.173   4.045   4.429
  113SAPC  H20S11654   5.070   4.065   4.273
  113SAPC  H20T11655   5.132   3.907   4.337
  113SAPC   C3311656   4.606   4.035   5.721
  113SAPC   H3X11657   4.706   4.081   5.732
  113SAPC   H3Y11658   4.543   4.102   5.784
  113SAPC   C3411659   4.557   4.046   5.579
  113SAPC   H4X11660   4.453   4.010   5.592
  113SAPC   H4Y11661   4.611   3.978   5.510
  113SAPC   C3511662   4.570   4.189   5.531
  113SAPC   H5X11663   4.677   4.217   5.523
  113SAPC   H5Y11664   4.522   4.261   5.601
  113SAPC   C3611665   4.502   4.197   5.393
  113SAPC   H6X11666   4.396   4.163   5.397
  113SAPC   H6Y11667   4.557   4.131   5.322
  113SAPC   C3711668   4.508   4.335   5.338
  113SAPC   H7X11669   4.615   4.361   5.339
  113SAPC   H7Y11670   4.446   4.401   5.402
  113SAPC   C3811671   4.454   4.345   5.199
  113SAPC   H8X11672   4.347   4.315   5.211
  113SAPC   H8Y11673   4.508   4.272   5.135
  113SAPC   C3911674   4.451   4.486   5.126
  113SAPC   H9X11675   4.556   4.520   5.116
  113SAPC   H9Y11676   4.376   4.547   5.181
  113SAPC  C31011677   4.377   4.474   4.992
  113SAPC  H10X11678   4.322   4.566   4.961
  113SAPC  H10Y11679   4.308   4.389   5.010
  113SAPC  C31111680   4.472   4.434   4.875
  113SAPC  H11X11681   4.534   4.357   4.925
  113SAPC  H11Y11682   4.530   4.524   4.847
  113SAPC  C31211683   4.399   4.376   4.753
  113SAPC  H12X11684   4.324   4.451   4.718
  113SAPC  H12Y11685   4.352   4.278   4.775
  113SAPC  C31311686   4.501   4.380   4.640
  113SAPC  H13X11687   4.588   4.325   4.682
  113SAPC  H13Y11688   4.540   4.480   4.610
  113SAPC  C31411689   4.449   4.324   4.503
  113SAPC  H14X11690   4.344   4.355   4.480
  113SAPC  H14Y11691   4.450   4.215   4.525
  113SAPC  C31511692   4.537   4.343   4.387
  113SAPC  H15X11693   4.623   4.278   4.414
  113SAPC  H15Y11694   4.561   4.451   4.376
  113SAPC  C31611695   4.469   4.297   4.259
  113SAPC  H16X11696   4.381   4.363   4.244
  113SAPC  H16Y11697   4.431   4.193   4.266
  113SAPC  C31711698   4.562   4.303   4.139
  113SAPC  H17X11699   4.622   4.396   4.133
  113SAPC  H17Y11700   4.494   4.304   4.052
  113SAPC  C31811701   4.658   4.187   4.139
  113SAPC  H18X11702   4.710   4.176   4.041
  113SAPC  H18Y11703   4.591   4.098   4.136
  113SAPC  H18Z11704   4.720   4.180   4.230
  114SAPC     N11705   2.863   4.371   6.575
  114SAPC   C1211706   2.797   4.471   6.483
  114SAPC  H12A11707   2.832   4.469   6.381
  114SAPC  H12B11708   2.838   4.566   6.513
  114SAPC   C1311709   2.849   4.237   6.523
  114SAPC  H13A11710   2.898   4.161   6.582
  114SAPC  H13B11711   2.748   4.199   6.516
  114SAPC  H13C11712   2.889   4.232   6.423
  114SAPC   C1411713   3.011   4.401   6.579
  114SAPC  H14A11714   3.067   4.339   6.647
  114SAPC  H14B11715   3.052   4.385   6.481
  114SAPC  H14C11716   3.032   4.501   6.616
  114SAPC   C1511717   2.809   4.382   6.712
  114SAPC  H15A11718   2.856   4.297   6.760
  114SAPC  H15B11719   2.845   4.470   6.763
  114SAPC  H15C11720   2.701   4.375   6.714
  114SAPC   C1111721   2.648   4.484   6.489
  114SAPC  H11A11722   2.627   4.568   6.419
  114SAPC  H11B11723   2.610   4.519   6.588
  114SAPC     P11724   2.452   4.315   6.511
  114SAPC   O1311725   2.442   4.163   6.510
  114SAPC   O1411726   2.419   4.381   6.641
  114SAPC   O1211727   2.593   4.358   6.448
  114SAPC   O1111728   2.353   4.375   6.404
  114SAPC    C111729   2.241   4.295   6.361
  114SAPC    HA11730   2.232   4.199   6.416
  114SAPC    HB11731   2.148   4.349   6.392
  114SAPC    C211732   2.233   4.279   6.203
  114SAPC    HS11733   2.314   4.205   6.188
  114SAPC   O2111734   2.220   4.412   6.142
  114SAPC   C2111735   2.331   4.432   6.068
  114SAPC   O2211736   2.420   4.348   6.064
  114SAPC   C2211737   2.334   4.572   6.001
  114SAPC   H2R11738   2.234   4.600   5.962
  114SAPC   H2S11739   2.360   4.651   6.075
  114SAPC    C311740   2.106   4.210   6.175
  114SAPC    HX11741   2.037   4.279   6.228
  114SAPC    HY11742   2.107   4.114   6.231
  114SAPC   O3111743   2.070   4.192   6.039
  114SAPC   C3111744   2.009   4.085   6.002
  114SAPC   O3211745   1.982   3.986   6.068
  114SAPC   C3211746   1.965   4.105   5.862
  114SAPC   H2X11747   1.860   4.142   5.873
  114SAPC   H2Y11748   1.963   4.005   5.814
  114SAPC   C2311749   2.429   4.593   5.878
  114SAPC   H3R11750   2.407   4.527   5.791
  114SAPC   H3S11751   2.535   4.583   5.909
  114SAPC   C2411752   2.413   4.741   5.831
  114SAPC   H4R11753   2.496   4.769   5.761
  114SAPC   H4S11754   2.407   4.801   5.924
  114SAPC   C2511755   2.282   4.771   5.755
  114SAPC   H5R11756   2.203   4.785   5.831
  114SAPC   C2611757   2.250   4.799   5.633
  114SAPC   H6R11758   2.145   4.819   5.608
  114SAPC   C2711759   2.343   4.787   5.508
  114SAPC   H7R11760   2.448   4.797   5.545
  114SAPC   H7S11761   2.326   4.861   5.428
  114SAPC   C2811762   2.337   4.651   5.443
  114SAPC   H8R11763   2.300   4.571   5.509
  114SAPC   C2911764   2.376   4.611   5.322
  114SAPC   H9R11765   2.346   4.514   5.280
  114SAPC  C21011766   2.441   4.710   5.225
  114SAPC  H10R11767   2.520   4.655   5.170
  114SAPC  H10S11768   2.496   4.798   5.263
  114SAPC  C21111769   2.339   4.775   5.132
  114SAPC  H11R11770   2.235   4.782   5.166
  114SAPC  C21211771   2.377   4.814   5.012
  114SAPC  H12R11772   2.300   4.851   4.942
  114SAPC  C21311773   2.521   4.805   4.957
  114SAPC  H13R11774   2.534   4.744   4.865
  114SAPC  H13S11775   2.595   4.761   5.027
  114SAPC  C21411776   2.583   4.948   4.947
  114SAPC  H14R11777   2.618   4.997   5.039
  114SAPC  C21511778   2.596   5.014   4.828
  114SAPC  H15R11779   2.624   5.120   4.834
  114SAPC  C21611780   2.562   4.968   4.693
  114SAPC  H16R11781   2.475   4.903   4.673
  114SAPC  H16S11782   2.639   4.910   4.639
  114SAPC  C21711783   2.525   5.093   4.604
  114SAPC  H17R11784   2.609   5.166   4.612
  114SAPC  H17S11785   2.432   5.144   4.638
  114SAPC  C21811786   2.495   5.057   4.458
  114SAPC  H18R11787   2.414   4.981   4.462
  114SAPC  H18S11788   2.587   5.009   4.418
  114SAPC  C21911789   2.449   5.181   4.377
  114SAPC  H19R11790   2.359   5.229   4.421
  114SAPC  H19S11791   2.423   5.140   4.277
  114SAPC  C22011792   2.557   5.281   4.352
  114SAPC  H20R11793   2.584   5.344   4.440
  114SAPC  H20S11794   2.528   5.354   4.273
  114SAPC  H20T11795   2.642   5.228   4.304
  114SAPC   C3311796   2.051   4.201   5.780
  114SAPC   H3X11797   2.037   4.180   5.672
  114SAPC   H3Y11798   2.159   4.183   5.798
  114SAPC   C3411799   2.006   4.348   5.794
  114SAPC   H4X11800   2.011   4.369   5.903
  114SAPC   H4Y11801   1.896   4.360   5.779
  114SAPC   C3511802   2.078   4.441   5.702
  114SAPC   H5X11803   2.185   4.411   5.704
  114SAPC   H5Y11804   2.077   4.540   5.753
  114SAPC   C3611805   2.017   4.455   5.558
  114SAPC   H6X11806   2.026   4.561   5.524
  114SAPC   H6Y11807   1.909   4.441   5.575
  114SAPC   C3711808   2.065   4.356   5.452
  114SAPC   H7X11809   2.020   4.255   5.462
  114SAPC   H7Y11810   2.173   4.344   5.474
  114SAPC   C3811811   2.039   4.417   5.311
  114SAPC   H8X11812   2.064   4.335   5.240
  114SAPC   H8Y11813   2.104   4.507   5.313
  114SAPC   C3911814   1.894   4.446   5.286
  114SAPC   H9X11815   1.884   4.545   5.336
  114SAPC   H9Y11816   1.825   4.375   5.334
  114SAPC  C31011817   1.855   4.448   5.138
  114SAPC  H10X11818   1.748   4.474   5.126
  114SAPC  H10Y11819   1.888   4.355   5.087
  114SAPC  C31111820   1.930   4.559   5.066
  114SAPC  H11X11821   2.034   4.530   5.042
  114SAPC  H11Y11822   1.938   4.653   5.126
  114SAPC  C31211823   1.859   4.605   4.938
  114SAPC  H12X11824   1.749   4.622   4.945
  114SAPC  H12Y11825   1.870   4.530   4.857
  114SAPC  C31311826   1.917   4.727   4.864
  114SAPC  H13X11827   2.028   4.726   4.854
  114SAPC  H13Y11828   1.883   4.808   4.932
  114SAPC  C31411829   1.848   4.746   4.729
  114SAPC  H14X11830   1.862   4.844   4.679
  114SAPC  H14Y11831   1.738   4.742   4.739
  114SAPC  C31511832   1.869   4.636   4.627
  114SAPC  H15X11833   1.872   4.532   4.665
  114SAPC  H15Y11834   1.965   4.669   4.583
  114SAPC  C31611835   1.763   4.632   4.520
  114SAPC  H16X11836   1.661   4.641   4.563
  114SAPC  H16Y11837   1.764   4.542   4.454
  114SAPC  C31711838   1.762   4.750   4.428
  114SAPC  H17X11839   1.754   4.841   4.490
  114SAPC  H17Y11840   1.662   4.743   4.379
  114SAPC  C31811841   1.871   4.742   4.327
  114SAPC  H18X11842   1.845   4.802   4.237
  114SAPC  H18Y11843   1.887   4.639   4.288
  114SAPC  H18Z11844   1.965   4.785   4.366
  115SAPC     N11845   6.545   0.446   6.414
  115SAPC   C1211846   6.532   0.551   6.525
  115SAPC  H12A11847   6.626   0.564   6.576
  115SAPC  H12B11848   6.466   0.514   6.603
  115SAPC   C1311849   6.630   0.499   6.298
  115SAPC  H13A11850   6.582   0.589   6.264
  115SAPC  H13B11851   6.729   0.531   6.328
  115SAPC  H13C11852   6.638   0.424   6.221
  115SAPC   C1411853   6.616   0.324   6.467
  115SAPC  H14A11854   6.584   0.283   6.561
  115SAPC  H14B11855   6.603   0.245   6.395
  115SAPC  H14C11856   6.718   0.358   6.482
  115SAPC   C1511857   6.410   0.406   6.359
  115SAPC  H15A11858   6.359   0.489   6.314
  115SAPC  H15B11859   6.420   0.328   6.285
  115SAPC  H15C11860   6.342   0.373   6.437
  115SAPC   C1111861   6.468   0.694   6.491
  115SAPC  H11A11862   6.467   0.758   6.581
  115SAPC  H11B11863   6.360   0.678   6.472
  115SAPC     P11864   6.442   0.839   6.277
  115SAPC   O1311865   6.356   0.732   6.219
  115SAPC   O1411866   6.377   0.955   6.333
  115SAPC   O1211867   6.533   0.767   6.387
  115SAPC   O1111868   6.542   0.891   6.160
  115SAPC    C111869   6.687   0.918   6.187
  115SAPC    HA11870   6.702   0.989   6.271
  115SAPC    HB11871   6.741   0.824   6.213
  115SAPC    C211872   6.762   0.960   6.049
  115SAPC    HS11873   6.866   0.986   6.078
  115SAPC   O2111874   6.701   1.078   5.992
  115SAPC   C2111875   6.788   1.140   5.906
  115SAPC   O2211876   6.903   1.121   5.892
  115SAPC   C2211877   6.707   1.264   5.842
  115SAPC   H2R11878   6.716   1.262   5.731
  115SAPC   H2S11879   6.599   1.237   5.848
  115SAPC    C311880   6.767   0.842   5.948
  115SAPC    HX11881   6.663   0.807   5.929
  115SAPC    HY11882   6.831   0.762   5.990
  115SAPC   O3111883   6.816   0.885   5.820
  115SAPC   C3111884   6.825   0.794   5.722
  115SAPC   O3211885   6.815   0.674   5.738
  115SAPC   C3211886   6.846   0.861   5.588
  115SAPC   H2X11887   6.941   0.919   5.581
  115SAPC   H2Y11888   6.755   0.923   5.575
  115SAPC   C2311889   6.746   1.407   5.891
  115SAPC   H3R11890   6.843   1.425   5.839
  115SAPC   H3S11891   6.771   1.399   5.999
  115SAPC   C2411892   6.636   1.502   5.859
  115SAPC   H4R11893   6.667   1.597   5.908
  115SAPC   H4S11894   6.548   1.461   5.911
  115SAPC   C2511895   6.628   1.521   5.708
  115SAPC   H5R11896   6.720   1.547   5.653
  115SAPC   C2611897   6.521   1.500   5.636
  115SAPC   H6R11898   6.525   1.515   5.527
  115SAPC   C2711899   6.387   1.453   5.677
  115SAPC   H7R11900   6.409   1.352   5.720
  115SAPC   H7S11901   6.337   1.430   5.581
  115SAPC   C2811902   6.302   1.551   5.752
  115SAPC   H8R11903   6.307   1.536   5.861
  115SAPC   C2911904   6.216   1.636   5.696
  115SAPC   H9R11905   6.160   1.708   5.759
  115SAPC  C21011906   6.189   1.656   5.548
  115SAPC  H10R11907   6.255   1.586   5.492
  115SAPC  H10S11908   6.216   1.758   5.513
  115SAPC  C21111909   6.037   1.614   5.527
  115SAPC  H11R11910   5.973   1.669   5.597
  115SAPC  C21211911   5.988   1.530   5.436
  115SAPC  H12R11912   5.882   1.503   5.445
  115SAPC  C21311913   6.065   1.465   5.329
  115SAPC  H13R11914   6.174   1.487   5.320
  115SAPC  H13S11915   6.017   1.499   5.235
  115SAPC  C21411916   6.051   1.322   5.334
  115SAPC  H14R11917   6.038   1.276   5.433
  115SAPC  C21511918   6.029   1.248   5.221
  115SAPC  H15R11919   5.993   1.144   5.229
  115SAPC  C21611920   6.022   1.288   5.073
  115SAPC  H16R11921   6.044   1.396   5.057
  115SAPC  H16S11922   5.923   1.256   5.033
  115SAPC  C21711923   6.124   1.211   4.987
  115SAPC  H17R11924   6.092   1.105   4.989
  115SAPC  H17S11925   6.230   1.225   5.020
  115SAPC  C21811926   6.118   1.256   4.836
  115SAPC  H18R11927   6.154   1.361   4.833
  115SAPC  H18S11928   6.009   1.247   4.814
  115SAPC  C21911929   6.208   1.173   4.751
  115SAPC  H19R11930   6.176   1.159   4.645
  115SAPC  H19S11931   6.197   1.069   4.788
  115SAPC  C22011932   6.359   1.210   4.750
  115SAPC  H20R11933   6.416   1.124   4.712
  115SAPC  H20S11934   6.387   1.243   4.853
  115SAPC  H20T11935   6.370   1.302   4.689
  115SAPC   C3311936   6.839   0.769   5.465
  115SAPC   H3X11937   6.744   0.711   5.474
  115SAPC   H3Y11938   6.928   0.703   5.456
  115SAPC   C3411939   6.839   0.848   5.336
  115SAPC   H4X11940   6.936   0.897   5.313
  115SAPC   H4Y11941   6.776   0.940   5.342
  115SAPC   C3511942   6.789   0.754   5.220
  115SAPC   H5X11943   6.697   0.700   5.249
  115SAPC   H5Y11944   6.870   0.682   5.196
  115SAPC   C3611945   6.752   0.830   5.092
  115SAPC   H6X11946   6.674   0.906   5.114
  115SAPC   H6Y11947   6.702   0.760   5.022
  115SAPC   C3711948   6.875   0.898   5.027
  115SAPC   H7X11949   6.911   0.807   4.974
  115SAPC   H7Y11950   6.951   0.930   5.100
  115SAPC   C3811951   6.839   1.023   4.943
  115SAPC   H8X11952   6.931   1.076   4.913
  115SAPC   H8Y11953   6.784   1.099   5.002
  115SAPC   C3911954   6.770   0.982   4.815
  115SAPC   H9X11955   6.679   0.929   4.851
  115SAPC   H9Y11956   6.827   0.910   4.752
  115SAPC  C31011957   6.737   1.093   4.721
  115SAPC  H10X11958   6.831   1.149   4.702
  115SAPC  H10Y11959   6.665   1.168   4.759
  115SAPC  C31111960   6.690   1.033   4.590
  115SAPC  H11X11961   6.613   0.960   4.624
  115SAPC  H11Y11962   6.773   0.978   4.540
  115SAPC  C31211963   6.627   1.127   4.493
  115SAPC  H12X11964   6.714   1.161   4.432
  115SAPC  H12Y11965   6.567   1.213   4.530
  115SAPC  C31311966   6.540   1.056   4.390
  115SAPC  H13X11967   6.457   1.003   4.440
  115SAPC  H13Y11968   6.604   0.986   4.332
  115SAPC  C31411969   6.488   1.158   4.288
  115SAPC  H14X11970   6.464   1.095   4.200
  115SAPC  H14Y11971   6.573   1.229   4.278
  115SAPC  C31511972   6.361   1.231   4.354
  115SAPC  H15X11973   6.388   1.281   4.450
  115SAPC  H15Y11974   6.299   1.142   4.377
  115SAPC  C31611975   6.288   1.335   4.269
  115SAPC  H16X11976   6.330   1.435   4.293
  115SAPC  H16Y11977   6.186   1.327   4.311
  115SAPC  C31711978   6.294   1.306   4.120
  115SAPC  H17X11979   6.237   1.210   4.122
  115SAPC  H17Y11980   6.396   1.285   4.080
  115SAPC  C31811981   6.234   1.403   4.015
  115SAPC  H18X11982   6.229   1.508   4.049
  115SAPC  H18Y11983   6.130   1.368   3.994
  115SAPC  H18Z11984   6.281   1.383   3.917
  116SAPC     N11985   3.440   6.000   6.703
  116SAPC   C1211986   3.451   6.049   6.559
  116SAPC  H12A11987   3.536   6.116   6.546
  116SAPC  H12B11988   3.360   6.103   6.538
  116SAPC   C1311989   3.310   5.912   6.700
  116SAPC  H13A11990   3.310   5.841   6.619
  116SAPC  H13B11991   3.312   5.842   6.783
  116SAPC  H13C11992   3.219   5.969   6.709
  116SAPC   C1411993   3.556   5.922   6.749
  116SAPC  H14A11994   3.538   5.865   6.840
  116SAPC  H14B11995   3.575   5.853   6.668
  116SAPC  H14C11996   3.645   5.982   6.758
  116SAPC   C1511997   3.412   6.112   6.797
  116SAPC  H15A11998   3.500   6.175   6.795
  116SAPC  H15B11999   3.326   6.169   6.767
  116SAPC  H15C12000   3.379   6.095   6.899
  116SAPC   C1112001   3.464   5.947   6.451
  116SAPC  H11A12002   3.453   5.998   6.353
  116SAPC  H11B12003   3.376   5.879   6.448
  116SAPC     P12004   3.717   5.923   6.405
  116SAPC   O1312005   3.719   6.069   6.410
  116SAPC   O1412006   3.824   5.848   6.471
  116SAPC   O1212007   3.577   5.871   6.465
  116SAPC   O1112008   3.711   5.879   6.249
  116SAPC    C112009   3.672   5.746   6.212
  116SAPC    HA12010   3.755   5.674   6.230
  116SAPC    HB12011   3.578   5.704   6.254
  116SAPC    C212012   3.631   5.731   6.067
  116SAPC    HS12013   3.604   5.625   6.052
  116SAPC   O2112014   3.740   5.768   5.973
  116SAPC   C2112015   3.832   5.672   5.966
  116SAPC   O2212016   3.835   5.571   6.034
  116SAPC   C2212017   3.936   5.710   5.860
  116SAPC   H2R12018   3.895   5.700   5.758
  116SAPC   H2S12019   3.957   5.818   5.875
  116SAPC    C312020   3.509   5.823   6.018
  116SAPC    HX12021   3.537   5.927   6.048
  116SAPC    HY12022   3.415   5.788   6.066
  116SAPC   O3112023   3.493   5.819   5.876
  116SAPC   C3112024   3.372   5.863   5.839
  116SAPC   O3212025   3.302   5.930   5.908
  116SAPC   C3212026   3.343   5.828   5.697
  116SAPC   H2X12027   3.269   5.895   5.647
  116SAPC   H2Y12028   3.299   5.726   5.701
  116SAPC   C2312029   4.062   5.623   5.875
  116SAPC   H3R12030   4.034   5.515   5.877
  116SAPC   H3S12031   4.113   5.639   5.972
  116SAPC   C2412032   4.158   5.654   5.761
  116SAPC   H4R12033   4.112   5.635   5.662
  116SAPC   H4S12034   4.246   5.590   5.785
  116SAPC   C2512035   4.205   5.795   5.769
  116SAPC   H5R12036   4.258   5.834   5.858
  116SAPC   C2612037   4.190   5.889   5.675
  116SAPC   H6R12038   4.223   5.991   5.698
  116SAPC   C2712039   4.115   5.878   5.539
  116SAPC   H7R12040   4.067   5.970   5.500
  116SAPC   H7S12041   4.024   5.814   5.548
  116SAPC   C2812042   4.197   5.810   5.435
  116SAPC   H8R12043   4.237   5.710   5.456
  116SAPC   C2912044   4.226   5.865   5.313
  116SAPC   H9R12045   4.304   5.814   5.255
  116SAPC  C21012046   4.196   6.003   5.267
  116SAPC  H10R12047   4.276   6.079   5.285
  116SAPC  H10S12048   4.104   6.041   5.318
  116SAPC  C21112049   4.161   6.010   5.120
  116SAPC  H11R12050   4.246   6.021   5.051
  116SAPC  C21212051   4.043   5.992   5.054
  116SAPC  H12R12052   4.040   5.996   4.944
  116SAPC  C21312053   3.901   5.974   5.115
  116SAPC  H13R12054   3.903   5.930   5.217
  116SAPC  H13S12055   3.852   5.899   5.051
  116SAPC  C21412056   3.834   6.108   5.113
  116SAPC  H14R12057   3.848   6.174   5.026
  116SAPC  C21512058   3.766   6.166   5.211
  116SAPC  H15R12059   3.729   6.269   5.197
  116SAPC  C21612060   3.726   6.113   5.342
  116SAPC  H16R12061   3.719   6.002   5.337
  116SAPC  H16S12062   3.621   6.139   5.368
  116SAPC  C21712063   3.827   6.143   5.454
  116SAPC  H17R12064   3.825   6.253   5.472
  116SAPC  H17S12065   3.929   6.112   5.426
  116SAPC  C21812066   3.782   6.074   5.582
  116SAPC  H18R12067   3.783   5.966   5.557
  116SAPC  H18S12068   3.681   6.112   5.609
  116SAPC  C21912069   3.867   6.096   5.710
  116SAPC  H19R12070   3.872   6.205   5.731
  116SAPC  H19S12071   3.972   6.060   5.703
  116SAPC  C22012072   3.785   6.027   5.827
  116SAPC  H20R12073   3.847   5.999   5.915
  116SAPC  H20S12074   3.713   5.948   5.795
  116SAPC  H20T12075   3.715   6.102   5.868
  116SAPC   C3312076   3.458   5.834   5.601
  116SAPC   H3X12077   3.538   5.763   5.630
  116SAPC   H3Y12078   3.505   5.933   5.621
  116SAPC   C3412079   3.439   5.810   5.452
  116SAPC   H4X12080   3.408   5.704   5.452
  116SAPC   H4Y12081   3.538   5.821   5.402
  116SAPC   C3512082   3.342   5.893   5.374
  116SAPC   H5X12083   3.347   6.001   5.397
  116SAPC   H5Y12084   3.239   5.863   5.404
  116SAPC   C3612085   3.353   5.865   5.222
  116SAPC   H6X12086   3.252   5.889   5.182
  116SAPC   H6Y12087   3.364   5.754   5.213
  116SAPC   C3712088   3.462   5.941   5.152
  116SAPC   H7X12089   3.564   5.924   5.192
  116SAPC   H7Y12090   3.438   6.048   5.170
  116SAPC   C3812091   3.464   5.905   5.002
  116SAPC   H8X12092   3.494   5.800   4.984
  116SAPC   H8Y12093   3.549   5.965   4.964
  116SAPC   C3912094   3.340   5.960   4.927
  116SAPC   H9X12095   3.345   6.069   4.946
  116SAPC   H9Y12096   3.238   5.926   4.955
  116SAPC  C31012097   3.359   5.929   4.774
  116SAPC  H10X12098   3.371   5.819   4.765
  116SAPC  H10Y12099   3.449   5.978   4.733
  116SAPC  C31112100   3.244   5.959   4.689
  116SAPC  H11X12101   3.226   6.068   4.677
  116SAPC  H11Y12102   3.152   5.924   4.740
  116SAPC  C31212103   3.243   5.895   4.547
  116SAPC  H12X12104   3.148   5.917   4.494
  116SAPC  H12Y12105   3.246   5.785   4.558
  116SAPC  C31312106   3.357   5.940   4.460
  116SAPC  H13X12107   3.454   5.947   4.515
  116SAPC  H13Y12108   3.343   6.047   4.435
  116SAPC  C31412109   3.365   5.864   4.322
  116SAPC  H14X12110   3.462   5.903   4.283
  116SAPC  H14Y12111   3.284   5.900   4.255
  116SAPC  C31512112   3.367   5.710   4.335
  116SAPC  H15X12113   3.261   5.683   4.351
  116SAPC  H15Y12114   3.422   5.668   4.422
  116SAPC  C31612115   3.400   5.648   4.206
  116SAPC  H16X12116   3.503   5.680   4.179
  116SAPC  H16Y12117   3.332   5.707   4.141
  116SAPC  C31712118   3.394   5.492   4.201
  116SAPC  H17X12119   3.463   5.461   4.283
  116SAPC  H17Y12120   3.423   5.449   4.103
  116SAPC  C31812121   3.257   5.439   4.240
  116SAPC  H18X12122   3.267   5.335   4.202
  116SAPC  H18Y12123   3.184   5.505   4.188
  116SAPC  H18Z12124   3.233   5.439   4.348
  117SAPC     N12125   6.402   3.738   6.206
  117SAPC   C1212126   6.465   3.730   6.070
  117SAPC  H12A12127   6.401   3.674   6.005
  117SAPC  H12B12128   6.560   3.678   6.070
  117SAPC   C1312129   6.378   3.597   6.251
  117SAPC  H13A12130   6.469   3.541   6.268
  117SAPC  H13B12131   6.315   3.591   6.339
  117SAPC  H13C12132   6.319   3.545   6.176
  117SAPC   C1412133   6.499   3.797   6.310
  117SAPC  H14A12134   6.580   3.727   6.321
  117SAPC  H14B12135   6.548   3.883   6.267
  117SAPC  H14C12136   6.441   3.808   6.401
  117SAPC   C1512137   6.277   3.818   6.211
  117SAPC  H15A12138   6.214   3.803   6.298
  117SAPC  H15B12139   6.298   3.924   6.216
  117SAPC  H15C12140   6.230   3.812   6.114
  117SAPC   C1112141   6.485   3.867   5.997
  117SAPC  H11A12142   6.387   3.917   5.981
  117SAPC  H11B12143   6.526   3.845   5.896
  117SAPC     P12144   6.610   4.094   6.070
  117SAPC   O1312145   6.511   4.172   6.149
  117SAPC   O1412146   6.749   4.119   6.106
  117SAPC   O1212147   6.578   3.943   6.073
  117SAPC   O1112148   6.593   4.120   5.917
  117SAPC    C112149   6.675   4.221   5.861
  117SAPC    HA12150   6.782   4.199   5.881
  117SAPC    HB12151   6.676   4.216   5.750
  117SAPC    C212152   6.624   4.363   5.891
  117SAPC    HS12153   6.619   4.371   6.002
  117SAPC   O2112154   6.508   4.379   5.816
  117SAPC   C2112155   6.421   4.469   5.870
  117SAPC   O2212156   6.439   4.536   5.971
  117SAPC   C2212157   6.302   4.496   5.782
  117SAPC   H2R12158   6.256   4.399   5.754
  117SAPC   H2S12159   6.234   4.556   5.846
  117SAPC    C312160   6.728   4.468   5.851
  117SAPC    HX12161   6.807   4.489   5.927
  117SAPC    HY12162   6.672   4.561   5.831
  117SAPC   O3112163   6.795   4.429   5.737
  117SAPC   C3112164   6.804   4.515   5.630
  117SAPC   O3212165   6.763   4.627   5.633
  117SAPC   C3212166   6.881   4.443   5.520
  117SAPC   H2X12167   6.837   4.342   5.502
  117SAPC   H2Y12168   6.989   4.439   5.546
  117SAPC   C2312169   6.336   4.564   5.650
  117SAPC   H3R12170   6.250   4.539   5.583
  117SAPC   H3S12171   6.434   4.528   5.612
  117SAPC   C2412172   6.344   4.716   5.666
  117SAPC   H4R12173   6.411   4.743   5.581
  117SAPC   H4S12174   6.397   4.736   5.762
  117SAPC   C2512175   6.211   4.784   5.671
  117SAPC   H5R12176   6.139   4.748   5.745
  117SAPC   C2612177   6.176   4.874   5.574
  117SAPC   H6R12178   6.089   4.940   5.592
  117SAPC   C2712179   6.256   4.922   5.455
  117SAPC   H7R12180   6.352   4.868   5.448
  117SAPC   H7S12181   6.295   5.024   5.476
  117SAPC   C2812182   6.166   4.914   5.334
  117SAPC   H8R12183   6.074   4.973   5.346
  117SAPC   C2912184   6.195   4.866   5.216
  117SAPC   H9R12185   6.117   4.884   5.140
  117SAPC  C21012186   6.323   4.812   5.163
  117SAPC  H10R12187   6.405   4.820   5.237
  117SAPC  H10S12188   6.354   4.881   5.082
  117SAPC  C21112189   6.296   4.676   5.107
  117SAPC  H11R12190   6.313   4.599   5.184
  117SAPC  C21212191   6.264   4.637   4.981
  117SAPC  H12R12192   6.260   4.531   4.954
  117SAPC  C21312193   6.234   4.732   4.870
  117SAPC  H13R12194   6.312   4.704   4.796
  117SAPC  H13S12195   6.254   4.837   4.899
  117SAPC  C21412196   6.094   4.724   4.822
  117SAPC  H14R12197   6.017   4.727   4.901
  117SAPC  C21512198   6.050   4.679   4.705
  117SAPC  H15R12199   5.942   4.685   4.687
  117SAPC  C21612200   6.140   4.639   4.595
  117SAPC  H16R12201   6.225   4.708   4.580
  117SAPC  H16S12202   6.083   4.654   4.501
  117SAPC  C21712203   6.207   4.495   4.603
  117SAPC  H17R12204   6.123   4.425   4.623
  117SAPC  H17S12205   6.273   4.498   4.692
  117SAPC  C21812206   6.265   4.449   4.476
  117SAPC  H18R12207   6.363   4.500   4.463
  117SAPC  H18S12208   6.205   4.467   4.385
  117SAPC  C21912209   6.279   4.291   4.475
  117SAPC  H19R12210   6.181   4.241   4.459
  117SAPC  H19S12211   6.335   4.257   4.565
  117SAPC  C22012212   6.367   4.248   4.353
  117SAPC  H20R12213   6.388   4.139   4.348
  117SAPC  H20S12214   6.467   4.297   4.355
  117SAPC  H20T12215   6.312   4.267   4.258
  117SAPC   C3312216   6.876   4.522   5.384
  117SAPC   H3X12217   6.943   4.610   5.393
  117SAPC   H3Y12218   6.781   4.572   5.356
  117SAPC   C3412219   6.938   4.438   5.270
  117SAPC   H4X12220   6.863   4.364   5.235
  117SAPC   H4Y12221   7.029   4.390   5.311
  117SAPC   C3512222   6.976   4.524   5.153
  117SAPC   H5X12223   7.062   4.583   5.190
  117SAPC   H5Y12224   6.893   4.584   5.110
  117SAPC   C3612225   7.037   4.439   5.043
  117SAPC   H6X12226   6.963   4.357   5.033
  117SAPC   H6Y12227   7.135   4.394   5.069
  117SAPC   C3712228   7.035   4.525   4.914
  117SAPC   H7X12229   7.112   4.603   4.933
  117SAPC   H7Y12230   6.939   4.581   4.904
  117SAPC   C3812231   7.059   4.444   4.790
  117SAPC   H8X12232   6.981   4.367   4.776
  117SAPC   H8Y12233   7.141   4.374   4.818
  117SAPC   C3912234   7.086   4.520   4.662
  117SAPC   H9X12235   6.995   4.580   4.640
  117SAPC   H9Y12236   7.108   4.445   4.583
  117SAPC  C31012237   7.203   4.622   4.684
  117SAPC  H10X12238   7.276   4.569   4.750
  117SAPC  H10Y12239   7.161   4.705   4.744
  117SAPC  C31112240   7.253   4.691   4.555
  117SAPC  H11X12241   7.166   4.714   4.490
  117SAPC  H11Y12242   7.328   4.631   4.500
  117SAPC  C31212243   7.341   4.807   4.590
  117SAPC  H12X12244   7.297   4.875   4.667
  117SAPC  H12Y12245   7.367   4.855   4.493
  117SAPC  C31312246   7.478   4.770   4.669
  117SAPC  H13X12247   7.457   4.686   4.739
  117SAPC  H13Y12248   7.520   4.853   4.731
  117SAPC  C31412249   7.586   4.719   4.571
  117SAPC  H14X12250   7.536   4.645   4.505
  117SAPC  H14Y12251   7.673   4.680   4.629
  117SAPC  C31512252   7.660   4.825   4.485
  117SAPC  H15X12253   7.717   4.894   4.551
  117SAPC  H15Y12254   7.586   4.886   4.429
  117SAPC  C31612255   7.733   4.766   4.366
  117SAPC  H16X12256   7.651   4.728   4.301
  117SAPC  H16Y12257   7.805   4.687   4.398
  117SAPC  C31712258   7.822   4.871   4.303
  117SAPC  H17X12259   7.896   4.891   4.383
  117SAPC  H17Y12260   7.763   4.962   4.279
  117SAPC  C31812261   7.882   4.824   4.172
  117SAPC  H18X12262   7.969   4.892   4.157
  117SAPC  H18Y12263   7.829   4.848   4.077
  117SAPC  H18Z12264   7.895   4.715   4.185
  118SAPC     N12265   2.286   6.256   6.531
  118SAPC   C1212266   2.213   6.274   6.395
  118SAPC  H12A12267   2.107   6.254   6.404
  118SAPC  H12B12268   2.249   6.203   6.322
  118SAPC   C1312269   2.247   6.121   6.588
  118SAPC  H13A12270   2.246   6.042   6.515
  118SAPC  H13B12271   2.320   6.108   6.666
  118SAPC  H13C12272   2.145   6.129   6.622
  118SAPC   C1412273   2.432   6.241   6.511
  118SAPC  H14A12274   2.488   6.210   6.598
  118SAPC  H14B12275   2.455   6.175   6.429
  118SAPC  H14C12276   2.472   6.340   6.494
  118SAPC   C1512277   2.254   6.362   6.627
  118SAPC  H15A12278   2.307   6.347   6.720
  118SAPC  H15B12279   2.278   6.461   6.589
  118SAPC  H15C12280   2.151   6.372   6.656
  118SAPC   C1112281   2.224   6.419   6.326
  118SAPC  H11A12282   2.210   6.400   6.218
  118SAPC  H11B12283   2.329   6.457   6.333
  118SAPC     P12284   1.973   6.482   6.357
  118SAPC   O1312285   1.927   6.379   6.452
  118SAPC   O1412286   1.911   6.614   6.375
  118SAPC   O1212287   2.132   6.510   6.380
  118SAPC   O1112288   1.950   6.422   6.207
  118SAPC    C112289   1.979   6.501   6.091
  118SAPC    HA12290   1.928   6.600   6.086
  118SAPC    HB12291   2.089   6.515   6.082
  118SAPC    C212292   1.922   6.431   5.968
  118SAPC    HS12293   1.814   6.404   5.971
  118SAPC   O2112294   2.004   6.310   5.943
  118SAPC   C2112295   1.926   6.208   5.902
  118SAPC   O2212296   1.804   6.208   5.904
  118SAPC   C2212297   2.016   6.092   5.853
  118SAPC   H2R12298   2.106   6.081   5.916
  118SAPC   H2S12299   1.959   5.998   5.873
  118SAPC    C312300   1.932   6.520   5.836
  118SAPC    HX12301   2.037   6.548   5.812
  118SAPC    HY12302   1.881   6.617   5.850
  118SAPC   O3112303   1.873   6.442   5.723
  118SAPC   C3112304   1.737   6.470   5.713
  118SAPC   O3212305   1.677   6.565   5.763
  118SAPC   C3212306   1.677   6.351   5.640
  118SAPC   H2X12307   1.615   6.288   5.707
  118SAPC   H2Y12308   1.757   6.285   5.601
  118SAPC   C2312309   2.013   6.083   5.700
  118SAPC   H3R12310   1.907   6.079   5.667
  118SAPC   H3S12311   2.047   5.979   5.677
  118SAPC   C2412312   2.094   6.186   5.619
  118SAPC   H4R12313   2.202   6.183   5.642
  118SAPC   H4S12314   2.055   6.286   5.648
  118SAPC   C2512315   2.093   6.161   5.467
  118SAPC   H5R12316   2.158   6.075   5.444
  118SAPC   C2612317   2.030   6.216   5.362
  118SAPC   H6R12318   2.069   6.179   5.266
  118SAPC   C2712319   1.948   6.342   5.371
  118SAPC   H7R12320   1.946   6.369   5.479
  118SAPC   H7S12321   1.841   6.321   5.349
  118SAPC   C2812322   2.003   6.461   5.292
  118SAPC   H8R12323   2.028   6.546   5.358
  118SAPC   C2912324   2.039   6.470   5.168
  118SAPC   H9R12325   2.081   6.563   5.124
  118SAPC  C21012326   2.043   6.361   5.062
  118SAPC  H10R12327   2.072   6.262   5.104
  118SAPC  H10S12328   2.122   6.384   4.987
  118SAPC  C21112329   1.912   6.340   4.987
  118SAPC  H11R12330   1.819   6.335   5.046
  118SAPC  C21212331   1.900   6.325   4.854
  118SAPC  H12R12332   1.800   6.310   4.810
  118SAPC  C21312333   2.013   6.350   4.756
  118SAPC  H13R12334   2.071   6.256   4.741
  118SAPC  H13S12335   2.081   6.427   4.798
  118SAPC  C21412336   1.959   6.400   4.622
  118SAPC  H14R12337   1.879   6.475   4.615
  118SAPC  C21512338   2.003   6.372   4.498
  118SAPC  H15R12339   1.944   6.405   4.411
  118SAPC  C21612340   2.112   6.276   4.462
  118SAPC  H16R12341   2.155   6.241   4.558
  118SAPC  H16S12342   2.192   6.335   4.411
  118SAPC  C21712343   2.067   6.152   4.372
  118SAPC  H17R12344   1.987   6.094   4.424
  118SAPC  H17S12345   2.145   6.078   4.345
  118SAPC  C21812346   1.982   6.186   4.246
  118SAPC  H18R12347   1.894   6.248   4.277
  118SAPC  H18S12348   1.944   6.091   4.204
  118SAPC  C21912349   2.067   6.258   4.136
  118SAPC  H19R12350   2.160   6.200   4.118
  118SAPC  H19S12351   2.095   6.360   4.171
  118SAPC  C22012352   2.003   6.263   3.995
  118SAPC  H20R12353   1.894   6.275   4.015
  118SAPC  H20S12354   2.022   6.171   3.935
  118SAPC  H20T12355   2.040   6.349   3.936
  118SAPC   C3312356   1.591   6.399   5.515
  118SAPC   H3X12357   1.645   6.479   5.461
  118SAPC   H3Y12358   1.499   6.446   5.556
  118SAPC   C3412359   1.564   6.283   5.413
  118SAPC   H4X12360   1.520   6.197   5.468
  118SAPC   H4Y12361   1.652   6.241   5.360
  118SAPC   C3512362   1.466   6.335   5.311
  118SAPC   H5X12363   1.409   6.424   5.345
  118SAPC   H5Y12364   1.397   6.255   5.276
  118SAPC   C3612365   1.551   6.376   5.194
  118SAPC   H6X12366   1.603   6.286   5.155
  118SAPC   H6Y12367   1.633   6.443   5.227
  118SAPC   C3712368   1.469   6.441   5.079
  118SAPC   H7X12369   1.430   6.540   5.110
  118SAPC   H7Y12370   1.379   6.379   5.062
  118SAPC   C3812371   1.558   6.453   4.951
  118SAPC   H8X12372   1.594   6.349   4.934
  118SAPC   H8Y12373   1.652   6.509   4.972
  118SAPC   C3912374   1.499   6.513   4.826
  118SAPC   H9X12375   1.581   6.526   4.752
  118SAPC   H9Y12376   1.468   6.617   4.852
  118SAPC  C31012377   1.385   6.431   4.777
  118SAPC  H10X12378   1.290   6.464   4.824
  118SAPC  H10Y12379   1.394   6.325   4.809
  118SAPC  C31112380   1.363   6.429   4.621
  118SAPC  H11X12381   1.279   6.357   4.614
  118SAPC  H11Y12382   1.454   6.385   4.574
  118SAPC  C31212383   1.347   6.562   4.549
  118SAPC  H12X12384   1.336   6.535   4.442
  118SAPC  H12Y12385   1.444   6.616   4.557
  118SAPC  C31312386   1.236   6.652   4.606
  118SAPC  H13X12387   1.268   6.757   4.589
  118SAPC  H13Y12388   1.238   6.647   4.717
  118SAPC  C31412389   1.099   6.621   4.543
  118SAPC  H14X12390   1.076   6.515   4.567
  118SAPC  H14Y12391   1.112   6.619   4.433
  118SAPC  C31512392   0.985   6.713   4.583
  118SAPC  H15X12393   1.012   6.814   4.546
  118SAPC  H15Y12394   0.980   6.721   4.694
  118SAPC  C31612395   0.850   6.661   4.530
  118SAPC  H16X12396   0.764   6.709   4.581
  118SAPC  H16Y12397   0.843   6.553   4.555
  118SAPC  C31712398   0.818   6.684   4.377
  118SAPC  H17X12399   0.908   6.671   4.314
  118SAPC  H17Y12400   0.792   6.790   4.356
  118SAPC  C31812401   0.698   6.611   4.324
  118SAPC  H18X12402   0.648   6.671   4.246
  118SAPC  H18Y12403   0.623   6.575   4.398
  118SAPC  H18Z12404   0.742   6.522   4.274
  119SAPC     N12405   2.824   3.928   2.031
  119SAPC   C1212406   2.834   3.882   2.179
  119SAPC  H12A12407   2.841   3.980   2.224
  119SAPC  H12B12408   2.924   3.824   2.189
  119SAPC   C1312409   2.749   3.816   1.957
  119SAPC  H13A12410   2.655   3.796   2.006
  119SAPC  H13B12411   2.740   3.838   1.852
  119SAPC  H13C12412   2.804   3.725   1.979
  119SAPC   C1412413   2.740   4.051   2.021
  119SAPC  H14A12414   2.649   4.038   2.078
  119SAPC  H14B12415   2.793   4.140   2.054
  119SAPC  H14C12416   2.708   4.066   1.919
  119SAPC   C1512417   2.958   3.946   1.962
  119SAPC  H15A12418   3.009   3.855   1.934
  119SAPC  H15B12419   2.945   4.010   1.875
  119SAPC  H15C12420   3.021   4.001   2.031
  119SAPC   C1112421   2.721   3.802   2.251
  119SAPC  H11A12422   2.759   3.778   2.353
  119SAPC  H11B12423   2.714   3.705   2.198
  119SAPC     P12424   2.566   3.991   2.337
  119SAPC   O1312425   2.693   4.060   2.351
  119SAPC   O1412426   2.451   4.072   2.297
  119SAPC   O1212427   2.591   3.870   2.246
  119SAPC   O1112428   2.535   3.930   2.477
  119SAPC    C112429   2.487   3.797   2.500
  119SAPC    HA12430   2.516   3.725   2.420
  119SAPC    HB12431   2.523   3.765   2.600
  119SAPC    C212432   2.325   3.805   2.509
  119SAPC    HS12433   2.300   3.813   2.401
  119SAPC   O2112434   2.287   3.920   2.589
  119SAPC   C2112435   2.169   3.975   2.561
  119SAPC   O2212436   2.087   3.917   2.492
  119SAPC   C2212437   2.149   4.102   2.631
  119SAPC   H2R12438   2.126   4.083   2.738
  119SAPC   H2S12439   2.238   4.166   2.612
  119SAPC    C312440   2.268   3.670   2.561
  119SAPC    HX12441   2.275   3.602   2.474
  119SAPC    HY12442   2.162   3.702   2.574
  119SAPC   O3112443   2.332   3.625   2.681
  119SAPC   C3112444   2.304   3.498   2.709
  119SAPC   O3212445   2.232   3.428   2.641
  119SAPC   C3212446   2.385   3.461   2.834
  119SAPC   H2X12447   2.375   3.555   2.893
  119SAPC   H2Y12448   2.494   3.453   2.819
  119SAPC   C2312449   2.020   4.167   2.559
  119SAPC   H3R12450   1.936   4.094   2.559
  119SAPC   H3S12451   2.039   4.205   2.456
  119SAPC   C2412452   1.974   4.283   2.650
  119SAPC   H4R12453   1.973   4.247   2.756
  119SAPC   H4S12454   1.869   4.306   2.623
  119SAPC   C2512455   2.044   4.407   2.622
  119SAPC   H5R12456   2.031   4.461   2.526
  119SAPC   C2612457   2.121   4.467   2.711
  119SAPC   H6R12458   2.171   4.561   2.685
  119SAPC   C2712459   2.161   4.417   2.844
  119SAPC   H7R12460   2.263   4.458   2.860
  119SAPC   H7S12461   2.202   4.315   2.825
  119SAPC   C2812462   2.072   4.434   2.962
  119SAPC   H8R12463   2.035   4.535   2.987
  119SAPC   C2912464   2.039   4.332   3.047
  119SAPC   H9R12465   1.978   4.354   3.136
  119SAPC  C21012466   2.085   4.196   3.041
  119SAPC  H10R12467   2.122   4.179   3.144
  119SAPC  H10S12468   2.167   4.172   2.970
  119SAPC  C21112469   1.974   4.101   3.012
  119SAPC  H11R12470   1.871   4.136   3.025
  119SAPC  C21212471   1.986   3.968   2.990
  119SAPC  H12R12472   1.890   3.922   2.962
  119SAPC  C21312473   2.111   3.889   2.997
  119SAPC  H13R12474   2.134   3.868   3.103
  119SAPC  H13S12475   2.201   3.935   2.950
  119SAPC  C21412476   2.091   3.765   2.913
  119SAPC  H14R12477   2.145   3.770   2.817
  119SAPC  C21512478   2.008   3.662   2.935
  119SAPC  H15R12479   2.003   3.577   2.865
  119SAPC  C21612480   1.927   3.639   3.056
  119SAPC  H16R12481   1.825   3.603   3.034
  119SAPC  H16S12482   1.920   3.737   3.109
  119SAPC  C21712483   2.010   3.549   3.150
  119SAPC  H17R12484   2.111   3.589   3.171
  119SAPC  H17S12485   2.009   3.442   3.119
  119SAPC  C21812486   1.938   3.538   3.288
  119SAPC  H18R12487   1.853   3.465   3.289
  119SAPC  H18S12488   1.889   3.638   3.293
  119SAPC  C21912489   2.030   3.503   3.407
  119SAPC  H19R12490   2.125   3.561   3.413
  119SAPC  H19S12491   2.057   3.396   3.394
  119SAPC  C22012492   1.962   3.513   3.539
  119SAPC  H20R12493   1.927   3.616   3.558
  119SAPC  H20S12494   2.029   3.480   3.622
  119SAPC  H20T12495   1.865   3.459   3.545
  119SAPC   C3312496   2.341   3.332   2.913
  119SAPC   H3X12497   2.365   3.248   2.844
  119SAPC   H3Y12498   2.230   3.329   2.909
  119SAPC   C3412499   2.412   3.314   3.049
  119SAPC   H4X12500   2.519   3.343   3.046
  119SAPC   H4Y12501   2.400   3.208   3.079
  119SAPC   C3512502   2.340   3.406   3.156
  119SAPC   H5X12503   2.239   3.365   3.179
  119SAPC   H5Y12504   2.326   3.506   3.109
  119SAPC   C3612505   2.410   3.430   3.292
  119SAPC   H6X12506   2.351   3.502   3.352
  119SAPC   H6Y12507   2.507   3.480   3.273
  119SAPC   C3712508   2.444   3.302   3.374
  119SAPC   H7X12509   2.526   3.241   3.330
  119SAPC   H7Y12510   2.352   3.240   3.377
  119SAPC   C3812511   2.470   3.337   3.522
  119SAPC   H8X12512   2.507   3.241   3.564
  119SAPC   H8Y12513   2.375   3.368   3.569
  119SAPC   C3912514   2.577   3.440   3.539
  119SAPC   H9X12515   2.536   3.526   3.483
  119SAPC   H9Y12516   2.674   3.404   3.498
  119SAPC  C31012517   2.594   3.472   3.687
  119SAPC  H10X12518   2.605   3.372   3.735
  119SAPC  H10Y12519   2.500   3.513   3.730
  119SAPC  C31112520   2.709   3.561   3.722
  119SAPC  H11X12521   2.717   3.648   3.655
  119SAPC  H11Y12522   2.809   3.512   3.718
  119SAPC  C31212523   2.699   3.602   3.869
  119SAPC  H12X12524   2.599   3.646   3.888
  119SAPC  H12Y12525   2.772   3.681   3.896
  119SAPC  C31312526   2.710   3.478   3.963
  119SAPC  H13X12527   2.786   3.404   3.929
  119SAPC  H13Y12528   2.616   3.418   3.959
  119SAPC  C31412529   2.739   3.515   4.106
  119SAPC  H14X12530   2.665   3.592   4.136
  119SAPC  H14Y12531   2.842   3.553   4.119
  119SAPC  C31512532   2.717   3.417   4.214
  119SAPC  H15X12533   2.772   3.453   4.303
  119SAPC  H15Y12534   2.764   3.322   4.179
  119SAPC  C31612535   2.566   3.384   4.248
  119SAPC  H16X12536   2.563   3.289   4.306
  119SAPC  H16Y12537   2.514   3.364   4.152
  119SAPC  C31712538   2.498   3.484   4.339
  119SAPC  H17X12539   2.475   3.579   4.287
  119SAPC  H17Y12540   2.566   3.498   4.426
  119SAPC  C31812541   2.357   3.433   4.379
  119SAPC  H18X12542   2.291   3.424   4.290
  119SAPC  H18Y12543   2.300   3.502   4.445
  119SAPC  H18Z12544   2.370   3.334   4.428
  120SAPC     N12545   5.329   5.210   1.909
  120SAPC   C1212546   5.226   5.203   2.023
  120SAPC  H12A12547   5.126   5.217   1.986
  120SAPC  H12B12548   5.247   5.284   2.092
  120SAPC   C1312549   5.293   5.106   1.808
  120SAPC  H13A12550   5.374   5.087   1.738
  120SAPC  H13B12551   5.285   5.016   1.868
  120SAPC  H13C12552   5.209   5.142   1.751
  120SAPC   C1412553   5.321   5.344   1.845
  120SAPC  H14A12554   5.225   5.368   1.803
  120SAPC  H14B12555   5.334   5.425   1.916
  120SAPC  H14C12556   5.400   5.352   1.772
  120SAPC   C1512557   5.468   5.180   1.959
  120SAPC  H15A12558   5.491   5.259   2.028
  120SAPC  H15B12559   5.474   5.080   1.998
  120SAPC  H15C12560   5.536   5.188   1.875
  120SAPC   C1112561   5.227   5.070   2.102
  120SAPC  H11A12562   5.189   5.089   2.204
  120SAPC  H11B12563   5.330   5.032   2.119
  120SAPC     P12564   4.985   4.984   2.056
  120SAPC   O1312565   4.923   5.121   2.048
  120SAPC   O1412566   4.925   4.885   1.963
  120SAPC   O1212567   5.136   4.982   2.032
  120SAPC   O1112568   4.975   4.932   2.200
  120SAPC    C112569   4.942   4.794   2.225
  120SAPC    HA12570   4.976   4.728   2.142
  120SAPC    HB12571   4.983   4.763   2.323
  120SAPC    C212572   4.795   4.771   2.241
  120SAPC    HS12573   4.747   4.800   2.145
  120SAPC   O2112574   4.756   4.854   2.350
  120SAPC   C2112575   4.632   4.878   2.381
  120SAPC   O2212576   4.532   4.852   2.309
  120SAPC   C2212577   4.633   4.968   2.505
  120SAPC   H2R12578   4.718   4.934   2.569
  120SAPC   H2S12579   4.667   5.064   2.460
  120SAPC    C312580   4.763   4.614   2.263
  120SAPC    HX12581   4.780   4.561   2.168
  120SAPC    HY12582   4.655   4.623   2.291
  120SAPC   O3112583   4.835   4.555   2.371
  120SAPC   C3112584   4.842   4.420   2.380
  120SAPC   O3212585   4.768   4.346   2.315
  120SAPC   C3212586   4.952   4.383   2.483
  120SAPC   H2X12587   5.043   4.423   2.435
  120SAPC   H2Y12588   4.964   4.272   2.485
  120SAPC   C2312589   4.495   4.972   2.573
  120SAPC   H3R12590   4.423   4.979   2.489
  120SAPC   H3S12591   4.488   5.052   2.649
  120SAPC   C2412592   4.466   4.842   2.662
  120SAPC   H4R12593   4.447   4.773   2.577
  120SAPC   H4S12594   4.370   4.854   2.717
  120SAPC   C2512595   4.574   4.780   2.749
  120SAPC   H5R12596   4.662   4.746   2.692
  120SAPC   C2612597   4.566   4.754   2.879
  120SAPC   H6R12598   4.649   4.710   2.936
  120SAPC   C2712599   4.451   4.784   2.972
  120SAPC   H7R12600   4.386   4.866   2.935
  120SAPC   H7S12601   4.501   4.829   3.060
  120SAPC   C2812602   4.364   4.660   3.006
  120SAPC   H8R12603   4.291   4.642   2.925
  120SAPC   C2912604   4.347   4.590   3.117
  120SAPC   H9R12605   4.285   4.499   3.114
  120SAPC  C21012606   4.409   4.614   3.252
  120SAPC  H10R12607   4.329   4.650   3.322
  120SAPC  H10S12608   4.477   4.700   3.231
  120SAPC  C21112609   4.484   4.492   3.289
  120SAPC  H11R12610   4.524   4.438   3.202
  120SAPC  C21212611   4.499   4.431   3.410
  120SAPC  H12R12612   4.559   4.339   3.420
  120SAPC  C21312613   4.436   4.482   3.536
  120SAPC  H13R12614   4.419   4.390   3.596
  120SAPC  H13S12615   4.335   4.520   3.512
  120SAPC  C21412616   4.511   4.588   3.610
  120SAPC  H14R12617   4.572   4.651   3.544
  120SAPC  C21512618   4.506   4.612   3.741
  120SAPC  H15R12619   4.564   4.693   3.789
  120SAPC  C21612620   4.430   4.533   3.844
  120SAPC  H16R12621   4.475   4.536   3.945
  120SAPC  H16S12622   4.410   4.432   3.802
  120SAPC  C21712623   4.292   4.595   3.851
  120SAPC  H17R12624   4.246   4.588   3.751
  120SAPC  H17S12625   4.295   4.706   3.859
  120SAPC  C21812626   4.204   4.544   3.969
  120SAPC  H18R12627   4.253   4.553   4.068
  120SAPC  H18S12628   4.197   4.433   3.968
  120SAPC  C21912629   4.065   4.620   3.965
  120SAPC  H19R12630   4.013   4.632   3.868
  120SAPC  H19S12631   4.090   4.727   3.979
  120SAPC  C22012632   3.964   4.574   4.072
  120SAPC  H20R12633   3.857   4.571   4.042
  120SAPC  H20S12634   3.972   4.619   4.173
  120SAPC  H20T12635   3.978   4.464   4.081
  120SAPC   C3312636   4.931   4.434   2.627
  120SAPC   H3X12637   4.928   4.545   2.627
  120SAPC   H3Y12638   5.021   4.423   2.691
  120SAPC   C3412639   4.805   4.363   2.684
  120SAPC   H4X12640   4.819   4.253   2.675
  120SAPC   H4Y12641   4.708   4.384   2.634
  120SAPC   C3512642   4.777   4.391   2.839
  120SAPC   H5X12643   4.671   4.370   2.867
  120SAPC   H5Y12644   4.781   4.502   2.847
  120SAPC   C3612645   4.866   4.322   2.949
  120SAPC   H6X12646   4.977   4.329   2.947
  120SAPC   H6Y12647   4.841   4.215   2.935
  120SAPC   C3712648   4.825   4.372   3.083
  120SAPC   H7X12649   4.715   4.364   3.098
  120SAPC   H7Y12650   4.837   4.483   3.088
  120SAPC   C3812651   4.898   4.301   3.199
  120SAPC   H8X12652   5.008   4.313   3.191
  120SAPC   H8Y12653   4.877   4.192   3.192
  120SAPC   C3912654   4.856   4.349   3.340
  120SAPC   H9X12655   4.751   4.315   3.353
  120SAPC   H9Y12656   4.861   4.458   3.358
  120SAPC  C31012657   4.953   4.289   3.445
  120SAPC  H10X12658   5.039   4.356   3.464
  120SAPC  H10Y12659   4.988   4.191   3.406
  120SAPC  C31112660   4.873   4.278   3.572
  120SAPC  H11X12661   4.825   4.374   3.599
  120SAPC  H11Y12662   4.944   4.253   3.654
  120SAPC  C31212663   4.774   4.164   3.564
  120SAPC  H12X12664   4.826   4.066   3.573
  120SAPC  H12Y12665   4.718   4.151   3.469
  120SAPC  C31312666   4.678   4.182   3.682
  120SAPC  H13X12667   4.620   4.277   3.690
  120SAPC  H13Y12668   4.746   4.166   3.769
  120SAPC  C31412669   4.570   4.070   3.672
  120SAPC  H14X12670   4.604   3.964   3.668
  120SAPC  H14Y12671   4.504   4.076   3.583
  120SAPC  C31512672   4.474   4.070   3.800
  120SAPC  H15X12673   4.425   4.170   3.793
  120SAPC  H15Y12674   4.529   4.062   3.896
  120SAPC  C31612675   4.358   3.969   3.791
  120SAPC  H16X12676   4.300   3.986   3.698
  120SAPC  H16Y12677   4.289   3.989   3.876
  120SAPC  C31712678   4.403   3.820   3.811
  120SAPC  H17X12679   4.462   3.787   3.722
  120SAPC  H17Y12680   4.314   3.754   3.816
  120SAPC  C31812681   4.491   3.804   3.933
  120SAPC  H18X12682   4.510   3.694   3.939
  120SAPC  H18Y12683   4.427   3.826   4.021
  120SAPC  H18Z12684   4.579   3.872   3.933
  121SAPC     N12685   1.133   2.216   1.650
  121SAPC   C1212686   1.078   2.128   1.769
  121SAPC  H12A12687   0.996   2.184   1.812
  121SAPC  H12B12688   1.148   2.127   1.850
  121SAPC   C1312689   1.032   2.239   1.546
  121SAPC  H13A12690   0.997   2.146   1.506
  121SAPC  H13B12691   0.948   2.285   1.596
  121SAPC  H13C12692   1.064   2.310   1.470
  121SAPC   C1412693   1.177   2.344   1.716
  121SAPC  H14A12694   1.089   2.398   1.750
  121SAPC  H14B12695   1.246   2.332   1.798
  121SAPC  H14C12696   1.219   2.418   1.649
  121SAPC   C1512697   1.251   2.142   1.591
  121SAPC  H15A12698   1.222   2.040   1.572
  121SAPC  H15B12699   1.296   2.188   1.505
  121SAPC  H15C12700   1.332   2.147   1.663
  121SAPC   C1112701   1.048   1.985   1.733
  121SAPC  H11A12702   1.013   1.936   1.827
  121SAPC  H11B12703   1.138   1.927   1.706
  121SAPC     P12704   0.799   1.956   1.667
  121SAPC   O1312705   0.746   2.094   1.692
  121SAPC   O1412706   0.732   1.878   1.560
  121SAPC   O1212707   0.947   1.982   1.627
  121SAPC   O1112708   0.797   1.870   1.797
  121SAPC    C112709   0.683   1.801   1.846
  121SAPC    HA12710   0.613   1.872   1.894
  121SAPC    HB12711   0.626   1.746   1.768
  121SAPC    C212712   0.726   1.701   1.959
  121SAPC    HS12713   0.646   1.624   1.960
  121SAPC   O2112714   0.767   1.769   2.085
  121SAPC   C2112715   0.665   1.784   2.166
  121SAPC   O2212716   0.549   1.758   2.137
  121SAPC   C2212717   0.716   1.834   2.301
  121SAPC   H2R12718   0.771   1.746   2.340
  121SAPC   H2S12719   0.781   1.923   2.283
  121SAPC    C312720   0.846   1.620   1.902
  121SAPC    HX12721   0.920   1.702   1.896
  121SAPC    HY12722   0.808   1.577   1.807
  121SAPC   O3112723   0.891   1.527   2.003
  121SAPC   C3112724   0.825   1.416   2.016
  121SAPC   O3212725   0.734   1.377   1.942
  121SAPC   C3212726   0.883   1.337   2.130
  121SAPC   H2X12727   0.973   1.393   2.163
  121SAPC   H2Y12728   0.916   1.242   2.084
  121SAPC   C2312729   0.590   1.874   2.379
  121SAPC   H3R12730   0.496   1.814   2.373
  121SAPC   H3S12731   0.568   1.972   2.331
  121SAPC   C2412732   0.624   1.908   2.529
  121SAPC   H4R12733   0.540   1.949   2.589
  121SAPC   H4S12734   0.706   1.983   2.527
  121SAPC   C2512735   0.670   1.784   2.598
  121SAPC   H5R12736   0.773   1.752   2.580
  121SAPC   C2612737   0.601   1.719   2.694
  121SAPC   H6R12738   0.656   1.639   2.746
  121SAPC   C2712739   0.464   1.761   2.753
  121SAPC   H7R12740   0.467   1.868   2.781
  121SAPC   H7S12741   0.457   1.713   2.853
  121SAPC   C2812742   0.336   1.728   2.686
  121SAPC   H8R12743   0.356   1.675   2.592
  121SAPC   C2912744   0.219   1.793   2.702
  121SAPC   H9R12745   0.131   1.768   2.641
  121SAPC  C21012746   0.191   1.904   2.802
  121SAPC  H10R12747   0.258   1.905   2.891
  121SAPC  H10S12748   0.090   1.895   2.846
  121SAPC  C21112749   0.193   2.034   2.738
  121SAPC  H11R12750   0.170   2.047   2.631
  121SAPC  C21212751   0.206   2.149   2.809
  121SAPC  H12R12752   0.203   2.248   2.762
  121SAPC  C21312753   0.223   2.149   2.961
  121SAPC  H13R12754   0.245   2.253   2.991
  121SAPC  H13S12755   0.316   2.098   2.995
  121SAPC  C21412756   0.108   2.103   3.049
  121SAPC  H14R12757   0.034   2.041   2.995
  121SAPC  C21512758   0.080   2.133   3.180
  121SAPC  H15R12759  -0.003   2.084   3.233
  121SAPC  C21612760   0.160   2.227   3.264
  121SAPC  H16R12761   0.136   2.328   3.226
  121SAPC  H16S12762   0.270   2.210   3.270
  121SAPC  C21712763   0.118   2.237   3.411
  121SAPC  H17R12764   0.008   2.243   3.422
  121SAPC  H17S12765   0.164   2.331   3.448
  121SAPC  C21812766   0.177   2.119   3.490
  121SAPC  H18R12767   0.287   2.114   3.475
  121SAPC  H18S12768   0.135   2.022   3.459
  121SAPC  C21912769   0.147   2.132   3.638
  121SAPC  H19R12770   0.211   2.210   3.686
  121SAPC  H19S12771   0.181   2.036   3.681
  121SAPC  C22012772  -0.001   2.168   3.656
  121SAPC  H20R12773  -0.034   2.268   3.621
  121SAPC  H20S12774  -0.025   2.156   3.764
  121SAPC  H20T12775  -0.057   2.087   3.605
  121SAPC   C3312776   0.781   1.294   2.240
  121SAPC   H3X12777   0.807   1.194   2.280
  121SAPC   H3Y12778   0.684   1.270   2.190
  121SAPC   C3412779   0.752   1.398   2.340
  121SAPC   H4X12780   0.677   1.468   2.297
  121SAPC   H4Y12781   0.851   1.441   2.368
  121SAPC   C3512782   0.688   1.344   2.472
  121SAPC   H5X12783   0.689   1.420   2.553
  121SAPC   H5Y12784   0.757   1.260   2.495
  121SAPC   C3612785   0.543   1.294   2.450
  121SAPC   H6X12786   0.546   1.230   2.359
  121SAPC   H6Y12787   0.476   1.381   2.434
  121SAPC   C3712788   0.492   1.207   2.562
  121SAPC   H7X12789   0.559   1.119   2.572
  121SAPC   H7Y12790   0.395   1.165   2.530
  121SAPC   C3812791   0.470   1.267   2.706
  121SAPC   H8X12792   0.374   1.224   2.742
  121SAPC   H8Y12793   0.460   1.377   2.698
  121SAPC   C3912794   0.590   1.229   2.799
  121SAPC   H9X12795   0.682   1.271   2.754
  121SAPC   H9Y12796   0.600   1.118   2.792
  121SAPC  C31012797   0.571   1.282   2.937
  121SAPC  H10X12798   0.536   1.387   2.925
  121SAPC  H10Y12799   0.671   1.283   2.985
  121SAPC  C31112800   0.488   1.192   3.017
  121SAPC  H11X12801   0.544   1.099   3.037
  121SAPC  H11Y12802   0.388   1.177   2.970
  121SAPC  C31212803   0.461   1.253   3.157
  121SAPC  H12X12804   0.447   1.363   3.157
  121SAPC  H12Y12805   0.554   1.245   3.218
  121SAPC  C31312806   0.341   1.183   3.218
  121SAPC  H13X12807   0.372   1.076   3.228
  121SAPC  H13Y12808   0.251   1.196   3.155
  121SAPC  C31412809   0.316   1.224   3.359
  121SAPC  H14X12810   0.280   1.329   3.353
  121SAPC  H14Y12811   0.407   1.212   3.422
  121SAPC  C31512812   0.211   1.142   3.438
  121SAPC  H15X12813   0.231   1.033   3.428
  121SAPC  H15Y12814   0.108   1.156   3.398
  121SAPC  C31612815   0.201   1.176   3.593
  121SAPC  H16X12816   0.163   1.280   3.600
  121SAPC  H16Y12817   0.303   1.187   3.636
  121SAPC  C31712818   0.107   1.088   3.668
  121SAPC  H17X12819   0.154   0.988   3.668
  121SAPC  H17Y12820   0.005   1.081   3.623
  121SAPC  C31812821   0.082   1.144   3.810
  121SAPC  H18X12822   0.167   1.157   3.880
  121SAPC  H18Y12823   0.022   1.062   3.856
  121SAPC  H18Z12824   0.030   1.239   3.787
  122SAPC     N12825   2.916   5.736   1.668
  122SAPC   C1212826   3.057   5.783   1.631
  122SAPC  H12A12827   3.053   5.828   1.533
  122SAPC  H12B12828   3.103   5.686   1.616
  122SAPC   C1312829   2.825   5.845   1.711
  122SAPC  H13A12830   2.731   5.808   1.750
  122SAPC  H13B12831   2.866   5.910   1.788
  122SAPC  H13C12832   2.794   5.905   1.627
  122SAPC   C1412833   2.861   5.679   1.545
  122SAPC  H14A12834   2.910   5.595   1.497
  122SAPC  H14B12835   2.765   5.635   1.573
  122SAPC  H14C12836   2.852   5.750   1.465
  122SAPC   C1512837   2.923   5.636   1.780
  122SAPC  H15A12838   2.945   5.536   1.747
  122SAPC  H15B12839   2.997   5.667   1.853
  122SAPC  H15C12840   2.832   5.629   1.837
  122SAPC   C1112841   3.117   5.876   1.735
  122SAPC  H11A12842   3.044   5.957   1.756
  122SAPC  H11B12843   3.205   5.931   1.695
  122SAPC     P12844   3.280   5.723   1.883
  122SAPC   O1312845   3.245   5.577   1.888
  122SAPC   O1412846   3.384   5.768   1.784
  122SAPC   O1212847   3.152   5.810   1.855
  122SAPC   O1112848   3.335   5.762   2.028
  122SAPC    C112849   3.339   5.896   2.065
  122SAPC    HA12850   3.330   5.964   1.977
  122SAPC    HB12851   3.265   5.929   2.140
  122SAPC    C212852   3.478   5.938   2.117
  122SAPC    HS12853   3.552   5.899   2.043
  122SAPC   O2112854   3.491   5.869   2.246
  122SAPC   C2112855   3.607   5.829   2.283
  122SAPC   O2212856   3.713   5.854   2.225
  122SAPC   C2212857   3.588   5.748   2.411
  122SAPC   H2R12858   3.566   5.826   2.488
  122SAPC   H2S12859   3.497   5.685   2.404
  122SAPC    C312860   3.498   6.093   2.122
  122SAPC    HX12861   3.497   6.144   2.023
  122SAPC    HY12862   3.601   6.103   2.162
  122SAPC   O3112863   3.418   6.155   2.222
  122SAPC   C3112864   3.367   6.271   2.188
  122SAPC   O3212865   3.392   6.331   2.085
  122SAPC   C3212866   3.256   6.310   2.291
  122SAPC   H2X12867   3.220   6.212   2.331
  122SAPC   H2Y12868   3.169   6.344   2.231
  122SAPC   C2312869   3.709   5.670   2.450
  122SAPC   H3R12870   3.743   5.620   2.357
  122SAPC   H3S12871   3.677   5.593   2.523
  122SAPC   C2412872   3.811   5.755   2.529
  122SAPC   H4R12873   3.764   5.759   2.629
  122SAPC   H4S12874   3.820   5.861   2.495
  122SAPC   C2512875   3.948   5.703   2.520
  122SAPC   H5R12876   4.007   5.734   2.432
  122SAPC   C2612877   4.014   5.623   2.607
  122SAPC   H6R12878   4.120   5.597   2.597
  122SAPC   C2712879   3.948   5.577   2.736
  122SAPC   H7R12880   3.844   5.549   2.707
  122SAPC   H7S12881   3.936   5.664   2.805
  122SAPC   C2812882   4.020   5.461   2.810
  122SAPC   H8R12883   4.130   5.466   2.812
  122SAPC   C2912884   3.961   5.365   2.887
  122SAPC   H9R12885   4.030   5.290   2.929
  122SAPC  C21012886   3.812   5.352   2.906
  122SAPC  H10R12887   3.773   5.346   2.802
  122SAPC  H10S12888   3.775   5.447   2.951
  122SAPC  C21112889   3.768   5.235   2.995
  122SAPC  H11R12890   3.715   5.147   2.957
  122SAPC  C21212891   3.771   5.231   3.130
  122SAPC  H12R12892   3.726   5.141   3.175
  122SAPC  C21312893   3.822   5.336   3.224
  122SAPC  H13R12894   3.745   5.348   3.303
  122SAPC  H13S12895   3.819   5.433   3.170
  122SAPC  C21412896   3.964   5.330   3.267
  122SAPC  H14R12897   4.035   5.379   3.200
  122SAPC  C21512898   4.011   5.278   3.382
  122SAPC  H15R12899   4.118   5.296   3.399
  122SAPC  C21612900   3.923   5.213   3.491
  122SAPC  H16R12901   3.983   5.128   3.531
  122SAPC  H16S12902   3.838   5.168   3.436
  122SAPC  C21712903   3.878   5.297   3.609
  122SAPC  H17R12904   3.799   5.367   3.572
  122SAPC  H17S12905   3.962   5.359   3.647
  122SAPC  C21812906   3.820   5.197   3.715
  122SAPC  H18R12907   3.891   5.120   3.753
  122SAPC  H18S12908   3.732   5.155   3.662
  122SAPC  C21912909   3.770   5.281   3.841
  122SAPC  H19R12910   3.727   5.378   3.809
  122SAPC  H19S12911   3.853   5.324   3.901
  122SAPC  C22012912   3.682   5.197   3.937
  122SAPC  H20R12913   3.584   5.181   3.887
  122SAPC  H20S12914   3.663   5.257   4.028
  122SAPC  H20T12915   3.722   5.097   3.964
  122SAPC   C3312916   3.293   6.403   2.399
  122SAPC   H3X12917   3.196   6.429   2.446
  122SAPC   H3Y12918   3.343   6.498   2.370
  122SAPC   C3412919   3.388   6.336   2.503
  122SAPC   H4X12920   3.485   6.321   2.452
  122SAPC   H4Y12921   3.353   6.235   2.531
  122SAPC   C3512922   3.421   6.417   2.626
  122SAPC   H5X12923   3.451   6.518   2.590
  122SAPC   H5Y12924   3.504   6.371   2.684
  122SAPC   C3612925   3.300   6.421   2.712
  122SAPC   H6X12926   3.257   6.319   2.715
  122SAPC   H6Y12927   3.229   6.493   2.666
  122SAPC   C3712928   3.323   6.459   2.857
  122SAPC   H7X12929   3.224   6.493   2.895
  122SAPC   H7Y12930   3.381   6.554   2.853
  122SAPC   C3812931   3.379   6.349   2.939
  122SAPC   H8X12932   3.407   6.405   3.031
  122SAPC   H8Y12933   3.457   6.294   2.882
  122SAPC   C3912934   3.274   6.247   2.990
  122SAPC   H9X12935   3.218   6.211   2.901
  122SAPC   H9Y12936   3.205   6.299   3.059
  122SAPC  C31012937   3.337   6.120   3.049
  122SAPC  H10X12938   3.395   6.138   3.142
  122SAPC  H10Y12939   3.424   6.095   2.984
  122SAPC  C31112940   3.235   6.012   3.068
  122SAPC  H11X12941   3.295   5.926   3.107
  122SAPC  H11Y12942   3.193   5.978   2.971
  122SAPC  C31212943   3.122   6.032   3.168
  122SAPC  H12X12944   3.054   5.945   3.165
  122SAPC  H12Y12945   3.066   6.122   3.132
  122SAPC  C31312946   3.155   6.050   3.320
  122SAPC  H13X12947   3.252   6.102   3.334
  122SAPC  H13Y12948   3.170   5.950   3.366
  122SAPC  C31412949   3.042   6.116   3.401
  122SAPC  H14X12950   3.023   6.221   3.371
  122SAPC  H14Y12951   3.080   6.115   3.506
  122SAPC  C31512952   2.915   6.032   3.416
  122SAPC  H15X12953   2.941   5.935   3.465
  122SAPC  H15Y12954   2.883   6.019   3.311
  122SAPC  C31612955   2.805   6.106   3.487
  122SAPC  H16X12956   2.708   6.073   3.443
  122SAPC  H16Y12957   2.812   6.216   3.474
  122SAPC  C31712958   2.795   6.082   3.643
  122SAPC  H17X12959   2.884   6.131   3.689
  122SAPC  H17Y12960   2.807   5.973   3.658
  122SAPC  C31812961   2.654   6.134   3.701
  122SAPC  H18X12962   2.643   6.244   3.688
  122SAPC  H18Y12963   2.644   6.107   3.808
  122SAPC  H18Z12964   2.581   6.085   3.633
  123SAPC     N12965   4.557   6.715   2.173
  123SAPC   C1212966   4.609   6.578   2.128
  123SAPC  H12A12967   4.715   6.594   2.120
  123SAPC  H12B12968   4.567   6.557   2.031
  123SAPC   C1312969   4.619   6.827   2.099
  123SAPC  H13A12970   4.589   6.821   1.995
  123SAPC  H13B12971   4.579   6.921   2.134
  123SAPC  H13C12972   4.726   6.828   2.109
  123SAPC   C1412973   4.404   6.724   2.179
  123SAPC  H14A12974   4.370   6.710   2.077
  123SAPC  H14B12975   4.370   6.641   2.238
  123SAPC  H14C12976   4.384   6.816   2.232
  123SAPC   C1512977   4.603   6.739   2.318
  123SAPC  H15A12978   4.707   6.709   2.311
  123SAPC  H15B12979   4.594   6.842   2.350
  123SAPC  H15C12980   4.544   6.671   2.376
  123SAPC   C1112981   4.591   6.451   2.216
  123SAPC  H11A12982   4.642   6.482   2.311
  123SAPC  H11B12983   4.655   6.371   2.174
  123SAPC     P12984   4.386   6.293   2.155
  123SAPC   O1312985   4.237   6.325   2.161
  123SAPC   O1412986   4.446   6.291   2.020
  123SAPC   O1212987   4.454   6.420   2.228
  123SAPC   O1112988   4.420   6.163   2.234
  123SAPC    C112989   4.478   6.160   2.358
  123SAPC    HA12990   4.546   6.073   2.365
  123SAPC    HB12991   4.553   6.242   2.357
  123SAPC    C212992   4.386   6.155   2.477
  123SAPC    HS12993   4.324   6.247   2.472
  123SAPC   O2112994   4.455   6.141   2.599
  123SAPC   C2112995   4.511   6.245   2.650
  123SAPC   O2212996   4.514   6.363   2.606
  123SAPC   C2212997   4.574   6.198   2.782
  123SAPC   H2R12998   4.649   6.120   2.757
  123SAPC   H2S12999   4.617   6.286   2.833
  123SAPC    C313000   4.307   6.024   2.466
  123SAPC    HX13001   4.387   5.947   2.460
  123SAPC    HY13002   4.256   6.035   2.368
  123SAPC   O3113003   4.214   5.990   2.572
  123SAPC   C3113004   4.247   5.894   2.658
  123SAPC   O3213005   4.320   5.802   2.624
  123SAPC   C3213006   4.180   5.910   2.791
  123SAPC   H2X13007   4.069   5.900   2.802
  123SAPC   H2Y13008   4.204   6.012   2.826
  123SAPC   C2313009   4.478   6.125   2.879
  123SAPC   H3R13010   4.542   6.094   2.963
  123SAPC   H3S13011   4.426   6.039   2.832
  123SAPC   C2413012   4.370   6.219   2.939
  123SAPC   H4R13013   4.296   6.158   2.996
  123SAPC   H4S13014   4.317   6.268   2.855
  123SAPC   C2513015   4.426   6.338   3.017
  123SAPC   H5R13016   4.431   6.430   2.958
  123SAPC   C2613017   4.455   6.348   3.147
  123SAPC   H6R13018   4.488   6.446   3.184
  123SAPC   C2713019   4.438   6.235   3.246
  123SAPC   H7R13020   4.540   6.216   3.287
  123SAPC   H7S13021   4.405   6.141   3.197
  123SAPC   C2813022   4.347   6.282   3.349
  123SAPC   H8R13023   4.270   6.354   3.318
  123SAPC   C2913024   4.348   6.246   3.479
  123SAPC   H9R13025   4.286   6.304   3.549
  123SAPC  C21013026   4.448   6.151   3.545
  123SAPC  H10R13027   4.492   6.198   3.636
  123SAPC  H10S13028   4.537   6.113   3.491
  123SAPC  C21113029   4.371   6.021   3.581
  123SAPC  H11R13030   4.310   5.985   3.497
  123SAPC  C21213031   4.365   5.936   3.689
  123SAPC  H12R13032   4.288   5.857   3.693
  123SAPC  C21313033   4.437   5.949   3.822
  123SAPC  H13R13034   4.444   6.057   3.848
  123SAPC  H13S13035   4.541   5.926   3.791
  123SAPC  C21413036   4.392   5.867   3.941
  123SAPC  H14R13037   4.427   5.763   3.942
  123SAPC  C21513038   4.328   5.906   4.053
  123SAPC  H15R13039   4.303   5.836   4.133
  123SAPC  C21613040   4.286   6.045   4.084
  123SAPC  H16R13041   4.175   6.043   4.078
  123SAPC  H16S13042   4.320   6.110   4.001
  123SAPC  C21713043   4.354   6.106   4.204
  123SAPC  H17R13044   4.303   6.203   4.221
  123SAPC  H17S13045   4.463   6.128   4.200
  123SAPC  C21813046   4.337   6.019   4.325
  123SAPC  H18R13047   4.414   5.940   4.311
  123SAPC  H18S13048   4.236   5.976   4.340
  123SAPC  C21913049   4.387   6.104   4.450
  123SAPC  H19R13050   4.454   6.183   4.411
  123SAPC  H19S13051   4.447   6.034   4.511
  123SAPC  C22013052   4.279   6.188   4.524
  123SAPC  H20R13053   4.221   6.247   4.450
  123SAPC  H20S13054   4.324   6.245   4.608
  123SAPC  H20T13055   4.216   6.110   4.572
  123SAPC   C3313056   4.248   5.808   2.890
  123SAPC   H3X13057   4.357   5.824   2.900
  123SAPC   H3Y13058   4.233   5.706   2.849
  123SAPC   C3413059   4.197   5.818   3.034
  123SAPC   H4X13060   4.091   5.786   3.047
  123SAPC   H4Y13061   4.188   5.927   3.055
  123SAPC   C3513062   4.295   5.757   3.131
  123SAPC   H5X13063   4.396   5.789   3.099
  123SAPC   H5Y13064   4.284   5.647   3.118
  123SAPC   C3613065   4.257   5.799   3.273
  123SAPC   H6X13066   4.260   5.910   3.287
  123SAPC   H6Y13067   4.330   5.757   3.345
  123SAPC   C3713068   4.110   5.759   3.321
  123SAPC   H7X13069   4.092   5.664   3.266
  123SAPC   H7Y13070   4.032   5.829   3.287
  123SAPC   C3813071   4.102   5.763   3.468
  123SAPC   H8X13072   4.117   5.866   3.507
  123SAPC   H8Y13073   4.179   5.699   3.516
  123SAPC   C3913074   3.972   5.704   3.528
  123SAPC   H9X13075   3.959   5.600   3.490
  123SAPC   H9Y13076   3.881   5.765   3.508
  123SAPC  C31013077   3.974   5.692   3.684
  123SAPC  H10X13078   4.074   5.653   3.713
  123SAPC  H10Y13079   3.903   5.611   3.710
  123SAPC  C31113080   3.934   5.813   3.762
  123SAPC  H11X13081   3.829   5.837   3.736
  123SAPC  H11Y13082   3.990   5.907   3.744
  123SAPC  C31213083   3.934   5.784   3.917
  123SAPC  H12X13084   4.040   5.761   3.941
  123SAPC  H12Y13085   3.863   5.702   3.941
  123SAPC  C31313086   3.889   5.893   4.024
  123SAPC  H13X13087   3.797   5.937   3.981
  123SAPC  H13Y13088   3.957   5.980   4.032
  123SAPC  C31413089   3.889   5.829   4.165
  123SAPC  H14X13090   3.991   5.788   4.181
  123SAPC  H14Y13091   3.823   5.741   4.155
  123SAPC  C31513092   3.839   5.927   4.276
  123SAPC  H15X13093   3.730   5.941   4.261
  123SAPC  H15Y13094   3.888   6.027   4.280
  123SAPC  C31613095   3.843   5.867   4.413
  123SAPC  H16X13096   3.945   5.835   4.445
  123SAPC  H16Y13097   3.771   5.783   4.416
  123SAPC  C31713098   3.792   5.964   4.524
  123SAPC  H17X13099   3.689   5.996   4.497
  123SAPC  H17Y13100   3.853   6.057   4.518
  123SAPC  C31813101   3.787   5.898   4.665
  123SAPC  H18X13102   3.760   5.792   4.646
  123SAPC  H18Y13103   3.707   5.947   4.725
  123SAPC  H18Z13104   3.887   5.894   4.714
  124SAPC     N13105   5.829   3.820   1.865
  124SAPC   C1213106   5.818   3.855   2.018
  124SAPC  H12A13107   5.718   3.894   2.032
  124SAPC  H12B13108   5.883   3.938   2.042
  124SAPC   C1313109   5.820   3.948   1.787
  124SAPC  H13A13110   5.717   3.982   1.790
  124SAPC  H13B13111   5.885   4.015   1.840
  124SAPC  H13C13112   5.854   3.939   1.685
  124SAPC   C1413113   5.968   3.752   1.833
  124SAPC  H14A13114   6.050   3.812   1.868
  124SAPC  H14B13115   5.984   3.659   1.884
  124SAPC  H14C13116   5.984   3.730   1.728
  124SAPC   C1513117   5.725   3.726   1.817
  124SAPC  H15A13118   5.626   3.769   1.827
  124SAPC  H15B13119   5.731   3.691   1.715
  124SAPC  H15C13120   5.733   3.634   1.874
  124SAPC   C1113121   5.833   3.731   2.107
  124SAPC  H11A13122   5.863   3.753   2.211
  124SAPC  H11B13123   5.915   3.662   2.077
  124SAPC     P13124   5.572   3.721   2.177
  124SAPC   O1313125   5.522   3.833   2.094
  124SAPC   O1413126   5.483   3.602   2.198
  124SAPC   O1213127   5.700   3.663   2.106
  124SAPC   O1113128   5.628   3.780   2.309
  124SAPC    C113129   5.653   3.681   2.416
  124SAPC    HA13130   5.627   3.575   2.398
  124SAPC    HB13131   5.762   3.684   2.439
  124SAPC    C213132   5.579   3.716   2.544
  124SAPC    HS13133   5.552   3.823   2.550
  124SAPC   O2113134   5.656   3.678   2.667
  124SAPC   C2113135   5.761   3.743   2.688
  124SAPC   O2213136   5.800   3.844   2.628
  124SAPC   C2213137   5.851   3.671   2.807
  124SAPC   H2R13138   5.781   3.664   2.893
  124SAPC   H2S13139   5.872   3.571   2.763
  124SAPC    C313140   5.441   3.639   2.550
  124SAPC    HX13141   5.469   3.533   2.533
  124SAPC    HY13142   5.379   3.678   2.466
  124SAPC   O3113143   5.363   3.683   2.670
  124SAPC   C3113144   5.353   3.593   2.779
  124SAPC   O3213145   5.407   3.485   2.788
  124SAPC   C3213146   5.258   3.656   2.876
  124SAPC   H2X13147   5.218   3.574   2.940
  124SAPC   H2Y13148   5.171   3.691   2.816
  124SAPC   C2313149   5.976   3.759   2.838
  124SAPC   H3R13150   6.025   3.799   2.747
  124SAPC   H3S13151   6.053   3.701   2.892
  124SAPC   C2413152   5.955   3.882   2.933
  124SAPC   H4R13153   6.054   3.931   2.940
  124SAPC   H4S13154   5.948   3.837   3.034
  124SAPC   C2513155   5.846   3.978   2.898
  124SAPC   H5R13156   5.871   4.029   2.803
  124SAPC   C2613157   5.728   4.002   2.955
  124SAPC   H6R13158   5.675   4.086   2.908
  124SAPC   C2713159   5.669   3.932   3.082
  124SAPC   H7R13160   5.692   3.823   3.083
  124SAPC   H7S13161   5.559   3.936   3.068
  124SAPC   C2813162   5.715   3.993   3.208
  124SAPC   H8R13163   5.736   4.101   3.212
  124SAPC   C2913164   5.723   3.942   3.332
  124SAPC   H9R13165   5.775   4.001   3.408
  124SAPC  C21013166   5.683   3.796   3.350
  124SAPC  H10R13167   5.632   3.755   3.260
  124SAPC  H10S13168   5.604   3.795   3.428
  124SAPC  C21113169   5.798   3.697   3.377
  124SAPC  H11R13170   5.832   3.636   3.292
  124SAPC  C21213171   5.856   3.671   3.497
  124SAPC  H12R13172   5.929   3.589   3.507
  124SAPC  C21313173   5.833   3.756   3.625
  124SAPC  H13R13174   5.760   3.702   3.689
  124SAPC  H13S13175   5.782   3.849   3.592
  124SAPC  C21413176   5.957   3.787   3.699
  124SAPC  H14R13177   5.999   3.888   3.688
  124SAPC  C21513178   6.025   3.696   3.777
  124SAPC  H15R13179   6.112   3.747   3.820
  124SAPC  C21613180   6.001   3.546   3.794
  124SAPC  H16R13181   5.902   3.520   3.750
  124SAPC  H16S13182   6.001   3.531   3.904
  124SAPC  C21713183   6.105   3.458   3.724
  124SAPC  H17R13184   6.207   3.482   3.761
  124SAPC  H17S13185   6.106   3.467   3.614
  124SAPC  C21813186   6.071   3.316   3.774
  124SAPC  H18R13187   5.980   3.284   3.719
  124SAPC  H18S13188   6.040   3.318   3.881
  124SAPC  C21913189   6.177   3.207   3.743
  124SAPC  H19R13190   6.261   3.218   3.814
  124SAPC  H19S13191   6.218   3.221   3.641
  124SAPC  C22013192   6.122   3.064   3.753
  124SAPC  H20R13193   6.127   3.025   3.649
  124SAPC  H20S13194   6.015   3.064   3.784
  124SAPC  H20T13195   6.182   3.007   3.827
  124SAPC   C3313196   5.323   3.770   2.958
  124SAPC   H3X13197   5.382   3.828   2.884
  124SAPC   H3Y13198   5.387   3.733   3.041
  124SAPC   C3413199   5.225   3.866   3.027
  124SAPC   H4X13200   5.161   3.805   3.093
  124SAPC   H4Y13201   5.161   3.918   2.953
  124SAPC   C3513202   5.290   3.983   3.107
  124SAPC   H5X13203   5.350   4.036   3.030
  124SAPC   H5Y13204   5.369   3.936   3.169
  124SAPC   C3613205   5.204   4.072   3.189
  124SAPC   H6X13206   5.133   4.026   3.260
  124SAPC   H6Y13207   5.139   4.121   3.114
  124SAPC   C3713208   5.281   4.185   3.263
  124SAPC   H7X13209   5.202   4.259   3.287
  124SAPC   H7Y13210   5.350   4.231   3.189
  124SAPC   C3813211   5.354   4.139   3.394
  124SAPC   H8X13212   5.443   4.201   3.418
  124SAPC   H8Y13213   5.384   4.034   3.372
  124SAPC   C3913214   5.272   4.132   3.521
  124SAPC   H9X13215   5.193   4.058   3.500
  124SAPC   H9Y13216   5.229   4.230   3.554
  124SAPC  C31013217   5.354   4.083   3.642
  124SAPC  H10X13218   5.434   4.156   3.669
  124SAPC  H10Y13219   5.391   3.979   3.631
  124SAPC  C31113220   5.267   4.084   3.766
  124SAPC  H11X13221   5.178   4.149   3.754
  124SAPC  H11Y13222   5.325   4.117   3.855
  124SAPC  C31213223   5.212   3.942   3.793
  124SAPC  H12X13224   5.290   3.874   3.833
  124SAPC  H12Y13225   5.182   3.901   3.695
  124SAPC  C31313226   5.091   3.949   3.890
  124SAPC  H13X13227   5.033   4.038   3.856
  124SAPC  H13Y13228   5.131   3.967   3.992
  124SAPC  C31413229   4.999   3.832   3.887
  124SAPC  H14X13230   5.068   3.746   3.875
  124SAPC  H14Y13231   4.934   3.829   3.797
  124SAPC  C31513232   4.905   3.820   4.003
  124SAPC  H15X13233   4.833   3.904   4.012
  124SAPC  H15Y13234   4.965   3.827   4.096
  124SAPC  C31613235   4.831   3.689   4.011
  124SAPC  H16X13236   4.901   3.602   4.012
  124SAPC  H16Y13237   4.770   3.683   3.918
  124SAPC  C31713238   4.740   3.672   4.135
  124SAPC  H17X13239   4.679   3.580   4.130
  124SAPC  H17Y13240   4.666   3.755   4.139
  124SAPC  C31813241   4.822   3.669   4.269
  124SAPC  H18X13242   4.879   3.764   4.279
  124SAPC  H18Y13243   4.898   3.589   4.277
  124SAPC  H18Z13244   4.754   3.659   4.356
  125SOPE     N13245   4.777   4.144   6.548
  125SOPE   HN113246   4.743   4.054   6.510
  125SOPE   HN213247   4.858   4.182   6.495
  125SOPE   HN313248   4.815   4.132   6.644
  125SOPE   C1213249   4.654   4.231   6.566
  125SOPE  H12A13250   4.602   4.195   6.657
  125SOPE  H12B13251   4.591   4.204   6.479
  125SOPE   C1113252   4.670   4.388   6.555
  125SOPE  H11A13253   4.739   4.434   6.628
  125SOPE  H11B13254   4.567   4.422   6.580
  125SOPE     P13255   4.681   4.543   6.347
  125SOPE   O1313256   4.733   4.516   6.212
  125SOPE   O1413257   4.732   4.663   6.418
  125SOPE   O1213258   4.705   4.410   6.420
  125SOPE   O1113259   4.516   4.548   6.348
  125SOPE    C113260   4.443   4.469   6.253
  125SOPE    HA13261   4.351   4.452   6.313
  125SOPE    HB13262   4.497   4.374   6.238
  125SOPE    C213263   4.413   4.546   6.127
  125SOPE    HS13264   4.330   4.499   6.070
  125SOPE   O2113265   4.530   4.559   6.040
  125SOPE   C2113266   4.575   4.441   5.989
  125SOPE   O2213267   4.515   4.338   5.991
  125SOPE   C2213268   4.710   4.460   5.920
  125SOPE   H2R13269   4.774   4.389   5.976
  125SOPE   H2S13270   4.743   4.566   5.933
  125SOPE    C313271   4.353   4.687   6.161
  125SOPE    HX13272   4.421   4.732   6.237
  125SOPE    HY13273   4.253   4.682   6.209
  125SOPE   O3113274   4.345   4.787   6.056
  125SOPE   C3113275   4.250   4.752   5.966
  125SOPE   O3213276   4.191   4.647   5.960
  125SOPE   C3213277   4.239   4.866   5.862
  125SOPE   H2X13278   4.338   4.914   5.845
  125SOPE   H2Y13279   4.180   4.944   5.914
  125SOPE   C2313280   4.706   4.414   5.774
  125SOPE   H3R13281   4.663   4.312   5.768
  125SOPE   H3S13282   4.813   4.412   5.743
  125SOPE   C2413283   4.624   4.497   5.673
  125SOPE   H4R13284   4.631   4.449   5.573
  125SOPE   H4S13285   4.518   4.485   5.703
  125SOPE   C2513286   4.654   4.648   5.680
  125SOPE   H5R13287   4.585   4.680   5.762
  125SOPE   H5S13288   4.761   4.669   5.699
  125SOPE   C2613289   4.611   4.712   5.553
  125SOPE   H6R13290   4.675   4.678   5.468
  125SOPE   H6S13291   4.510   4.682   5.517
  125SOPE   C2713292   4.608   4.865   5.564
  125SOPE   H7R13293   4.539   4.878   5.649
  125SOPE   H7S13294   4.710   4.902   5.589
  125SOPE   C2813295   4.547   4.939   5.443
  125SOPE   H8R13296   4.447   4.901   5.415
  125SOPE   H8S13297   4.520   5.044   5.466
  125SOPE   C2913298   4.644   4.941   5.331
  125SOPE   H9113299   4.749   4.965   5.355
  125SOPE  C21013300   4.606   4.924   5.202
  125SOPE  H10113301   4.684   4.918   5.125
  125SOPE  C21113302   4.464   4.918   5.148
  125SOPE  H11R13303   4.403   4.998   5.195
  125SOPE  H11S13304   4.409   4.826   5.177
  125SOPE  C21213305   4.456   4.937   4.994
  125SOPE  H12R13306   4.493   5.038   4.965
  125SOPE  H12S13307   4.348   4.936   4.967
  125SOPE  C21313308   4.532   4.827   4.919
  125SOPE  H13R13309   4.498   4.728   4.955
  125SOPE  H13S13310   4.637   4.844   4.950
  125SOPE  C21413311   4.527   4.844   4.772
  125SOPE  H14R13312   4.613   4.800   4.719
  125SOPE  H14S13313   4.535   4.951   4.744
  125SOPE  C21513314   4.390   4.793   4.713
  125SOPE  H15R13315   4.302   4.832   4.769
  125SOPE  H15S13316   4.386   4.682   4.727
  125SOPE  C21613317   4.383   4.818   4.564
  125SOPE  H16R13318   4.485   4.824   4.520
  125SOPE  H16S13319   4.340   4.920   4.569
  125SOPE  C21713320   4.302   4.711   4.491
  125SOPE  H17R13321   4.195   4.733   4.510
  125SOPE  H17S13322   4.326   4.609   4.528
  125SOPE  C21813323   4.308   4.719   4.342
  125SOPE  H18R13324   4.408   4.689   4.304
  125SOPE  H18S13325   4.266   4.807   4.290
  125SOPE  H18T13326   4.247   4.630   4.314
  125SOPE   C3313327   4.169   4.808   5.733
  125SOPE   H3X13328   4.070   4.767   5.764
  125SOPE   H3Y13329   4.237   4.730   5.693
  125SOPE   C3413330   4.147   4.914   5.627
  125SOPE   H4X13331   4.247   4.953   5.598
  125SOPE   H4Y13332   4.078   4.997   5.654
  125SOPE   C3513333   4.103   4.864   5.486
  125SOPE   H5X13334   3.998   4.828   5.489
  125SOPE   H5Y13335   4.155   4.771   5.455
  125SOPE   C3613336   4.127   4.970   5.386
  125SOPE   H6X13337   4.230   5.009   5.380
  125SOPE   H6Y13338   4.062   5.059   5.400
  125SOPE   C3713339   4.079   4.909   5.244
  125SOPE   H7X13340   3.973   4.875   5.249
  125SOPE   H7Y13341   4.159   4.838   5.215
  125SOPE   C3813342   4.077   5.020   5.136
  125SOPE   H8X13343   4.182   5.057   5.131
  125SOPE   H8Y13344   4.008   5.104   5.159
  125SOPE   C3913345   4.045   4.965   4.997
  125SOPE   H9X13346   3.943   4.923   5.002
  125SOPE   H9Y13347   4.121   4.889   4.971
  125SOPE  C31013348   4.055   5.079   4.894
  125SOPE  H10X13349   4.164   5.096   4.877
  125SOPE  H10Y13350   4.018   5.175   4.935
  125SOPE  C31113351   3.991   5.031   4.760
  125SOPE  H11X13352   3.882   5.024   4.782
  125SOPE  H11Y13353   4.026   4.927   4.742
  125SOPE  C31213354   4.032   5.129   4.644
  125SOPE  H12X13355   4.142   5.124   4.630
  125SOPE  H12Y13356   4.001   5.226   4.687
  125SOPE  C31313357   3.978   5.107   4.499
  125SOPE  H13X13358   4.015   5.186   4.429
  125SOPE  H13Y13359   3.869   5.127   4.506
  125SOPE  C31413360   3.999   4.967   4.438
  125SOPE  H14X13361   3.967   4.881   4.501
  125SOPE  H14Y13362   4.109   4.953   4.442
  125SOPE  C31513363   3.933   4.937   4.304
  125SOPE  H15X13364   4.006   4.882   4.241
  125SOPE  H15Y13365   3.907   5.037   4.265
  125SOPE  C31613366   3.794   4.861   4.324
  125SOPE  H16X13367   3.735   4.928   4.390
  125SOPE  H16Y13368   3.819   4.763   4.369
  125SOPE  C31713369   3.716   4.833   4.195
  125SOPE  H17X13370   3.783   4.784   4.122
  125SOPE  H17Y13371   3.688   4.926   4.142
  125SOPE  C31813372   3.589   4.753   4.198
  125SOPE  H18X13373   3.548   4.742   4.096
  125SOPE  H18Y13374   3.506   4.812   4.243
  125SOPE  H18Z13375   3.604   4.654   4.246
  126SOPE     N13376   1.059   2.583   6.331
  126SOPE   HN113377   1.146   2.527   6.342
  126SOPE   HN213378   1.025   2.584   6.233
  126SOPE   HN313379   1.093   2.681   6.341
  126SOPE   C1213380   0.960   2.560   6.445
  126SOPE  H12A13381   1.012   2.562   6.543
  126SOPE  H12B13382   0.926   2.455   6.435
  126SOPE   C1113383   0.847   2.665   6.441
  126SOPE  H11A13384   0.784   2.655   6.532
  126SOPE  H11B13385   0.788   2.641   6.350
  126SOPE     P13386   0.816   2.911   6.367
  126SOPE   O1313387   0.851   3.038   6.440
  126SOPE   O1413388   0.676   2.867   6.370
  126SOPE   O1213389   0.902   2.796   6.422
  126SOPE   O1113390   0.868   2.912   6.219
  126SOPE    C113391   0.812   2.994   6.111
  126SOPE    HA13392   0.866   3.091   6.117
  126SOPE    HB13393   0.702   3.005   6.122
  126SOPE    C213394   0.823   2.920   5.978
  126SOPE    HS13395   0.772   2.981   5.901
  126SOPE   O2113396   0.779   2.786   5.970
  126SOPE   C2113397   0.648   2.773   5.995
  126SOPE   O2213398   0.560   2.860   5.994
  126SOPE   C2213399   0.615   2.629   5.985
  126SOPE   H2R13400   0.506   2.619   6.004
  126SOPE   H2S13401   0.658   2.581   6.075
  126SOPE    C313402   0.963   2.921   5.924
  126SOPE    HX13403   1.031   2.869   5.994
  126SOPE    HY13404   1.004   3.023   5.911
  126SOPE   O3113405   0.979   2.847   5.799
  126SOPE   C3113406   0.929   2.900   5.687
  126SOPE   O3213407   0.867   3.000   5.682
  126SOPE   C3213408   0.962   2.810   5.563
  126SOPE   H2X13409   0.941   2.705   5.592
  126SOPE   H2Y13410   1.066   2.832   5.531
  126SOPE   C2313411   0.657   2.551   5.856
  126SOPE   H3R13412   0.683   2.454   5.903
  126SOPE   H3S13413   0.756   2.579   5.813
  126SOPE   C2413414   0.544   2.547   5.750
  126SOPE   H4R13415   0.575   2.487   5.662
  126SOPE   H4S13416   0.454   2.506   5.802
  126SOPE   C2513417   0.524   2.684   5.687
  126SOPE   H5R13418   0.475   2.757   5.755
  126SOPE   H5S13419   0.628   2.716   5.666
  126SOPE   C2613420   0.439   2.685   5.556
  126SOPE   H6R13421   0.357   2.610   5.560
  126SOPE   H6S13422   0.383   2.780   5.544
  126SOPE   C2713423   0.530   2.671   5.430
  126SOPE   H7R13424   0.575   2.768   5.404
  126SOPE   H7S13425   0.609   2.602   5.466
  126SOPE   C2813426   0.454   2.628   5.307
  126SOPE   H8R13427   0.522   2.610   5.221
  126SOPE   H8S13428   0.412   2.528   5.329
  126SOPE   C2913429   0.338   2.719   5.273
  126SOPE   H9113430   0.251   2.710   5.340
  126SOPE  C21013431   0.319   2.795   5.163
  126SOPE  H10113432   0.216   2.828   5.145
  126SOPE  C21113433   0.423   2.800   5.049
  126SOPE  H11R13434   0.514   2.825   5.107
  126SOPE  H11S13435   0.395   2.886   4.983
  126SOPE  C21213436   0.443   2.676   4.970
  126SOPE  H12R13437   0.360   2.664   4.898
  126SOPE  H12S13438   0.445   2.585   5.034
  126SOPE  C21313439   0.572   2.671   4.877
  126SOPE  H13R13440   0.578   2.569   4.832
  126SOPE  H13S13441   0.660   2.678   4.945
  126SOPE  C21413442   0.585   2.772   4.764
  126SOPE  H14R13443   0.577   2.874   4.807
  126SOPE  H14S13444   0.499   2.761   4.694
  126SOPE  C21513445   0.717   2.758   4.685
  126SOPE  H15R13446   0.704   2.674   4.613
  126SOPE  H15S13447   0.805   2.734   4.749
  126SOPE  C21613448   0.752   2.894   4.632
  126SOPE  H16R13449   0.862   2.903   4.617
  126SOPE  H16S13450   0.723   2.958   4.718
  126SOPE  C21713451   0.667   2.940   4.512
  126SOPE  H17R13452   0.563   2.935   4.551
  126SOPE  H17S13453   0.679   2.862   4.434
  126SOPE  C21813454   0.697   3.072   4.453
  126SOPE  H18R13455   0.615   3.119   4.394
  126SOPE  H18S13456   0.792   3.076   4.396
  126SOPE  H18T13457   0.708   3.146   4.535
  126SOPE   C3313458   0.855   2.843   5.451
  126SOPE   H3X13459   0.880   2.946   5.417
  126SOPE   H3Y13460   0.750   2.840   5.487
  126SOPE   C3413461   0.865   2.748   5.328
  126SOPE   H4X13462   0.799   2.661   5.347
  126SOPE   H4Y13463   0.973   2.721   5.322
  126SOPE   C3513464   0.821   2.821   5.203
  126SOPE   H5X13465   0.760   2.906   5.240
  126SOPE   H5Y13466   0.741   2.763   5.151
  126SOPE   C3613467   0.933   2.861   5.110
  126SOPE   H6X13468   0.996   2.779   5.070
  126SOPE   H6Y13469   1.000   2.913   5.182
  126SOPE   C3713470   0.889   2.963   5.001
  126SOPE   H7X13471   0.831   3.043   5.052
  126SOPE   H7Y13472   0.817   2.911   4.934
  126SOPE   C3813473   0.998   3.024   4.924
  126SOPE   H8X13474   1.053   2.951   4.861
  126SOPE   H8Y13475   1.058   3.068   5.007
  126SOPE   C3913476   0.950   3.135   4.823
  126SOPE   H9X13477   0.903   3.219   4.879
  126SOPE   H9Y13478   0.873   3.086   4.759
  126SOPE  C31013479   1.057   3.178   4.725
  126SOPE  H10X13480   1.117   3.087   4.704
  126SOPE  H10Y13481   1.117   3.261   4.767
  126SOPE  C31113482   0.993   3.228   4.592
  126SOPE  H11X13483   0.913   3.305   4.598
  126SOPE  H11Y13484   0.952   3.134   4.548
  126SOPE  C31213485   1.094   3.287   4.496
  126SOPE  H12X13486   1.154   3.367   4.545
  126SOPE  H12Y13487   1.042   3.321   4.404
  126SOPE  C31313488   1.193   3.175   4.457
  126SOPE  H13X13489   1.137   3.090   4.412
  126SOPE  H13Y13490   1.255   3.132   4.539
  126SOPE  C31413491   1.283   3.235   4.350
  126SOPE  H14X13492   1.336   3.323   4.391
  126SOPE  H14Y13493   1.207   3.266   4.274
  126SOPE  C31513494   1.372   3.126   4.284
  126SOPE  H15X13495   1.301   3.050   4.244
  126SOPE  H15Y13496   1.436   3.085   4.364
  126SOPE  C31613497   1.459   3.183   4.174
  126SOPE  H16X13498   1.531   3.259   4.210
  126SOPE  H16Y13499   1.382   3.223   4.104
  126SOPE  C31713500   1.530   3.063   4.121
  126SOPE  H17X13501   1.452   2.992   4.086
  126SOPE  H17Y13502   1.565   3.011   4.212
  126SOPE  C31813503   1.640   3.089   4.013
  126SOPE  H18X13504   1.711   3.004   4.007
  126SOPE  H18Y13505   1.686   3.189   4.030
  126SOPE  H18Z13506   1.597   3.106   3.912
  127SOPE     N13507   4.833   5.471   6.822
  127SOPE   HN113508   4.887   5.426   6.899
  127SOPE   HN213509   4.838   5.575   6.828
  127SOPE   HN313510   4.730   5.457   6.822
  127SOPE   C1213511   4.891   5.412   6.694
  127SOPE  H12A13512   4.999   5.389   6.712
  127SOPE  H12B13513   4.878   5.484   6.611
  127SOPE   C1113514   4.836   5.271   6.658
  127SOPE  H11A13515   4.884   5.190   6.718
  127SOPE  H11B13516   4.847   5.259   6.548
  127SOPE     P13517   4.597   5.164   6.629
  127SOPE   O1313518   4.459   5.187   6.670
  127SOPE   O1413519   4.647   5.027   6.659
  127SOPE   O1213520   4.702   5.265   6.702
  127SOPE   O1113521   4.623   5.200   6.472
  127SOPE    C113522   4.655   5.089   6.387
  127SOPE    HA13523   4.589   5.000   6.395
  127SOPE    HB13524   4.759   5.055   6.403
  127SOPE    C213525   4.626   5.127   6.241
  127SOPE    HS13526   4.678   5.225   6.235
  127SOPE   O2113527   4.485   5.124   6.217
  127SOPE   C2113528   4.441   5.226   6.148
  127SOPE   O2213529   4.510   5.316   6.113
  127SOPE   C2213530   4.292   5.212   6.121
  127SOPE   H2R13531   4.233   5.231   6.213
  127SOPE   H2S13532   4.270   5.104   6.104
  127SOPE    C313533   4.701   5.027   6.146
  127SOPE    HX13534   4.665   4.922   6.159
  127SOPE    HY13535   4.809   5.026   6.175
  127SOPE   O3113536   4.680   5.066   6.012
  127SOPE   C3113537   4.773   5.145   5.958
  127SOPE   O3213538   4.882   5.180   6.005
  127SOPE   C3213539   4.727   5.204   5.830
  127SOPE   H2X13540   4.706   5.312   5.848
  127SOPE   H2Y13541   4.643   5.150   5.781
  127SOPE   C2313542   4.254   5.292   5.989
  127SOPE   H3R13543   4.289   5.398   5.989
  127SOPE   H3S13544   4.144   5.293   5.978
  127SOPE   C2413545   4.315   5.220   5.867
  127SOPE   H4R13546   4.424   5.201   5.882
  127SOPE   H4S13547   4.276   5.118   5.847
  127SOPE   C2513548   4.301   5.313   5.742
  127SOPE   H5R13549   4.201   5.359   5.734
  127SOPE   H5S13550   4.368   5.398   5.766
  127SOPE   C2613551   4.335   5.254   5.613
  127SOPE   H6R13552   4.426   5.191   5.627
  127SOPE   H6S13553   4.253   5.200   5.563
  127SOPE   C2713554   4.362   5.379   5.518
  127SOPE   H7R13555   4.268   5.437   5.521
  127SOPE   H7S13556   4.448   5.434   5.562
  127SOPE   C2813557   4.400   5.328   5.380
  127SOPE   H8R13558   4.487   5.261   5.395
  127SOPE   H8S13559   4.321   5.263   5.337
  127SOPE   C2913560   4.431   5.443   5.289
  127SOPE   H9113561   4.423   5.540   5.340
  127SOPE  C21013562   4.458   5.428   5.160
  127SOPE  H10113563   4.478   5.519   5.102
  127SOPE  C21113564   4.454   5.300   5.086
  127SOPE  H11R13565   4.409   5.219   5.146
  127SOPE  H11S13566   4.559   5.270   5.065
  127SOPE  C21213567   4.389   5.307   4.945
  127SOPE  H12R13568   4.283   5.336   4.961
  127SOPE  H12S13569   4.392   5.209   4.893
  127SOPE  C21313570   4.471   5.392   4.845
  127SOPE  H13R13571   4.572   5.348   4.829
  127SOPE  H13S13572   4.477   5.501   4.867
  127SOPE  C21413573   4.416   5.384   4.699
  127SOPE  H14R13574   4.440   5.479   4.647
  127SOPE  H14S13575   4.306   5.367   4.692
  127SOPE  C21513576   4.483   5.277   4.599
  127SOPE  H15R13577   4.481   5.185   4.662
  127SOPE  H15S13578   4.587   5.312   4.580
  127SOPE  C21613579   4.392   5.252   4.480
  127SOPE  H16R13580   4.362   5.343   4.424
  127SOPE  H16S13581   4.306   5.190   4.513
  127SOPE  C21713582   4.471   5.177   4.373
  127SOPE  H17R13583   4.398   5.167   4.289
  127SOPE  H17S13584   4.500   5.073   4.398
  127SOPE  C21813585   4.603   5.244   4.318
  127SOPE  H18R13586   4.601   5.354   4.299
  127SOPE  H18S13587   4.635   5.193   4.225
  127SOPE  H18T13588   4.678   5.218   4.396
  127SOPE   C3313589   4.830   5.191   5.710
  127SOPE   H3X13590   4.823   5.094   5.656
  127SOPE   H3Y13591   4.937   5.189   5.740
  127SOPE   C3413592   4.813   5.314   5.617
  127SOPE   H4X13593   4.843   5.406   5.672
  127SOPE   H4Y13594   4.706   5.336   5.594
  127SOPE   C3513595   4.876   5.306   5.473
  127SOPE   H5X13596   4.818   5.236   5.409
  127SOPE   H5Y13597   4.980   5.266   5.479
  127SOPE   C3613598   4.882   5.441   5.398
  127SOPE   H6X13599   4.943   5.505   5.465
  127SOPE   H6Y13600   4.782   5.490   5.394
  127SOPE   C3713601   4.934   5.433   5.254
  127SOPE   H7X13602   5.034   5.388   5.272
  127SOPE   H7Y13603   4.933   5.536   5.213
  127SOPE   C3813604   4.852   5.337   5.160
  127SOPE   H8X13605   4.760   5.390   5.127
  127SOPE   H8Y13606   4.816   5.244   5.210
  127SOPE   C3913607   4.922   5.312   5.028
  127SOPE   H9X13608   5.023   5.267   5.029
  127SOPE   H9Y13609   4.929   5.414   4.984
  127SOPE  C31013610   4.832   5.227   4.928
  127SOPE  H10X13611   4.728   5.266   4.934
  127SOPE  H10Y13612   4.829   5.118   4.950
  127SOPE  C31113613   4.877   5.234   4.781
  127SOPE  H11X13614   4.987   5.219   4.794
  127SOPE  H11Y13615   4.855   5.338   4.747
  127SOPE  C31213616   4.838   5.119   4.681
  127SOPE  H12X13617   4.729   5.121   4.659
  127SOPE  H12Y13618   4.858   5.017   4.720
  127SOPE  C31313619   4.933   5.128   4.558
  127SOPE  H13X13620   5.035   5.144   4.599
  127SOPE  H13Y13621   4.905   5.215   4.495
  127SOPE  C31413622   4.940   4.997   4.485
  127SOPE  H14X13623   4.983   4.919   4.552
  127SOPE  H14Y13624   5.023   4.999   4.412
  127SOPE  C31513625   4.810   4.953   4.414
  127SOPE  H15X13626   4.778   5.037   4.348
  127SOPE  H15Y13627   4.735   4.930   4.493
  127SOPE  C31613628   4.802   4.822   4.335
  127SOPE  H16X13629   4.821   4.727   4.390
  127SOPE  H16Y13630   4.876   4.843   4.254
  127SOPE  C31713631   4.665   4.795   4.283
  127SOPE  H17X13632   4.612   4.889   4.256
  127SOPE  H17Y13633   4.591   4.766   4.360
  127SOPE  C31813634   4.657   4.695   4.168
  127SOPE  H18X13635   4.649   4.593   4.210
  127SOPE  H18Y13636   4.737   4.710   4.093
  127SOPE  H18Z13637   4.558   4.707   4.119
  128SOPE     N13638   6.319   2.170   6.505
  128SOPE   HN113639   6.381   2.112   6.564
  128SOPE   HN213640   6.330   2.125   6.412
  128SOPE   HN313641   6.359   2.266   6.493
  128SOPE   C1213642   6.175   2.165   6.560
  128SOPE  H12A13643   6.120   2.255   6.525
  128SOPE  H12B13644   6.172   2.158   6.671
  128SOPE   C1113645   6.112   2.034   6.514
  128SOPE  H11A13646   6.076   2.041   6.409
  128SOPE  H11B13647   6.024   2.022   6.581
  128SOPE     P13648   6.162   1.795   6.468
  128SOPE   O1313649   6.014   1.796   6.453
  128SOPE   O1413650   6.230   1.679   6.536
  128SOPE   O1213651   6.199   1.927   6.543
  128SOPE   O1113652   6.217   1.823   6.325
  128SOPE    C113653   6.206   1.723   6.221
  128SOPE    HA13654   6.138   1.640   6.251
  128SOPE    HB13655   6.310   1.684   6.220
  128SOPE    C213656   6.183   1.779   6.079
  128SOPE    HS13657   6.179   1.698   6.004
  128SOPE   O2113658   6.279   1.881   6.035
  128SOPE   C2113659   6.402   1.827   6.008
  128SOPE   O2213660   6.434   1.711   6.017
  128SOPE   C2213661   6.479   1.950   5.970
  128SOPE   H2R13662   6.502   1.996   6.069
  128SOPE   H2S13663   6.425   2.030   5.915
  128SOPE    C313664   6.034   1.840   6.076
  128SOPE    HX13665   6.034   1.929   6.143
  128SOPE    HY13666   5.970   1.759   6.117
  128SOPE   O3113667   6.000   1.864   5.936
  128SOPE   C3113668   6.000   1.983   5.887
  128SOPE   O3213669   6.023   2.088   5.942
  128SOPE   C3213670   5.978   1.976   5.737
  128SOPE   H2X13671   5.894   1.907   5.718
  128SOPE   H2Y13672   6.072   1.940   5.690
  128SOPE   C2313673   6.600   1.928   5.883
  128SOPE   H3R13674   6.672   1.852   5.921
  128SOPE   H3S13675   6.669   2.014   5.900
  128SOPE   C2413676   6.564   1.922   5.735
  128SOPE   H4R13677   6.494   1.836   5.722
  128SOPE   H4S13678   6.515   2.011   5.691
  128SOPE   C2513679   6.687   1.893   5.642
  128SOPE   H5R13680   6.758   1.976   5.661
  128SOPE   H5S13681   6.740   1.799   5.667
  128SOPE   C2613682   6.666   1.892   5.492
  128SOPE   H6R13683   6.657   1.992   5.445
  128SOPE   H6S13684   6.746   1.839   5.435
  128SOPE   C2713685   6.540   1.825   5.453
  128SOPE   H7R13686   6.523   1.724   5.494
  128SOPE   H7S13687   6.450   1.871   5.499
  128SOPE   C2813688   6.535   1.807   5.301
  128SOPE   H8R13689   6.549   1.904   5.249
  128SOPE   H8S13690   6.619   1.739   5.275
  128SOPE   C2913691   6.401   1.755   5.251
  128SOPE   H9113692   6.316   1.787   5.313
  128SOPE  C21013693   6.380   1.677   5.138
  128SOPE  H10113694   6.280   1.642   5.107
  128SOPE  C21113695   6.483   1.648   5.036
  128SOPE  H11R13696   6.582   1.694   5.055
  128SOPE  H11S13697   6.463   1.682   4.933
  128SOPE  C21213698   6.491   1.492   5.028
  128SOPE  H12R13699   6.553   1.480   4.937
  128SOPE  H12S13700   6.391   1.443   5.031
  128SOPE  C21313701   6.570   1.437   5.144
  128SOPE  H13R13702   6.509   1.450   5.235
  128SOPE  H13S13703   6.664   1.494   5.161
  128SOPE  C21413704   6.594   1.291   5.121
  128SOPE  H14R13705   6.631   1.273   5.018
  128SOPE  H14S13706   6.493   1.246   5.130
  128SOPE  C21513707   6.671   1.222   5.229
  128SOPE  H15R13708   6.676   1.112   5.216
  128SOPE  H15S13709   6.623   1.238   5.328
  128SOPE  C21613710   6.818   1.282   5.243
  128SOPE  H16R13711   6.810   1.388   5.275
  128SOPE  H16S13712   6.869   1.281   5.144
  128SOPE  C21713713   6.909   1.209   5.342
  128SOPE  H17R13714   7.007   1.259   5.353
  128SOPE  H17S13715   6.938   1.113   5.294
  128SOPE  C21813716   6.864   1.204   5.495
  128SOPE  H18R13717   6.951   1.169   5.554
  128SOPE  H18S13718   6.779   1.135   5.512
  128SOPE  H18T13719   6.838   1.305   5.534
  128SOPE   C3313720   5.952   2.107   5.663
  128SOPE   H3X13721   6.051   2.156   5.662
  128SOPE   H3Y13722   5.881   2.176   5.714
  128SOPE   C3413723   5.899   2.097   5.514
  128SOPE   H4X13724   5.888   2.203   5.482
  128SOPE   H4Y13725   5.796   2.058   5.523
  128SOPE   C3513726   5.993   2.007   5.426
  128SOPE   H5X13727   5.972   1.900   5.446
  128SOPE   H5Y13728   6.100   2.037   5.435
  128SOPE   C3613729   5.966   2.032   5.273
  128SOPE   H6X13730   5.992   2.138   5.256
  128SOPE   H6Y13731   5.857   2.022   5.254
  128SOPE   C3713732   6.040   1.938   5.170
  128SOPE   H7X13733   6.027   1.833   5.204
  128SOPE   H7Y13734   6.145   1.974   5.179
  128SOPE   C3813735   5.998   1.953   5.020
  128SOPE   H8X13736   6.001   2.059   4.988
  128SOPE   H8Y13737   5.897   1.911   4.999
  128SOPE   C3913738   6.095   1.880   4.935
  128SOPE   H9X13739   6.114   1.778   4.974
  128SOPE   H9Y13740   6.186   1.943   4.947
  128SOPE  C31013741   6.062   1.882   4.785
  128SOPE  H10X13742   6.023   1.986   4.777
  128SOPE  H10Y13743   5.974   1.815   4.772
  128SOPE  C31113744   6.180   1.843   4.699
  128SOPE  H11X13745   6.273   1.892   4.732
  128SOPE  H11Y13746   6.167   1.873   4.593
  128SOPE  C31213747   6.206   1.692   4.691
  128SOPE  H12X13748   6.110   1.641   4.670
  128SOPE  H12Y13749   6.251   1.657   4.787
  128SOPE  C31313750   6.300   1.659   4.578
  128SOPE  H13X13751   6.276   1.716   4.486
  128SOPE  H13Y13752   6.283   1.551   4.561
  128SOPE  C31413753   6.447   1.679   4.608
  128SOPE  H14X13754   6.474   1.619   4.698
  128SOPE  H14Y13755   6.471   1.785   4.629
  128SOPE  C31513756   6.535   1.616   4.494
  128SOPE  H15X13757   6.498   1.512   4.477
  128SOPE  H15Y13758   6.641   1.623   4.524
  128SOPE  C31613759   6.531   1.692   4.362
  128SOPE  H16X13760   6.601   1.778   4.367
  128SOPE  H16Y13761   6.424   1.723   4.352
  128SOPE  C31713762   6.568   1.611   4.243
  128SOPE  H17X13763   6.488   1.623   4.166
  128SOPE  H17Y13764   6.561   1.503   4.269
  128SOPE  C31813765   6.698   1.642   4.174
  128SOPE  H18X13766   6.717   1.593   4.076
  128SOPE  H18Y13767   6.788   1.615   4.233
  128SOPE  H18Z13768   6.716   1.748   4.147
  129SOPE     N13769   6.423   6.625   6.181
  129SOPE   HN113770   6.490   6.602   6.257
  129SOPE   HN213771   6.340   6.650   6.238
  129SOPE   HN313772   6.395   6.548   6.117
  129SOPE   C1213773   6.462   6.748   6.107
  129SOPE  H12A13774   6.531   6.718   6.025
  129SOPE  H12B13775   6.531   6.804   6.174
  129SOPE   C1113776   6.330   6.820   6.068
  129SOPE  H11A13777   6.290   6.771   5.976
  129SOPE  H11B13778   6.366   6.920   6.037
  129SOPE     P13779   6.221   6.957   6.256
  129SOPE   O1313780   6.361   6.998   6.290
  129SOPE   O1413781   6.119   6.953   6.360
  129SOPE   O1213782   6.224   6.825   6.164
  129SOPE   O1113783   6.169   7.070   6.149
  129SOPE    C113784   6.040   7.045   6.081
  129SOPE    HA13785   5.961   7.120   6.104
  129SOPE    HB13786   5.996   6.950   6.119
  129SOPE    C213787   6.062   7.030   5.927
  129SOPE    HS13788   6.122   6.937   5.921
  129SOPE   O2113789   6.126   7.148   5.874
  129SOPE   C2113790   6.219   7.129   5.782
  129SOPE   O2213791   6.261   7.025   5.740
  129SOPE   C2213792   6.261   7.254   5.702
  129SOPE   H2R13793   6.351   7.289   5.758
  129SOPE   H2S13794   6.175   7.322   5.715
  129SOPE    C313795   5.918   7.002   5.866
  129SOPE    HX13796   5.863   7.097   5.878
  129SOPE    HY13797   5.855   6.931   5.924
  129SOPE   O3113798   5.925   6.983   5.722
  129SOPE   C3113799   5.968   6.857   5.699
  129SOPE   O3213800   5.982   6.766   5.779
  129SOPE   C3213801   6.002   6.851   5.548
  129SOPE   H2X13802   6.099   6.905   5.540
  129SOPE   H2Y13803   5.930   6.913   5.490
  129SOPE   C2313804   6.275   7.231   5.553
  129SOPE   H3R13805   6.328   7.133   5.547
  129SOPE   H3S13806   6.333   7.311   5.502
  129SOPE   C2413807   6.139   7.221   5.480
  129SOPE   H4R13808   6.072   7.151   5.536
  129SOPE   H4S13809   6.086   7.318   5.477
  129SOPE   C2513810   6.168   7.177   5.330
  129SOPE   H5R13811   6.203   7.272   5.285
  129SOPE   H5S13812   6.247   7.099   5.322
  129SOPE   C2613813   6.046   7.117   5.259
  129SOPE   H6R13814   5.979   7.054   5.321
  129SOPE   H6S13815   5.992   7.198   5.205
  129SOPE   C2713816   6.099   7.024   5.144
  129SOPE   H7R13817   6.179   7.081   5.092
  129SOPE   H7S13818   6.150   6.936   5.187
  129SOPE   C2813819   5.992   7.010   5.031
  129SOPE   H8R13820   5.942   7.105   5.001
  129SOPE   H8S13821   6.046   6.971   4.943
  129SOPE   C2913822   5.877   6.922   5.066
  129SOPE   H9113823   5.838   6.954   5.163
  129SOPE  C21013824   5.810   6.835   4.994
  129SOPE  H10113825   5.741   6.783   5.062
  129SOPE  C21113826   5.819   6.790   4.847
  129SOPE  H11R13827   5.872   6.692   4.849
  129SOPE  H11S13828   5.877   6.869   4.796
  129SOPE  C21213829   5.679   6.775   4.777
  129SOPE  H12R13830   5.626   6.871   4.796
  129SOPE  H12S13831   5.614   6.689   4.802
  129SOPE  C21313832   5.700   6.767   4.627
  129SOPE  H13R13833   5.744   6.861   4.586
  129SOPE  H13S13834   5.599   6.749   4.585
  129SOPE  C21413835   5.783   6.644   4.588
  129SOPE  H14R13836   5.734   6.552   4.626
  129SOPE  H14S13837   5.886   6.658   4.625
  129SOPE  C21513838   5.820   6.627   4.440
  129SOPE  H15R13839   5.855   6.730   4.414
  129SOPE  H15S13840   5.734   6.590   4.381
  129SOPE  C21613841   5.938   6.535   4.423
  129SOPE  H16R13842   5.946   6.498   4.319
  129SOPE  H16S13843   5.932   6.446   4.489
  129SOPE  C21713844   6.079   6.602   4.467
  129SOPE  H17R13845   6.101   6.582   4.574
  129SOPE  H17S13846   6.061   6.710   4.449
  129SOPE  C21813847   6.197   6.557   4.376
  129SOPE  H18R13848   6.198   6.624   4.288
  129SOPE  H18S13849   6.175   6.458   4.333
  129SOPE  H18T13850   6.296   6.561   4.428
  129SOPE   C3313851   6.026   6.712   5.489
  129SOPE   H3X13852   5.928   6.659   5.484
  129SOPE   H3Y13853   6.086   6.664   5.569
  129SOPE   C3413854   6.087   6.701   5.352
  129SOPE   H4X13855   6.190   6.741   5.360
  129SOPE   H4Y13856   6.016   6.764   5.294
  129SOPE   C3513857   6.102   6.565   5.293
  129SOPE   H5X13858   6.007   6.510   5.311
  129SOPE   H5Y13859   6.176   6.506   5.351
  129SOPE   C3613860   6.131   6.576   5.142
  129SOPE   H6X13861   6.222   6.637   5.126
  129SOPE   H6Y13862   6.051   6.641   5.102
  129SOPE   C3713863   6.144   6.435   5.079
  129SOPE   H7X13864   6.046   6.387   5.099
  129SOPE   H7Y13865   6.227   6.387   5.134
  129SOPE   C3813866   6.193   6.442   4.938
  129SOPE   H8X13867   6.293   6.489   4.942
  129SOPE   H8Y13868   6.130   6.493   4.862
  129SOPE   C3913869   6.217   6.303   4.878
  129SOPE   H9X13870   6.117   6.254   4.882
  129SOPE   H9Y13871   6.289   6.245   4.940
  129SOPE  C31013872   6.259   6.299   4.726
  129SOPE  H10X13873   6.337   6.376   4.707
  129SOPE  H10Y13874   6.170   6.335   4.669
  129SOPE  C31113875   6.301   6.155   4.681
  129SOPE  H11X13876   6.214   6.092   4.709
  129SOPE  H11Y13877   6.381   6.115   4.747
  129SOPE  C31213878   6.337   6.152   4.531
  129SOPE  H12X13879   6.413   6.074   4.507
  129SOPE  H12Y13880   6.375   6.250   4.495
  129SOPE  C31313881   6.212   6.128   4.443
  129SOPE  H13X13882   6.146   6.216   4.439
  129SOPE  H13Y13883   6.155   6.043   4.487
  129SOPE  C31413884   6.251   6.094   4.297
  129SOPE  H14X13885   6.325   6.012   4.303
  129SOPE  H14Y13886   6.306   6.176   4.247
  129SOPE  C31513887   6.132   6.054   4.202
  129SOPE  H15X13888   6.061   6.140   4.200
  129SOPE  H15Y13889   6.091   5.967   4.257
  129SOPE  C31613890   6.184   6.013   4.067
  129SOPE  H16X13891   6.247   5.923   4.084
  129SOPE  H16Y13892   6.236   6.102   4.026
  129SOPE  C31713893   6.072   5.978   3.974
  129SOPE  H17X13894   6.102   5.967   3.868
  129SOPE  H17Y13895   6.007   6.068   3.985
  129SOPE  C31813896   5.999   5.852   4.014
  129SOPE  H18X13897   6.066   5.764   4.004
  129SOPE  H18Y13898   5.907   5.838   3.953
  129SOPE  H18Z13899   5.966   5.853   4.120
  130SOPE     N13900   2.471   0.742   6.284
  130SOPE   HN113901   2.394   0.805   6.315
  130SOPE   HN213902   2.564   0.786   6.299
  130SOPE   HN313903   2.463   0.735   6.181
  130SOPE   C1213904   2.451   0.621   6.363
  130SOPE  H12A13905   2.344   0.591   6.353
  130SOPE  H12B13906   2.477   0.644   6.469
  130SOPE   C1113907   2.536   0.504   6.316
  130SOPE  H11A13908   2.521   0.490   6.207
  130SOPE  H11B13909   2.508   0.406   6.359
  130SOPE     P13910   2.782   0.430   6.298
  130SOPE   O1313911   2.738   0.296   6.352
  130SOPE   O1413912   2.910   0.489   6.336
  130SOPE   O1213913   2.672   0.542   6.333
  130SOPE   O1113914   2.771   0.415   6.142
  130SOPE    C113915   2.807   0.526   6.060
  130SOPE    HA13916   2.887   0.584   6.111
  130SOPE    HB13917   2.717   0.589   6.045
  130SOPE    C213918   2.849   0.479   5.916
  130SOPE    HS13919   2.857   0.568   5.850
  130SOPE   O2113920   2.748   0.393   5.866
  130SOPE   C2113921   2.638   0.452   5.817
  130SOPE   O2213922   2.613   0.573   5.827
  130SOPE   C2213923   2.551   0.353   5.745
  130SOPE   H2R13924   2.458   0.350   5.806
  130SOPE   H2S13925   2.602   0.254   5.752
  130SOPE    C313926   2.988   0.414   5.900
  130SOPE    HX13927   2.989   0.323   5.963
  130SOPE    HY13928   3.060   0.476   5.958
  130SOPE   O3113929   3.031   0.393   5.767
  130SOPE   C3113930   3.024   0.286   5.703
  130SOPE   O3213931   2.978   0.183   5.743
  130SOPE   C3213932   3.093   0.308   5.567
  130SOPE   H2X13933   3.199   0.340   5.576
  130SOPE   H2Y13934   3.023   0.387   5.530
  130SOPE   C2313935   2.528   0.390   5.596
  130SOPE   H3R13936   2.483   0.491   5.589
  130SOPE   H3S13937   2.468   0.307   5.552
  130SOPE   C2413938   2.663   0.383   5.516
  130SOPE   H4R13939   2.735   0.444   5.575
  130SOPE   H4S13940   2.709   0.281   5.513
  130SOPE   C2513941   2.647   0.424   5.372
  130SOPE   H5R13942   2.557   0.377   5.326
  130SOPE   H5S13943   2.631   0.533   5.366
  130SOPE   C2613944   2.769   0.383   5.288
  130SOPE   H6R13945   2.867   0.416   5.328
  130SOPE   H6S13946   2.784   0.273   5.294
  130SOPE   C2713947   2.760   0.419   5.141
  130SOPE   H7R13948   2.670   0.369   5.100
  130SOPE   H7S13949   2.757   0.529   5.125
  130SOPE   C2813950   2.882   0.367   5.067
  130SOPE   H8R13951   2.975   0.415   5.103
  130SOPE   H8S13952   2.889   0.260   5.097
  130SOPE   C2913953   2.879   0.372   4.918
  130SOPE   H9113954   2.946   0.448   4.876
  130SOPE  C21013955   2.810   0.290   4.832
  130SOPE  H10113956   2.824   0.313   4.725
  130SOPE  C21113957   2.721   0.180   4.871
  130SOPE  H11R13958   2.730   0.159   4.979
  130SOPE  H11S13959   2.743   0.088   4.812
  130SOPE  C21213960   2.574   0.221   4.843
  130SOPE  H12R13961   2.563   0.312   4.906
  130SOPE  H12S13962   2.504   0.148   4.889
  130SOPE  C21313963   2.534   0.238   4.701
  130SOPE  H13R13964   2.557   0.143   4.647
  130SOPE  H13S13965   2.602   0.316   4.660
  130SOPE  C21413966   2.384   0.270   4.675
  130SOPE  H14R13967   2.359   0.366   4.723
  130SOPE  H14S13968   2.319   0.195   4.724
  130SOPE  C21513969   2.354   0.281   4.531
  130SOPE  H15R13970   2.421   0.359   4.489
  130SOPE  H15S13971   2.250   0.320   4.528
  130SOPE  C21613972   2.365   0.146   4.464
  130SOPE  H16R13973   2.473   0.132   4.439
  130SOPE  H16S13974   2.333   0.158   4.358
  130SOPE  C21713975   2.290   0.024   4.526
  130SOPE  H17R13976   2.333   0.013   4.628
  130SOPE  H17S13977   2.321  -0.068   4.472
  130SOPE  C21813978   2.136   0.043   4.518
  130SOPE  H18R13979   2.110   0.075   4.415
  130SOPE  H18S13980   2.098   0.123   4.585
  130SOPE  H18T13981   2.080  -0.049   4.545
  130SOPE   C3313982   3.073   0.201   5.465
  130SOPE   H3X13983   2.964   0.198   5.442
  130SOPE   H3Y13984   3.106   0.106   5.514
  130SOPE   C3413985   3.145   0.244   5.331
  130SOPE   H4X13986   3.237   0.295   5.364
  130SOPE   H4Y13987   3.093   0.325   5.277
  130SOPE   C3513988   3.145   0.122   5.231
  130SOPE   H5X13989   3.046   0.072   5.241
  130SOPE   H5Y13990   3.216   0.052   5.280
  130SOPE   C3613991   3.180   0.149   5.088
  130SOPE   H6X13992   3.268   0.217   5.083
  130SOPE   H6Y13993   3.100   0.214   5.048
  130SOPE   C3713994   3.195   0.020   5.010
  130SOPE   H7X13995   3.101  -0.035   5.031
  130SOPE   H7Y13996   3.280  -0.044   5.040
  130SOPE   C3813997   3.195   0.031   4.858
  130SOPE   H8X13998   3.126   0.116   4.840
  130SOPE   H8Y13999   3.173  -0.069   4.814
  130SOPE   C3914000   3.338   0.069   4.806
  130SOPE   H9X14001   3.402  -0.017   4.834
  130SOPE   H9Y14002   3.372   0.164   4.852
  130SOPE  C31014003   3.344   0.091   4.653
  130SOPE  H10X14004   3.257   0.154   4.625
  130SOPE  H10Y14005   3.333  -0.005   4.599
  130SOPE  C31114006   3.463   0.172   4.589
  130SOPE  H11X14007   3.550   0.103   4.593
  130SOPE  H11Y14008   3.486   0.256   4.658
  130SOPE  C31214009   3.443   0.219   4.446
  130SOPE  H12X14010   3.356   0.287   4.458
  130SOPE  H12Y14011   3.424   0.133   4.378
  130SOPE  C31314012   3.563   0.297   4.388
  130SOPE  H13X14013   3.540   0.317   4.281
  130SOPE  H13Y14014   3.653   0.232   4.391
  130SOPE  C31414015   3.587   0.427   4.463
  130SOPE  H14X14016   3.640   0.420   4.560
  130SOPE  H14Y14017   3.486   0.469   4.481
  130SOPE  C31514018   3.662   0.526   4.369
  130SOPE  H15X14019   3.637   0.530   4.261
  130SOPE  H15Y14020   3.769   0.502   4.358
  130SOPE  C31614021   3.637   0.669   4.415
  130SOPE  H16X14022   3.664   0.687   4.521
  130SOPE  H16Y14023   3.527   0.684   4.404
  130SOPE  C31714024   3.710   0.773   4.321
  130SOPE  H17X14025   3.690   0.736   4.218
  130SOPE  H17Y14026   3.820   0.762   4.329
  130SOPE  C31814027   3.661   0.910   4.335
  130SOPE  H18X14028   3.665   0.946   4.440
  130SOPE  H18Y14029   3.552   0.921   4.314
  130SOPE  H18Z14030   3.717   0.987   4.278
  131SOPE     N14031   3.306   3.328   1.901
  131SOPE   HN114032   3.362   3.408   1.865
  131SOPE   HN214033   3.238   3.311   1.824
  131SOPE   HN314034   3.240   3.365   1.971
  131SOPE   C1214035   3.371   3.198   1.960
  131SOPE  H12A14036   3.446   3.236   2.033
  131SOPE  H12B14037   3.422   3.143   1.878
  131SOPE   C1114038   3.269   3.115   2.036
  131SOPE  H11A14039   3.241   3.164   2.131
  131SOPE  H11B14040   3.311   3.016   2.062
  131SOPE     P14041   3.020   3.166   1.978
  131SOPE   O1314042   2.917   3.092   1.907
  131SOPE   O1414043   3.027   3.314   1.953
  131SOPE   O1214044   3.160   3.106   1.945
  131SOPE   O1114045   2.998   3.145   2.129
  131SOPE    C114046   2.969   3.018   2.181
  131SOPE    HA14047   3.007   2.937   2.116
  131SOPE    HB14048   2.863   2.993   2.200
  131SOPE    C214049   3.044   3.005   2.323
  131SOPE    HS14050   3.154   3.001   2.309
  131SOPE   O2114051   3.000   2.890   2.397
  131SOPE   C2114052   3.041   2.771   2.359
  131SOPE   O2214053   3.135   2.747   2.283
  131SOPE   C2214054   2.956   2.668   2.435
  131SOPE   H2R14055   3.010   2.573   2.413
  131SOPE   H2S14056   2.857   2.660   2.386
  131SOPE    C314057   3.020   3.128   2.412
  131SOPE    HX14058   2.909   3.135   2.414
  131SOPE    HY14059   3.068   3.216   2.364
  131SOPE   O3114060   3.063   3.113   2.547
  131SOPE   C3114061   3.187   3.128   2.581
  131SOPE   O3214062   3.276   3.142   2.500
  131SOPE   C3214063   3.208   3.118   2.735
  131SOPE   H2X14064   3.146   3.034   2.774
  131SOPE   H2Y14065   3.163   3.210   2.779
  131SOPE   C2314066   2.952   2.692   2.585
  131SOPE   H3R14067   2.883   2.628   2.643
  131SOPE   H3S14068   2.926   2.797   2.613
  131SOPE   C2414069   3.092   2.662   2.641
  131SOPE   H4R14070   3.110   2.555   2.615
  131SOPE   H4S14071   3.157   2.733   2.585
  131SOPE   C2514072   3.104   2.687   2.793
  131SOPE   H5R14073   3.213   2.693   2.818
  131SOPE   H5S14074   3.052   2.784   2.810
  131SOPE   C2614075   3.048   2.585   2.889
  131SOPE   H6R14076   2.937   2.580   2.890
  131SOPE   H6S14077   3.086   2.484   2.862
  131SOPE   C2714078   3.094   2.638   3.028
  131SOPE   H7R14079   3.204   2.647   3.026
  131SOPE   H7S14080   3.053   2.740   3.045
  131SOPE   C2814081   3.070   2.543   3.150
  131SOPE   H8R14082   3.152   2.468   3.143
  131SOPE   H8S14083   3.111   2.596   3.239
  131SOPE   C2914084   2.928   2.503   3.162
  131SOPE   H9114085   2.858   2.569   3.109
  131SOPE  C21014086   2.871   2.402   3.226
  131SOPE  H10114087   2.762   2.390   3.218
  131SOPE  C21114088   2.959   2.300   3.304
  131SOPE  H11R14089   3.058   2.328   3.344
  131SOPE  H11S14090   2.965   2.210   3.238
  131SOPE  C21214091   2.883   2.236   3.418
  131SOPE  H12R14092   2.945   2.151   3.454
  131SOPE  H12S14093   2.781   2.202   3.390
  131SOPE  C21314094   2.871   2.327   3.539
  131SOPE  H13R14095   2.775   2.295   3.585
  131SOPE  H13S14096   2.867   2.434   3.508
  131SOPE  C21414097   2.991   2.312   3.634
  131SOPE  H14R14098   3.094   2.325   3.595
  131SOPE  H14S14099   2.994   2.205   3.665
  131SOPE  C21514100   2.979   2.398   3.756
  131SOPE  H15R14101   3.039   2.352   3.837
  131SOPE  H15S14102   2.871   2.400   3.785
  131SOPE  C21614103   3.024   2.538   3.714
  131SOPE  H16R14104   2.972   2.578   3.624
  131SOPE  H16S14105   3.134   2.540   3.694
  131SOPE  C21714106   3.018   2.642   3.827
  131SOPE  H17R14107   3.108   2.644   3.892
  131SOPE  H17S14108   2.934   2.609   3.891
  131SOPE  C21814109   2.999   2.789   3.775
  131SOPE  H18R14110   2.979   2.856   3.861
  131SOPE  H18S14111   2.918   2.783   3.699
  131SOPE  H18T14112   3.088   2.830   3.723
  131SOPE   C3314113   3.353   3.102   2.785
  131SOPE   H3X14114   3.409   3.162   2.710
  131SOPE   H3Y14115   3.379   2.994   2.783
  131SOPE   C3414116   3.376   3.144   2.931
  131SOPE   H4X14117   3.351   3.251   2.919
  131SOPE   H4Y14118   3.478   3.119   2.965
  131SOPE   C3514119   3.281   3.062   3.029
  131SOPE   H5X14120   3.263   2.959   2.990
  131SOPE   H5Y14121   3.188   3.123   3.032
  131SOPE   C3614122   3.342   3.048   3.164
  131SOPE   H6X14123   3.381   3.149   3.189
  131SOPE   H6Y14124   3.428   2.977   3.162
  131SOPE   C3714125   3.234   3.000   3.265
  131SOPE   H7X14126   3.190   2.906   3.226
  131SOPE   H7Y14127   3.149   3.071   3.254
  131SOPE   C3814128   3.293   2.983   3.409
  131SOPE   H8X14129   3.206   2.965   3.476
  131SOPE   H8Y14130   3.312   3.088   3.441
  131SOPE   C3914131   3.422   2.900   3.437
  131SOPE   H9X14132   3.515   2.929   3.384
  131SOPE   H9Y14133   3.394   2.799   3.401
  131SOPE  C31014134   3.475   2.899   3.582
  131SOPE  H10X14135   3.537   2.986   3.615
  131SOPE  H10Y14136   3.546   2.815   3.596
  131SOPE  C31114137   3.371   2.869   3.691
  131SOPE  H11X14138   3.302   2.781   3.685
  131SOPE  H11Y14139   3.296   2.951   3.699
  131SOPE  C31214140   3.441   2.874   3.830
  131SOPE  H12X14141   3.451   2.981   3.859
  131SOPE  H12Y14142   3.543   2.831   3.825
  131SOPE  C31314143   3.371   2.809   3.949
  131SOPE  H13X14144   3.363   2.701   3.925
  131SOPE  H13Y14145   3.264   2.839   3.958
  131SOPE  C31414146   3.439   2.837   4.078
  131SOPE  H14X14147   3.438   2.945   4.101
  131SOPE  H14Y14148   3.539   2.789   4.085
  131SOPE  C31514149   3.364   2.770   4.197
  131SOPE  H15X14150   3.307   2.679   4.168
  131SOPE  H15Y14151   3.282   2.839   4.226
  131SOPE  C31614152   3.459   2.739   4.315
  131SOPE  H16X14153   3.527   2.658   4.279
  131SOPE  H16Y14154   3.394   2.706   4.399
  131SOPE  C31714155   3.550   2.856   4.356
  131SOPE  H17X14156   3.485   2.940   4.388
  131SOPE  H17Y14157   3.598   2.897   4.265
  131SOPE  C31814158   3.647   2.827   4.472
  131SOPE  H18X14159   3.716   2.907   4.505
  131SOPE  H18Y14160   3.712   2.743   4.439
  131SOPE  H18Z14161   3.584   2.791   4.556
  132SOPE     N14162   0.616   4.126   1.682
  132SOPE   HN114163   0.554   4.116   1.599
  132SOPE   HN214164   0.631   4.029   1.716
  132SOPE   HN314165   0.549   4.165   1.751
  132SOPE   C1214166   0.740   4.205   1.668
  132SOPE  H12A14167   0.711   4.308   1.639
  132SOPE  H12B14168   0.814   4.156   1.601
  132SOPE   C1114169   0.807   4.226   1.802
  132SOPE  H11A14170   0.734   4.261   1.879
  132SOPE  H11B14171   0.875   4.312   1.784
  132SOPE     P14172   1.034   4.145   1.884
  132SOPE   O1314173   1.092   4.242   1.787
  132SOPE   O1414174   1.095   4.013   1.905
  132SOPE   O1214175   0.881   4.110   1.847
  132SOPE   O1114176   1.024   4.223   2.017
  132SOPE    C114177   1.006   4.150   2.133
  132SOPE    HA14178   1.102   4.097   2.149
  132SOPE    HB14179   0.932   4.070   2.113
  132SOPE    C214180   0.959   4.239   2.250
  132SOPE    HS14181   0.868   4.293   2.217
  132SOPE   O2114182   1.072   4.321   2.284
  132SOPE   C2114183   1.041   4.446   2.322
  132SOPE   O2214184   0.936   4.500   2.302
  132SOPE   C2214185   1.170   4.507   2.382
  132SOPE   H2R14186   1.234   4.548   2.301
  132SOPE   H2S14187   1.222   4.419   2.426
  132SOPE    C314188   0.924   4.155   2.376
  132SOPE    HX14189   1.013   4.097   2.409
  132SOPE    HY14190   0.849   4.080   2.343
  132SOPE   O3114191   0.869   4.236   2.490
  132SOPE   C3114192   0.747   4.279   2.479
  132SOPE   O3214193   0.673   4.261   2.381
  132SOPE   C3214194   0.704   4.361   2.601
  132SOPE   H2X14195   0.599   4.397   2.592
  132SOPE   H2Y14196   0.769   4.451   2.604
  132SOPE   C2314197   1.141   4.609   2.489
  132SOPE   H3R14198   1.081   4.699   2.462
  132SOPE   H3S14199   1.242   4.647   2.518
  132SOPE   C2414200   1.088   4.552   2.620
  132SOPE   H4R14201   1.026   4.627   2.675
  132SOPE   H4S14202   1.015   4.471   2.597
  132SOPE   C2514203   1.200   4.493   2.713
  132SOPE   H5R14204   1.268   4.431   2.652
  132SOPE   H5S14205   1.271   4.572   2.743
  132SOPE   C2614206   1.158   4.402   2.831
  132SOPE   H6R14207   1.236   4.380   2.908
  132SOPE   H6S14208   1.072   4.440   2.890
  132SOPE   C2714209   1.116   4.257   2.779
  132SOPE   H7R14210   1.005   4.263   2.777
  132SOPE   H7S14211   1.158   4.243   2.677
  132SOPE   C2814212   1.164   4.144   2.871
  132SOPE   H8R14213   1.269   4.129   2.838
  132SOPE   H8S14214   1.185   4.168   2.977
  132SOPE   C2914215   1.080   4.021   2.846
  132SOPE   H9114216   1.109   3.977   2.750
  132SOPE  C21014217   1.004   3.958   2.932
  132SOPE  H10114218   0.951   3.868   2.901
  132SOPE  C21114219   0.980   3.997   3.076
  132SOPE  H11R14220   0.880   3.966   3.114
  132SOPE  H11S14221   0.957   4.105   3.083
  132SOPE  C21214222   1.096   3.953   3.168
  132SOPE  H12R14223   1.186   3.984   3.111
  132SOPE  H12S14224   1.096   3.842   3.177
  132SOPE  C21314225   1.075   4.006   3.307
  132SOPE  H13R14226   1.034   4.108   3.293
  132SOPE  H13S14227   1.172   4.017   3.360
  132SOPE  C21414228   0.998   3.920   3.404
  132SOPE  H14R14229   1.053   3.830   3.436
  132SOPE  H14S14230   0.908   3.888   3.348
  132SOPE  C21514231   0.964   3.992   3.531
  132SOPE  H15R14232   0.901   4.081   3.512
  132SOPE  H15S14233   1.056   4.026   3.582
  132SOPE  C21614234   0.885   3.896   3.630
  132SOPE  H16R14235   0.946   3.804   3.642
  132SOPE  H16S14236   0.789   3.858   3.587
  132SOPE  C21714237   0.859   3.973   3.758
  132SOPE  H17R14238   0.758   3.943   3.793
  132SOPE  H17S14239   0.849   4.082   3.736
  132SOPE  C21814240   0.955   3.961   3.875
  132SOPE  H18R14241   0.920   3.994   3.975
  132SOPE  H18S14242   1.042   4.025   3.851
  132SOPE  H18T14243   0.991   3.856   3.878
  132SOPE   C3314244   0.701   4.277   2.730
  132SOPE   H3X14245   0.805   4.245   2.753
  132SOPE   H3Y14246   0.634   4.189   2.719
  132SOPE   C3414247   0.655   4.359   2.852
  132SOPE   H4X14248   0.548   4.385   2.838
  132SOPE   H4Y14249   0.708   4.456   2.859
  132SOPE   C3514250   0.671   4.299   2.990
  132SOPE   H5X14251   0.773   4.257   3.004
  132SOPE   H5Y14252   0.604   4.212   3.007
  132SOPE   C3614253   0.649   4.407   3.098
  132SOPE   H6X14254   0.553   4.460   3.082
  132SOPE   H6Y14255   0.720   4.491   3.089
  132SOPE   C3714256   0.661   4.346   3.246
  132SOPE   H7X14257   0.757   4.293   3.265
  132SOPE   H7Y14258   0.590   4.262   3.257
  132SOPE   C3814259   0.613   4.456   3.345
  132SOPE   H8X14260   0.521   4.504   3.305
  132SOPE   H8Y14261   0.695   4.531   3.340
  132SOPE   C3914262   0.584   4.411   3.492
  132SOPE   H9X14263   0.512   4.326   3.483
  132SOPE   H9Y14264   0.528   4.492   3.544
  132SOPE  C31014265   0.706   4.362   3.569
  132SOPE  H10X14266   0.778   4.304   3.508
  132SOPE  H10Y14267   0.677   4.293   3.652
  132SOPE  C31114268   0.780   4.487   3.626
  132SOPE  H11X14269   0.734   4.576   3.578
  132SOPE  H11Y14270   0.881   4.493   3.580
  132SOPE  C31214271   0.763   4.505   3.775
  132SOPE  H12X14272   0.661   4.498   3.819
  132SOPE  H12Y14273   0.818   4.597   3.803
  132SOPE  C31314274   0.836   4.399   3.859
  132SOPE  H13X14275   0.937   4.394   3.814
  132SOPE  H13Y14276   0.785   4.300   3.853
  132SOPE  C31414277   0.866   4.434   4.007
  132SOPE  H14X14278   0.902   4.539   4.009
  132SOPE  H14Y14279   0.945   4.364   4.043
  132SOPE  C31514280   0.737   4.421   4.088
  132SOPE  H15X14281   0.689   4.324   4.061
  132SOPE  H15Y14282   0.668   4.502   4.057
  132SOPE  C31614283   0.770   4.420   4.240
  132SOPE  H16X14284   0.805   4.523   4.263
  132SOPE  H16Y14285   0.856   4.353   4.260
  132SOPE  C31714286   0.651   4.385   4.323
  132SOPE  H17X14287   0.613   4.285   4.293
  132SOPE  H17Y14288   0.571   4.459   4.300
  132SOPE  C31814289   0.678   4.394   4.475
  132SOPE  H18X14290   0.736   4.305   4.508
  132SOPE  H18Y14291   0.577   4.381   4.520
  132SOPE  H18Z14292   0.724   4.490   4.506
  133SOPE     N14293   2.002   6.205   1.690
  133SOPE   HN114294   1.988   6.298   1.734
  133SOPE   HN214295   1.937   6.177   1.614
  133SOPE   HN314296   1.995   6.133   1.766
  133SOPE   C1214297   2.146   6.214   1.632
  133SOPE  H12A14298   2.154   6.318   1.592
  133SOPE  H12B14299   2.157   6.137   1.553
  133SOPE   C1114300   2.251   6.195   1.743
  133SOPE  H11A14301   2.225   6.252   1.835
  133SOPE  H11B14302   2.348   6.229   1.702
  133SOPE     P14303   2.302   5.997   1.902
  133SOPE   O1314304   2.346   5.857   1.880
  133SOPE   O1414305   2.187   6.012   1.993
  133SOPE   O1214306   2.257   6.056   1.761
  133SOPE   O1114307   2.423   6.091   1.947
  133SOPE    C114308   2.400   6.186   2.052
  133SOPE    HA14309   2.330   6.146   2.129
  133SOPE    HB14310   2.355   6.282   2.018
  133SOPE    C214311   2.533   6.217   2.136
  133SOPE    HS14312   2.600   6.269   2.063
  133SOPE   O2114313   2.597   6.097   2.187
  133SOPE   C2114314   2.721   6.118   2.228
  133SOPE   O2214315   2.785   6.216   2.198
  133SOPE   C2214316   2.769   6.007   2.322
  133SOPE   H2R14317   2.777   5.910   2.269
  133SOPE   H2S14318   2.700   6.005   2.409
  133SOPE    C314319   2.500   6.317   2.256
  133SOPE    HX14320   2.443   6.403   2.213
  133SOPE    HY14321   2.592   6.369   2.290
  133SOPE   O3114322   2.449   6.265   2.380
  133SOPE   C3114323   2.322   6.282   2.399
  133SOPE   O3214324   2.245   6.339   2.320
  133SOPE   C3214325   2.268   6.209   2.524
  133SOPE   H2X14326   2.346   6.198   2.602
  133SOPE   H2Y14327   2.218   6.114   2.495
  133SOPE   C2314328   2.905   6.046   2.385
  133SOPE   H3R14329   2.897   6.147   2.430
  133SOPE   H3S14330   2.988   6.044   2.311
  133SOPE   C2414331   2.959   5.954   2.494
  133SOPE   H4R14332   2.903   5.955   2.589
  133SOPE   H4S14333   2.953   5.851   2.453
  133SOPE   C2514334   3.107   5.978   2.534
  133SOPE   H5R14335   3.165   5.961   2.441
  133SOPE   H5S14336   3.111   6.081   2.575
  133SOPE   C2614337   3.153   5.882   2.638
  133SOPE   H6R14338   3.087   5.886   2.727
  133SOPE   H6S14339   3.163   5.779   2.599
  133SOPE   C2714340   3.292   5.926   2.674
  133SOPE   H7R14341   3.350   5.940   2.580
  133SOPE   H7S14342   3.292   6.026   2.722
  133SOPE   C2814343   3.359   5.810   2.754
  133SOPE   H8R14344   3.279   5.774   2.822
  133SOPE   H8S14345   3.370   5.726   2.682
  133SOPE   C2914346   3.489   5.860   2.817
  133SOPE   H9114347   3.532   5.951   2.775
  133SOPE  C21014348   3.549   5.788   2.919
  133SOPE  H10114349   3.642   5.827   2.961
  133SOPE  C21114350   3.503   5.656   2.974
  133SOPE  H11R14351   3.506   5.574   2.900
  133SOPE  H11S14352   3.396   5.674   2.999
  133SOPE  C21214353   3.561   5.631   3.119
  133SOPE  H12R14354   3.668   5.605   3.108
  133SOPE  H12S14355   3.506   5.538   3.144
  133SOPE  C21314356   3.533   5.731   3.227
  133SOPE  H13R14357   3.427   5.763   3.232
  133SOPE  H13S14358   3.594   5.823   3.214
  133SOPE  C21414359   3.560   5.664   3.365
  133SOPE  H14R14360   3.671   5.659   3.376
  133SOPE  H14S14361   3.520   5.561   3.375
  133SOPE  C21514362   3.519   5.759   3.478
  133SOPE  H15R14363   3.422   5.803   3.446
  133SOPE  H15S14364   3.598   5.836   3.468
  133SOPE  C21614365   3.520   5.686   3.607
  133SOPE  H16R14366   3.616   5.630   3.606
  133SOPE  H16S14367   3.437   5.612   3.610
  133SOPE  C21714368   3.527   5.760   3.746
  133SOPE  H17R14369   3.433   5.814   3.772
  133SOPE  H17S14370   3.616   5.826   3.743
  133SOPE  C21814371   3.576   5.662   3.854
  133SOPE  H18R14372   3.588   5.722   3.947
  133SOPE  H18S14373   3.676   5.628   3.819
  133SOPE  H18T14374   3.516   5.570   3.869
  133SOPE   C3314375   2.154   6.295   2.598
  133SOPE   H3X14376   2.081   6.319   2.517
  133SOPE   H3Y14377   2.189   6.396   2.627
  133SOPE   C3414378   2.091   6.229   2.722
  133SOPE   H4X14379   2.040   6.306   2.784
  133SOPE   H4Y14380   2.177   6.192   2.781
  133SOPE   C3514381   1.980   6.129   2.677
  133SOPE   H5X14382   2.027   6.047   2.619
  133SOPE   H5Y14383   1.910   6.173   2.603
  133SOPE   C3614384   1.900   6.064   2.788
  133SOPE   H6X14385   1.970   6.004   2.850
  133SOPE   H6Y14386   1.817   5.999   2.751
  133SOPE   C3714387   1.828   6.160   2.889
  133SOPE   H7X14388   1.754   6.220   2.831
  133SOPE   H7Y14389   1.908   6.228   2.923
  133SOPE   C3814390   1.764   6.107   3.019
  133SOPE   H8X14391   1.848   6.052   3.068
  133SOPE   H8Y14392   1.675   6.043   3.001
  133SOPE   C3914393   1.727   6.228   3.103
  133SOPE   H9X14394   1.632   6.277   3.075
  133SOPE   H9Y14395   1.803   6.308   3.091
  133SOPE  C31014396   1.724   6.212   3.254
  133SOPE  H10X14397   1.712   6.305   3.313
  133SOPE  H10Y14398   1.827   6.179   3.281
  133SOPE  C31114399   1.622   6.111   3.306
  133SOPE  H11X14400   1.629   6.012   3.256
  133SOPE  H11Y14401   1.520   6.149   3.285
  133SOPE  C31214402   1.641   6.083   3.459
  133SOPE  H12X14403   1.672   6.181   3.501
  133SOPE  H12Y14404   1.715   6.003   3.478
  133SOPE  C31314405   1.520   6.035   3.537
  133SOPE  H13X14406   1.466   5.959   3.477
  133SOPE  H13Y14407   1.457   6.126   3.530
  133SOPE  C31414408   1.549   5.995   3.673
  133SOPE  H14X14409   1.612   6.073   3.721
  133SOPE  H14Y14410   1.617   5.908   3.685
  133SOPE  C31514411   1.429   5.988   3.769
  133SOPE  H15X14412   1.356   5.913   3.731
  133SOPE  H15Y14413   1.368   6.081   3.768
  133SOPE  C31614414   1.463   5.933   3.909
  133SOPE  H16X14415   1.498   5.829   3.898
  133SOPE  H16Y14416   1.374   5.936   3.976
  133SOPE  C31714417   1.570   6.014   3.981
  133SOPE  H17X14418   1.555   6.119   3.948
  133SOPE  H17Y14419   1.671   5.984   3.944
  133SOPE  C31814420   1.558   6.006   4.139
  133SOPE  H18X14421   1.558   5.902   4.178
  133SOPE  H18Y14422   1.470   6.062   4.179
  133SOPE  H18Z14423   1.650   6.054   4.178
  134SOPE     N14424   0.073   0.455   1.787
  134SOPE   HN114425  -0.020   0.448   1.740
  134SOPE   HN214426   0.109   0.548   1.757
  134SOPE   HN314427   0.141   0.385   1.750
  134SOPE   C1214428   0.034   0.447   1.928
  134SOPE  H12A14429  -0.005   0.348   1.959
  134SOPE  H12B14430  -0.042   0.528   1.937
  134SOPE   C1114431   0.164   0.480   2.016
  134SOPE  H11A14432   0.230   0.391   2.017
  134SOPE  H11B14433   0.127   0.488   2.120
  134SOPE     P14434   0.192   0.740   2.003
  134SOPE   O1314435   0.072   0.768   1.924
  134SOPE   O1414436   0.299   0.836   1.985
  134SOPE   O1214437   0.240   0.590   1.969
  134SOPE   O1114438   0.154   0.740   2.157
  134SOPE    C114439   0.233   0.810   2.244
  134SOPE    HA14440   0.182   0.820   2.342
  134SOPE    HB14441   0.240   0.915   2.209
  134SOPE    C214442   0.372   0.746   2.270
  134SOPE    HS14443   0.419   0.703   2.179
  134SOPE   O2114444   0.355   0.644   2.370
  134SOPE   C2114445   0.425   0.533   2.351
  134SOPE   O2214446   0.470   0.498   2.244
  134SOPE   C2214447   0.435   0.465   2.492
  134SOPE   H2R14448   0.493   0.375   2.463
  134SOPE   H2S14449   0.332   0.454   2.534
  134SOPE    C314450   0.476   0.848   2.322
  134SOPE    HX14451   0.440   0.889   2.419
  134SOPE    HY14452   0.470   0.931   2.248
  134SOPE   O3114453   0.610   0.794   2.334
  134SOPE   C3114454   0.705   0.844   2.248
  134SOPE   O3214455   0.684   0.921   2.160
  134SOPE   C3214456   0.847   0.801   2.287
  134SOPE   H2X14457   0.897   0.746   2.204
  134SOPE   H2Y14458   0.830   0.722   2.363
  134SOPE   C2314459   0.531   0.542   2.591
  134SOPE   H3R14460   0.495   0.645   2.611
  134SOPE   H3S14461   0.634   0.549   2.552
  134SOPE   C2414462   0.539   0.468   2.724
  134SOPE   H4R14463   0.607   0.381   2.714
  134SOPE   H4S14464   0.595   0.544   2.782
  134SOPE   C2514465   0.404   0.426   2.778
  134SOPE   H5R14466   0.340   0.517   2.772
  134SOPE   H5S14467   0.355   0.345   2.720
  134SOPE   C2614468   0.408   0.416   2.930
  134SOPE   H6R14469   0.501   0.365   2.963
  134SOPE   H6S14470   0.417   0.518   2.973
  134SOPE   C2714471   0.295   0.336   2.993
  134SOPE   H7R14472   0.204   0.370   2.939
  134SOPE   H7S14473   0.300   0.226   2.980
  134SOPE   C2814474   0.291   0.353   3.147
  134SOPE   H8R14475   0.267   0.461   3.162
  134SOPE   H8S14476   0.212   0.296   3.201
  134SOPE   C2914477   0.416   0.307   3.221
  134SOPE   H9114478   0.435   0.201   3.200
  134SOPE  C21014479   0.499   0.391   3.293
  134SOPE  H10114480   0.573   0.344   3.361
  134SOPE  C21114481   0.473   0.532   3.318
  134SOPE  H11R14482   0.411   0.575   3.236
  134SOPE  H11S14483   0.571   0.582   3.311
  134SOPE  C21214484   0.428   0.568   3.465
  134SOPE  H12R14485   0.499   0.512   3.528
  134SOPE  H12S14486   0.324   0.529   3.476
  134SOPE  C21314487   0.443   0.715   3.485
  134SOPE  H13R14488   0.375   0.771   3.417
  134SOPE  H13S14489   0.549   0.740   3.465
  134SOPE  C21414490   0.413   0.773   3.628
  134SOPE  H14R14491   0.406   0.883   3.612
  134SOPE  H14S14492   0.503   0.746   3.687
  134SOPE  C21514493   0.288   0.721   3.701
  134SOPE  H15R14494   0.287   0.610   3.707
  134SOPE  H15S14495   0.202   0.757   3.640
  134SOPE  C21614496   0.280   0.771   3.847
  134SOPE  H16R14497   0.266   0.880   3.836
  134SOPE  H16S14498   0.379   0.754   3.895
  134SOPE  C21714499   0.180   0.701   3.934
  134SOPE  H17R14500   0.200   0.592   3.942
  134SOPE  H17S14501   0.081   0.693   3.884
  134SOPE  C21814502   0.160   0.759   4.074
  134SOPE  H18R14503   0.081   0.704   4.130
  134SOPE  H18S14504   0.122   0.862   4.061
  134SOPE  H18T14505   0.260   0.761   4.121
  134SOPE   C3314506   0.936   0.908   2.352
  134SOPE   H3X14507   0.938   1.001   2.291
  134SOPE   H3Y14508   1.037   0.863   2.364
  134SOPE   C3414509   0.886   0.947   2.494
  134SOPE   H4X14510   0.872   0.850   2.545
  134SOPE   H4Y14511   0.785   0.990   2.475
  134SOPE   C3514512   0.988   1.038   2.556
  134SOPE   H5X14513   1.006   1.133   2.499
  134SOPE   H5Y14514   1.085   0.986   2.543
  134SOPE   C3614515   0.955   1.075   2.703
  134SOPE   H6X14516   0.864   1.138   2.712
  134SOPE   H6Y14517   1.035   1.136   2.750
  134SOPE   C3714518   0.923   0.953   2.791
  134SOPE   H7X14519   1.003   0.876   2.787
  134SOPE   H7Y14520   0.837   0.902   2.744
  134SOPE   C3814521   0.873   0.980   2.941
  134SOPE   H8X14522   0.762   0.980   2.943
  134SOPE   H8Y14523   0.903   1.082   2.972
  134SOPE   C3914524   0.910   0.869   3.048
  134SOPE   H9X14525   1.021   0.870   3.044
  134SOPE   H9Y14526   0.876   0.770   3.014
  134SOPE  C31014527   0.849   0.910   3.183
  134SOPE  H10X14528   0.858   0.820   3.248
  134SOPE  H10Y14529   0.742   0.934   3.167
  134SOPE  C31114530   0.933   1.015   3.248
  134SOPE  H11X14531   0.945   1.098   3.175
  134SOPE  H11Y14532   1.029   0.965   3.273
  134SOPE  C31214533   0.869   1.102   3.354
  134SOPE  H12X14534   0.775   1.136   3.305
  134SOPE  H12Y14535   0.931   1.194   3.367
  134SOPE  C31314536   0.838   1.040   3.493
  134SOPE  H13X14537   0.925   1.020   3.558
  134SOPE  H13Y14538   0.792   0.941   3.472
  134SOPE  C31414539   0.741   1.123   3.573
  134SOPE  H14X14540   0.645   1.152   3.524
  134SOPE  H14Y14541   0.796   1.215   3.603
  134SOPE  C31514542   0.714   1.043   3.706
  134SOPE  H15X14543   0.808   1.003   3.748
  134SOPE  H15Y14544   0.663   0.951   3.671
  134SOPE  C31614545   0.622   1.106   3.814
  134SOPE  H16X14546   0.547   1.173   3.765
  134SOPE  H16Y14547   0.682   1.175   3.878
  134SOPE  C31714548   0.543   1.010   3.900
  134SOPE  H17X14549   0.626   0.941   3.924
  134SOPE  H17Y14550   0.470   0.961   3.833
  134SOPE  C31814551   0.473   1.071   4.020
  134SOPE  H18X14552   0.425   0.990   4.079
  134SOPE  H18Y14553   0.399   1.145   3.984
  134SOPE  H18Z14554   0.541   1.122   4.091
  135SOPE     N14555   6.814   0.837   1.992
  135SOPE   HN114556   6.896   0.780   1.965
  135SOPE   HN214557   6.845   0.933   2.015
  135SOPE   HN314558   6.772   0.798   2.080
  135SOPE   C1214559   6.714   0.839   1.873
  135SOPE  H12A14560   6.620   0.879   1.916
  135SOPE  H12B14561   6.705   0.730   1.850
  135SOPE   C1114562   6.780   0.927   1.766
  135SOPE  H11A14563   6.741   0.899   1.666
  135SOPE  H11B14564   6.888   0.901   1.764
  135SOPE     P14565   6.868   1.154   1.869
  135SOPE   O1314566   6.813   1.294   1.878
  135SOPE   O1414567   7.003   1.131   1.819
  135SOPE   O1214568   6.763   1.070   1.783
  135SOPE   O1114569   6.865   1.089   2.010
  135SOPE    C114570   6.927   1.158   2.120
  135SOPE    HA14571   7.021   1.214   2.103
  135SOPE    HB14572   6.952   1.084   2.199
  135SOPE    C214573   6.823   1.255   2.195
  135SOPE    HS14574   6.802   1.340   2.127
  135SOPE   O2114575   6.862   1.289   2.330
  135SOPE   C2114576   6.892   1.417   2.358
  135SOPE   O2214577   6.900   1.517   2.287
  135SOPE   C2214578   6.927   1.416   2.504
  135SOPE   H2R14579   6.836   1.434   2.566
  135SOPE   H2S14580   6.990   1.506   2.518
  135SOPE    C314581   6.690   1.173   2.199
  135SOPE    HX14582   6.701   1.069   2.236
  135SOPE    HY14583   6.650   1.168   2.096
  135SOPE   O3114584   6.594   1.232   2.290
  135SOPE   C3114585   6.535   1.354   2.259
  135SOPE   O3214586   6.555   1.418   2.157
  135SOPE   C3214587   6.445   1.412   2.371
  135SOPE   H2X14588   6.364   1.337   2.383
  135SOPE   H2Y14589   6.397   1.502   2.327
  135SOPE   C2314590   6.995   1.292   2.558
  135SOPE   H3R14591   7.098   1.278   2.518
  135SOPE   H3S14592   6.934   1.206   2.525
  135SOPE   C2414593   7.010   1.297   2.708
  135SOPE   H4R14594   6.910   1.302   2.756
  135SOPE   H4S14595   7.050   1.201   2.748
  135SOPE   C2514596   7.103   1.403   2.764
  135SOPE   H5R14597   7.191   1.409   2.696
  135SOPE   H5S14598   7.050   1.500   2.756
  135SOPE   C2614599   7.156   1.395   2.908
  135SOPE   H6R14600   7.223   1.307   2.923
  135SOPE   H6S14601   7.215   1.486   2.931
  135SOPE   C2714602   7.054   1.395   3.024
  135SOPE   H7R14603   6.949   1.416   2.993
  135SOPE   H7S14604   7.036   1.293   3.063
  135SOPE   C2814605   7.087   1.485   3.149
  135SOPE   H8R14606   7.007   1.461   3.222
  135SOPE   H8S14607   7.185   1.442   3.177
  135SOPE   C2914608   7.091   1.639   3.133
  135SOPE   H9114609   6.992   1.686   3.128
  135SOPE  C21014610   7.202   1.717   3.119
  135SOPE  H10114611   7.178   1.823   3.103
  135SOPE  C21114612   7.344   1.665   3.124
  135SOPE  H11R14613   7.410   1.748   3.090
  135SOPE  H11S14614   7.354   1.579   3.054
  135SOPE  C21214615   7.387   1.635   3.271
  135SOPE  H12R14616   7.494   1.609   3.259
  135SOPE  H12S14617   7.333   1.549   3.316
  135SOPE  C21314618   7.354   1.758   3.355
  135SOPE  H13R14619   7.250   1.756   3.391
  135SOPE  H13S14620   7.370   1.846   3.288
  135SOPE  C21414621   7.454   1.774   3.471
  135SOPE  H14R14622   7.477   1.877   3.504
  135SOPE  H14S14623   7.546   1.718   3.441
  135SOPE  C21514624   7.386   1.710   3.595
  135SOPE  H15R14625   7.340   1.611   3.574
  135SOPE  H15S14626   7.306   1.776   3.634
  135SOPE  C21614627   7.494   1.699   3.709
  135SOPE  H16R14628   7.529   1.804   3.722
  135SOPE  H16S14629   7.576   1.626   3.692
  135SOPE  C21714630   7.434   1.649   3.841
  135SOPE  H17R14631   7.354   1.720   3.873
  135SOPE  H17S14632   7.512   1.641   3.920
  135SOPE  C21814633   7.380   1.508   3.822
  135SOPE  H18R14634   7.463   1.438   3.798
  135SOPE  H18S14635   7.301   1.501   3.743
  135SOPE  H18T14636   7.331   1.474   3.915
  135SOPE   C3314637   6.527   1.447   2.499
  135SOPE   H3X14638   6.490   1.542   2.543
  135SOPE   H3Y14639   6.636   1.465   2.493
  135SOPE   C3414640   6.509   1.339   2.607
  135SOPE   H4X14641   6.556   1.246   2.568
  135SOPE   H4Y14642   6.401   1.324   2.628
  135SOPE   C3514643   6.576   1.363   2.741
  135SOPE   H5X14644   6.685   1.382   2.726
  135SOPE   H5Y14645   6.551   1.279   2.809
  135SOPE   C3614646   6.541   1.492   2.815
  135SOPE   H6X14647   6.433   1.477   2.835
  135SOPE   H6Y14648   6.547   1.585   2.756
  135SOPE   C3714649   6.618   1.526   2.943
  135SOPE   H7X14650   6.581   1.615   2.997
  135SOPE   H7Y14651   6.724   1.538   2.915
  135SOPE   C3814652   6.624   1.404   3.045
  135SOPE   H8X14653   6.689   1.324   3.005
  135SOPE   H8Y14654   6.517   1.379   3.060
  135SOPE   C3914655   6.676   1.448   3.182
  135SOPE   H9X14656   6.617   1.533   3.223
  135SOPE   H9Y14657   6.778   1.490   3.172
  135SOPE  C31014658   6.676   1.346   3.298
  135SOPE  H10X14659   6.756   1.273   3.276
  135SOPE  H10Y14660   6.579   1.291   3.303
  135SOPE  C31114661   6.687   1.391   3.449
  135SOPE  H11X14662   6.702   1.296   3.506
  135SOPE  H11Y14663   6.595   1.446   3.480
  135SOPE  C31214664   6.809   1.481   3.466
  135SOPE  H12X14665   6.786   1.578   3.418
  135SOPE  H12Y14666   6.891   1.425   3.417
  135SOPE  C31314667   6.848   1.510   3.617
  135SOPE  H13X14668   6.839   1.422   3.684
  135SOPE  H13Y14669   6.783   1.588   3.661
  135SOPE  C31414670   6.993   1.551   3.631
  135SOPE  H14X14671   7.034   1.581   3.532
  135SOPE  H14Y14672   7.056   1.462   3.654
  135SOPE  C31514673   7.008   1.661   3.733
  135SOPE  H15X14674   6.948   1.750   3.702
  135SOPE  H15Y14675   7.112   1.697   3.726
  135SOPE  C31614676   6.973   1.628   3.878
  135SOPE  H16X14677   7.027   1.538   3.915
  135SOPE  H16Y14678   6.865   1.606   3.887
  135SOPE  C31714679   7.008   1.725   3.987
  135SOPE  H17X14680   7.117   1.735   4.006
  135SOPE  H17Y14681   6.953   1.701   4.080
  135SOPE  C31814682   6.962   1.870   3.949
  135SOPE  H18X14683   6.856   1.869   3.916
  135SOPE  H18Y14684   7.026   1.910   3.868
  135SOPE  H18Z14685   6.970   1.928   4.044
  136SOPE     N14686   5.801   1.604   1.923
  136SOPE   HN114687   5.713   1.659   1.934
  136SOPE   HN214688   5.882   1.638   1.979
  136SOPE   HN314689   5.823   1.610   1.821
  136SOPE   C1214690   5.764   1.466   1.953
  136SOPE  H12A14691   5.856   1.404   1.961
  136SOPE  H12B14692   5.704   1.424   1.869
  136SOPE   C1114693   5.686   1.462   2.085
  136SOPE  H11A14694   5.758   1.497   2.162
  136SOPE  H11B14695   5.661   1.357   2.113
  136SOPE     P14696   5.426   1.505   2.043
  136SOPE   O1314697   5.441   1.404   1.935
  136SOPE   O1414698   5.353   1.626   2.010
  136SOPE   O1214699   5.571   1.549   2.082
  136SOPE   O1114700   5.363   1.433   2.166
  136SOPE    C114701   5.367   1.494   2.293
  136SOPE    HA14702   5.272   1.549   2.313
  136SOPE    HB14703   5.455   1.560   2.307
  136SOPE    C214704   5.379   1.394   2.411
  136SOPE    HS14705   5.277   1.357   2.435
  136SOPE   O2114706   5.447   1.439   2.527
  136SOPE   C2114707   5.373   1.529   2.596
  136SOPE   O2214708   5.267   1.577   2.558
  136SOPE   C2214709   5.435   1.563   2.732
  136SOPE   H2R14710   5.484   1.662   2.720
  136SOPE   H2S14711   5.526   1.501   2.748
  136SOPE    C314712   5.453   1.268   2.359
  136SOPE    HX14713   5.538   1.310   2.302
  136SOPE    HY14714   5.387   1.216   2.286
  136SOPE   O3114715   5.514   1.180   2.459
  136SOPE   C3114716   5.433   1.068   2.483
  136SOPE   O3214717   5.323   1.058   2.434
  136SOPE   C3214718   5.502   0.969   2.573
  136SOPE   H2X14719   5.609   0.998   2.576
  136SOPE   H2Y14720   5.483   0.865   2.540
  136SOPE   C2314721   5.339   1.561   2.848
  136SOPE   H3R14722   5.294   1.459   2.847
  136SOPE   H3S14723   5.256   1.629   2.819
  136SOPE   C2414724   5.397   1.597   2.981
  136SOPE   H4R14725   5.489   1.538   3.003
  136SOPE   H4S14726   5.430   1.703   2.981
  136SOPE   C2514727   5.298   1.560   3.097
  136SOPE   H5R14728   5.199   1.595   3.060
  136SOPE   H5S14729   5.290   1.449   3.107
  136SOPE   C2614730   5.352   1.609   3.229
  136SOPE   H6R14731   5.457   1.574   3.239
  136SOPE   H6S14732   5.349   1.720   3.230
  136SOPE   C2714733   5.262   1.557   3.343
  136SOPE   H7R14734   5.156   1.567   3.311
  136SOPE   H7S14735   5.282   1.450   3.364
  136SOPE   C2814736   5.275   1.640   3.474
  136SOPE   H8R14737   5.382   1.626   3.500
  136SOPE   H8S14738   5.255   1.747   3.452
  136SOPE   C2914739   5.185   1.597   3.582
  136SOPE   H9114740   5.083   1.636   3.565
  136SOPE  C21014741   5.218   1.526   3.691
  136SOPE  H10114742   5.127   1.507   3.750
  136SOPE  C21114743   5.357   1.470   3.720
  136SOPE  H11R14744   5.424   1.553   3.689
  136SOPE  H11S14745   5.371   1.388   3.647
  136SOPE  C21214746   5.382   1.430   3.867
  136SOPE  H12R14747   5.481   1.380   3.863
  136SOPE  H12S14748   5.301   1.363   3.900
  136SOPE  C21314749   5.395   1.550   3.960
  136SOPE  H13R14750   5.304   1.613   3.948
  136SOPE  H13S14751   5.479   1.617   3.931
  136SOPE  C21414752   5.412   1.507   4.105
  136SOPE  H14R14753   5.512   1.468   4.135
  136SOPE  H14S14754   5.348   1.419   4.126
  136SOPE  C21514755   5.386   1.616   4.208
  136SOPE  H15R14756   5.427   1.711   4.168
  136SOPE  H15S14757   5.430   1.591   4.307
  136SOPE  C21614758   5.231   1.635   4.239
  136SOPE  H16R14759   5.177   1.656   4.143
  136SOPE  H16S14760   5.220   1.725   4.304
  136SOPE  C21714761   5.175   1.513   4.302
  136SOPE  H17R14762   5.180   1.423   4.238
  136SOPE  H17S14763   5.065   1.530   4.311
  136SOPE  C21814764   5.228   1.485   4.447
  136SOPE  H18R14765   5.337   1.476   4.427
  136SOPE  H18S14766   5.195   1.387   4.488
  136SOPE  H18T14767   5.203   1.566   4.518
  136SOPE   C3314768   5.449   0.995   2.718
  136SOPE   H3X14769   5.486   0.916   2.787
  136SOPE   H3Y14770   5.339   0.984   2.724
  136SOPE   C3414771   5.495   1.124   2.782
  136SOPE   H4X14772   5.486   1.206   2.708
  136SOPE   H4Y14773   5.604   1.114   2.802
  136SOPE   C3514774   5.441   1.165   2.923
  136SOPE   H5X14775   5.330   1.157   2.932
  136SOPE   H5Y14776   5.467   1.273   2.931
  136SOPE   C3614777   5.499   1.095   3.046
  136SOPE   H6X14778   5.609   1.104   3.061
  136SOPE   H6Y14779   5.467   0.988   3.043
  136SOPE   C3714780   5.424   1.145   3.168
  136SOPE   H7X14781   5.314   1.142   3.157
  136SOPE   H7Y14782   5.432   1.256   3.162
  136SOPE   C3814783   5.476   1.074   3.294
  136SOPE   H8X14784   5.579   1.111   3.313
  136SOPE   H8Y14785   5.481   0.965   3.277
  136SOPE   C3914786   5.390   1.092   3.416
  136SOPE   H9X14787   5.309   1.016   3.411
  136SOPE   H9Y14788   5.336   1.188   3.428
  136SOPE  C31014789   5.474   1.067   3.537
  136SOPE  H10X14790   5.551   1.147   3.542
  136SOPE  H10Y14791   5.528   0.971   3.524
  136SOPE  C31114792   5.397   1.064   3.672
  136SOPE  H11X14793   5.327   0.980   3.655
  136SOPE  H11Y14794   5.335   1.156   3.676
  136SOPE  C31214795   5.496   1.053   3.787
  136SOPE  H12X14796   5.538   1.155   3.780
  136SOPE  H12Y14797   5.568   0.972   3.762
  136SOPE  C31314798   5.416   1.017   3.913
  136SOPE  H13X14799   5.398   0.907   3.918
  136SOPE  H13Y14800   5.316   1.062   3.893
  136SOPE  C31414801   5.478   1.083   4.037
  136SOPE  H14X14802   5.538   1.174   4.017
  136SOPE  H14Y14803   5.551   1.010   4.076
  136SOPE  C31514804   5.377   1.092   4.154
  136SOPE  H15X14805   5.320   0.997   4.164
  136SOPE  H15Y14806   5.287   1.151   4.126
  136SOPE  C31614807   5.445   1.139   4.284
  136SOPE  H16X14808   5.482   1.241   4.261
  136SOPE  H16Y14809   5.537   1.078   4.296
  136SOPE  C31714810   5.347   1.123   4.401
  136SOPE  H17X14811   5.320   1.017   4.387
  136SOPE  H17Y14812   5.261   1.191   4.387
  136SOPE  C31814813   5.400   1.149   4.545
  136SOPE  H18X14814   5.478   1.228   4.548
  136SOPE  H18Y14815   5.435   1.061   4.602
  136SOPE  H18Z14816   5.317   1.186   4.608
  137POPC     N14817   3.423   2.422   6.234
  137POPC   C1214818   3.431   2.392   6.380
  137POPC  H12A14819   3.371   2.304   6.395
  137POPC  H12B14820   3.380   2.460   6.447
  137POPC   C1314821   3.303   2.501   6.194
  137POPC  H13A14822   3.306   2.606   6.218
  137POPC  H13B14823   3.291   2.492   6.087
  137POPC  H13C14824   3.214   2.456   6.235
  137POPC   C1414825   3.541   2.499   6.184
  137POPC  H14A14826   3.523   2.528   6.081
  137POPC  H14B14827   3.557   2.591   6.237
  137POPC  H14C14828   3.634   2.445   6.196
  137POPC   C1514829   3.412   2.298   6.157
  137POPC  H15A14830   3.510   2.253   6.164
  137POPC  H15B14831   3.383   2.316   6.055
  137POPC  H15C14832   3.334   2.232   6.192
  137POPC   C1114833   3.565   2.361   6.437
  137POPC  H11A14834   3.548   2.326   6.541
  137POPC  H11B14835   3.633   2.447   6.453
  137POPC     P14836   3.765   2.221   6.332
  137POPC   O1314837   3.810   2.080   6.351
  137POPC   O1414838   3.839   2.329   6.407
  137POPC   O1214839   3.613   2.247   6.363
  137POPC   O1114840   3.760   2.263   6.181
  137POPC    C114841   3.739   2.166   6.078
  137POPC    HA14842   3.707   2.219   5.986
  137POPC    HB14843   3.653   2.102   6.107
  137POPC    C214844   3.873   2.097   6.039
  137POPC    HS14845   3.903   2.036   6.128
  137POPC   O2114846   3.974   2.191   6.001
  137POPC   C2114847   4.094   2.171   6.039
  137POPC   O2214848   4.127   2.076   6.112
  137POPC   C2214849   4.183   2.292   6.003
  137POPC   H2R14850   4.231   2.326   6.097
  137POPC   H2S14851   4.120   2.378   5.972
  137POPC    C314852   3.842   1.989   5.929
  137POPC    HX14853   3.753   1.941   5.975
  137POPC    HY14854   3.930   1.921   5.925
  137POPC   O3114855   3.812   2.041   5.802
  137POPC   C3114856   3.807   1.942   5.710
  137POPC   O3214857   3.808   1.822   5.739
  137POPC   C3214858   3.805   2.012   5.573
  137POPC   H2X14859   3.905   2.058   5.561
  137POPC   H2Y14860   3.723   2.086   5.566
  137POPC   C2314861   4.273   2.248   5.885
  137POPC   H3R14862   4.331   2.158   5.916
  137POPC   H3S14863   4.345   2.330   5.861
  137POPC   C2414864   4.181   2.220   5.768
  137POPC   H4R14865   4.128   2.317   5.763
  137POPC   H4S14866   4.106   2.139   5.781
  137POPC   C2514867   4.265   2.199   5.639
  137POPC   H5R14868   4.334   2.285   5.624
  137POPC   H5S14869   4.184   2.194   5.563
  137POPC   C2614870   4.324   2.060   5.635
  137POPC   H6R14871   4.239   1.990   5.651
  137POPC   H6S14872   4.386   2.046   5.726
  137POPC   C2714873   4.416   2.026   5.518
  137POPC   H7R14874   4.450   1.921   5.522
  137POPC   H7S14875   4.499   2.099   5.530
  137POPC   C2814876   4.369   2.072   5.380
  137POPC   H8R14877   4.458   2.065   5.313
  137POPC   H8S14878   4.332   2.177   5.383
  137POPC   C2914879   4.258   1.985   5.330
  137POPC   H9114880   4.226   1.916   5.409
  137POPC  C21014881   4.189   1.993   5.213
  137POPC  H10114882   4.129   1.906   5.184
  137POPC  C21114883   4.207   2.100   5.100
  137POPC  H11R14884   4.257   2.189   5.144
  137POPC  H11S14885   4.106   2.140   5.076
  137POPC  C21214886   4.273   2.033   4.979
  137POPC  H12R14887   4.210   1.946   4.948
  137POPC  H12S14888   4.373   1.996   5.008
  137POPC  C21314889   4.269   2.125   4.862
  137POPC  H13R14890   4.340   2.209   4.883
  137POPC  H13S14891   4.171   2.170   4.837
  137POPC  C21414892   4.325   2.065   4.734
  137POPC  H14R14893   4.295   2.131   4.650
  137POPC  H14S14894   4.273   1.969   4.715
  137POPC  C21514895   4.470   2.027   4.744
  137POPC  H15R14896   4.483   1.956   4.829
  137POPC  H15S14897   4.526   2.118   4.772
  137POPC  C21614898   4.531   1.958   4.626
  137POPC  H16R14899   4.501   2.017   4.537
  137POPC  H16S14900   4.481   1.860   4.611
  137POPC  C21714901   4.685   1.942   4.632
  137POPC  H17R14902   4.718   1.896   4.727
  137POPC  H17S14903   4.721   2.047   4.632
  137POPC  C21814904   4.732   1.870   4.506
  137POPC  H18R14905   4.699   1.764   4.508
  137POPC  H18S14906   4.843   1.865   4.502
  137POPC  H18T14907   4.683   1.907   4.413
  137POPC   C3314908   3.779   1.915   5.457
  137POPC   H3X14909   3.680   1.866   5.463
  137POPC   H3Y14910   3.864   1.844   5.446
  137POPC   C3414911   3.766   1.997   5.327
  137POPC   H4X14912   3.838   2.080   5.314
  137POPC   H4Y14913   3.664   2.037   5.341
  137POPC   C3514914   3.753   1.904   5.205
  137POPC   H5X14915   3.676   1.825   5.218
  137POPC   H5Y14916   3.854   1.864   5.183
  137POPC   C3614917   3.718   1.989   5.082
  137POPC   H6X14918   3.799   2.064   5.067
  137POPC   H6Y14919   3.620   2.036   5.105
  137POPC   C3714920   3.724   1.906   4.955
  137POPC   H7X14921   3.664   1.813   4.965
  137POPC   H7Y14922   3.834   1.892   4.947
  137POPC   C3814923   3.679   1.990   4.835
  137POPC   H8X14924   3.748   2.077   4.830
  137POPC   H8Y14925   3.574   2.025   4.834
  137POPC   C3914926   3.698   1.906   4.708
  137POPC   H9X14927   3.633   1.817   4.726
  137POPC   H9Y14928   3.795   1.853   4.698
  137POPC  C31014929   3.665   1.974   4.574
  137POPC  H10X14930   3.725   2.067   4.575
  137POPC  H10Y14931   3.560   2.009   4.577
  137POPC  C31114932   3.697   1.887   4.446
  137POPC  H11X14933   3.802   1.861   4.471
  137POPC  H11Y14934   3.700   1.948   4.353
  137POPC  C31214935   3.607   1.760   4.444
  137POPC  H12X14936   3.502   1.792   4.461
  137POPC  H12Y14937   3.629   1.684   4.522
  137POPC  C31314938   3.612   1.677   4.312
  137POPC  H13X14939   3.711   1.628   4.306
  137POPC  H13Y14940   3.599   1.731   4.216
  137POPC  C31414941   3.511   1.559   4.318
  137POPC  H14X14942   3.538   1.482   4.394
  137POPC  H14Y14943   3.494   1.515   4.218
  137POPC  C31514944   3.355   1.598   4.348
  137POPC  H15X14945   3.320   1.670   4.270
  137POPC  H15Y14946   3.356   1.646   4.448
  137POPC  C31614947   3.256   1.481   4.341
  137POPC  H16X14948   3.271   1.411   4.256
  137POPC  H16Y14949   3.149   1.509   4.354
  137POPC  H16Z14950   3.287   1.418   4.428
  138POPC     N14951   6.468   1.312   6.272
  138POPC   C1214952   6.387   1.237   6.168
  138POPC  H12A14953   6.323   1.164   6.215
  138POPC  H12B14954   6.456   1.181   6.106
  138POPC   C1314955   6.535   1.432   6.218
  138POPC  H13A14956   6.455   1.489   6.174
  138POPC  H13B14957   6.585   1.488   6.296
  138POPC  H13C14958   6.605   1.407   6.140
  138POPC   C1414959   6.378   1.349   6.380
  138POPC  H14A14960   6.328   1.262   6.421
  138POPC  H14B14961   6.419   1.410   6.459
  138POPC  H14C14962   6.298   1.412   6.346
  138POPC   C1514963   6.575   1.214   6.330
  138POPC  H15A14964   6.641   1.263   6.400
  138POPC  H15B14965   6.634   1.168   6.252
  138POPC  H15C14966   6.529   1.129   6.378
  138POPC   C1114967   6.300   1.320   6.069
  138POPC  H11A14968   6.254   1.257   5.990
  138POPC  H11B14969   6.364   1.393   6.015
  138POPC     P14970   6.065   1.327   6.195
  138POPC   O1314971   6.032   1.384   6.325
  138POPC   O1414972   6.080   1.177   6.179
  138POPC   O1214973   6.202   1.395   6.144
  138POPC   O1114974   5.955   1.384   6.091
  138POPC    C114975   5.975   1.453   5.965
  138POPC    HA14976   6.084   1.472   5.954
  138POPC    HB14977   5.923   1.551   5.971
  138POPC    C214978   5.909   1.389   5.838
  138POPC    HS14979   5.964   1.436   5.755
  138POPC   O2114980   5.767   1.411   5.823
  138POPC   C2114981   5.729   1.526   5.778
  138POPC   O2214982   5.803   1.623   5.755
  138POPC   C2214983   5.581   1.539   5.780
  138POPC   H2R14984   5.549   1.640   5.748
  138POPC   H2S14985   5.556   1.528   5.887
  138POPC    C314986   5.948   1.240   5.844
  138POPC    HX14987   5.894   1.188   5.926
  138POPC    HY14988   6.056   1.241   5.873
  138POPC   O3114989   5.930   1.191   5.709
  138POPC   C3114990   5.834   1.112   5.684
  138POPC   O3214991   5.758   1.067   5.770
  138POPC   C3214992   5.837   1.076   5.533
  138POPC   H2X14993   5.945   1.069   5.509
  138POPC   H2Y14994   5.794   1.161   5.476
  138POPC   C2314995   5.515   1.433   5.689
  138POPC   H3R14996   5.425   1.396   5.742
  138POPC   H3S14997   5.574   1.339   5.692
  138POPC   C2414998   5.492   1.481   5.539
  138POPC   H4R14999   5.437   1.577   5.547
  138POPC   H4S15000   5.418   1.404   5.509
  138POPC   C2515001   5.618   1.493   5.456
  138POPC   H5R15002   5.696   1.414   5.464
  138POPC   H5S15003   5.655   1.596   5.475
  138POPC   C2615004   5.572   1.513   5.303
  138POPC   H6R15005   5.490   1.589   5.308
  138POPC   H6S15006   5.530   1.418   5.266
  138POPC   C2715007   5.686   1.570   5.212
  138POPC   H7R15008   5.758   1.491   5.183
  138POPC   H7S15009   5.738   1.653   5.263
  138POPC   C2815010   5.646   1.652   5.086
  138POPC   H8R15011   5.733   1.704   5.040
  138POPC   H8S15012   5.571   1.730   5.112
  138POPC   C2915013   5.580   1.551   4.997
  138POPC   H9115014   5.486   1.509   5.034
  138POPC  C21015015   5.638   1.506   4.884
  138POPC  H10115016   5.588   1.423   4.831
  138POPC  C21115017   5.769   1.545   4.830
  138POPC  H11R15018   5.851   1.502   4.892
  138POPC  H11S15019   5.772   1.656   4.822
  138POPC  C21215020   5.814   1.494   4.689
  138POPC  H12R15021   5.820   1.383   4.701
  138POPC  H12S15022   5.919   1.519   4.665
  138POPC  C21315023   5.730   1.536   4.573
  138POPC  H13R15024   5.734   1.646   4.566
  138POPC  H13S15025   5.621   1.517   4.586
  138POPC  C21415026   5.775   1.480   4.439
  138POPC  H14R15027   5.703   1.502   4.357
  138POPC  H14S15028   5.761   1.370   4.449
  138POPC  C21515029   5.910   1.514   4.391
  138POPC  H15R15030   5.932   1.456   4.299
  138POPC  H15S15031   5.983   1.476   4.466
  138POPC  C21615032   5.924   1.667   4.370
  138POPC  H16R15033   5.926   1.712   4.471
  138POPC  H16S15034   5.836   1.697   4.309
  138POPC  C21715035   6.058   1.716   4.304
  138POPC  H17R15036   6.064   1.678   4.199
  138POPC  H17S15037   6.146   1.665   4.350
  138POPC  C21815038   6.073   1.865   4.307
  138POPC  H18R15039   6.169   1.889   4.256
  138POPC  H18S15040   6.062   1.908   4.409
  138POPC  H18T15041   5.993   1.907   4.242
  138POPC   C3315042   5.764   0.941   5.498
  138POPC   H3X15043   5.659   0.950   5.533
  138POPC   H3Y15044   5.816   0.857   5.550
  138POPC   C3415045   5.761   0.924   5.347
  138POPC   H4X15046   5.690   0.840   5.329
  138POPC   H4Y15047   5.858   0.894   5.303
  138POPC   C3515048   5.696   1.038   5.266
  138POPC   H5X15049   5.771   1.119   5.269
  138POPC   H5Y15050   5.607   1.084   5.314
  138POPC   C3615051   5.659   1.014   5.121
  138POPC   H6X15052   5.623   1.107   5.073
  138POPC   H6Y15053   5.588   0.929   5.106
  138POPC   C3715054   5.784   0.969   5.037
  138POPC   H7X15055   5.819   0.869   5.069
  138POPC   H7Y15056   5.880   1.020   5.057
  138POPC   C3815057   5.746   0.963   4.885
  138POPC   H8X15058   5.734   1.068   4.850
  138POPC   H8Y15059   5.651   0.906   4.878
  138POPC   C3915060   5.845   0.896   4.795
  138POPC   H9X15061   5.848   0.787   4.818
  138POPC   H9Y15062   5.944   0.943   4.809
  138POPC  C31015063   5.817   0.897   4.641
  138POPC  H10X15064   5.717   0.857   4.614
  138POPC  H10Y15065   5.894   0.829   4.600
  138POPC  C31115066   5.829   1.035   4.568
  138POPC  H11X15067   5.935   1.067   4.572
  138POPC  H11Y15068   5.765   1.118   4.605
  138POPC  C31215069   5.800   1.015   4.415
  138POPC  H12X15070   5.692   0.986   4.415
  138POPC  H12Y15071   5.858   0.926   4.382
  138POPC  C31315072   5.839   1.130   4.329
  138POPC  H13X15073   5.940   1.166   4.358
  138POPC  H13Y15074   5.763   1.210   4.341
  138POPC  C31415075   5.851   1.079   4.180
  138POPC  H14X15076   5.765   1.009   4.169
  138POPC  H14Y15077   5.935   1.007   4.174
  138POPC  C31515078   5.857   1.183   4.062
  138POPC  H15X15079   5.937   1.257   4.083
  138POPC  H15Y15080   5.759   1.236   4.068
  138POPC  C31615081   5.868   1.121   3.927
  138POPC  H16X15082   5.973   1.087   3.910
  138POPC  H16Y15083   5.846   1.199   3.851
  138POPC  H16Z15084   5.800   1.033   3.918
  139POPC     N15085   3.851   3.333   2.163
  139POPC   C1215086   3.900   3.476   2.157
  139POPC  H12A15087   3.867   3.515   2.062
  139POPC  H12B15088   4.007   3.473   2.147
  139POPC   C1315089   3.705   3.328   2.194
  139POPC  H13A15090   3.661   3.230   2.205
  139POPC  H13B15091   3.690   3.374   2.290
  139POPC  H13C15092   3.642   3.391   2.132
  139POPC   C1415093   3.883   3.258   2.037
  139POPC  H14A15094   3.828   3.166   2.029
  139POPC  H14B15095   3.840   3.316   1.957
  139POPC  H14C15096   3.988   3.256   2.011
  139POPC   C1515097   3.924   3.258   2.267
  139POPC  H15A15098   3.915   3.151   2.261
  139POPC  H15B15099   3.920   3.301   2.366
  139POPC  H15C15100   4.027   3.263   2.235
  139POPC   C1115101   3.859   3.578   2.272
  139POPC  H11A15102   3.912   3.673   2.251
  139POPC  H11B15103   3.892   3.540   2.371
  139POPC     P15104   3.631   3.679   2.174
  139POPC   O1315105   3.520   3.604   2.103
  139POPC   O1415106   3.725   3.760   2.095
  139POPC   O1215107   3.716   3.589   2.269
  139POPC   O1115108   3.562   3.776   2.280
  139POPC    C115109   3.647   3.832   2.386
  139POPC    HA15110   3.676   3.936   2.360
  139POPC    HB15111   3.738   3.772   2.404
  139POPC    C215112   3.560   3.843   2.515
  139POPC    HS15113   3.469   3.896   2.480
  139POPC   O2115114   3.631   3.933   2.604
  139POPC   C2115115   3.550   3.979   2.692
  139POPC   O2215116   3.428   3.964   2.678
  139POPC   C2215117   3.622   4.059   2.805
  139POPC   H2R15118   3.695   4.128   2.758
  139POPC   H2S15119   3.674   3.998   2.881
  139POPC    C315120   3.511   3.705   2.570
  139POPC    HX15121   3.439   3.661   2.498
  139POPC    HY15122   3.445   3.715   2.659
  139POPC   O3115123   3.624   3.621   2.608
  139POPC   C3115124   3.617   3.494   2.574
  139POPC   O3215125   3.518   3.432   2.531
  139POPC   C3215126   3.749   3.420   2.612
  139POPC   H2X15127   3.824   3.470   2.546
  139POPC   H2Y15128   3.742   3.311   2.593
  139POPC   C2315129   3.526   4.135   2.905
  139POPC   H3R15130   3.458   4.213   2.864
  139POPC   H3S15131   3.588   4.201   2.969
  139POPC   C2415132   3.459   4.034   2.998
  139POPC   H4R15133   3.526   3.971   3.061
  139POPC   H4S15134   3.407   3.956   2.938
  139POPC   C2515135   3.352   4.107   3.089
  139POPC   H5R15136   3.290   4.027   3.134
  139POPC   H5S15137   3.281   4.174   3.036
  139POPC   C2615138   3.418   4.194   3.200
  139POPC   H6R15139   3.491   4.272   3.168
  139POPC   H6S15140   3.471   4.123   3.267
  139POPC   C2715141   3.305   4.265   3.275
  139POPC   H7R15142   3.259   4.335   3.203
  139POPC   H7S15143   3.343   4.314   3.367
  139POPC   C2815144   3.185   4.178   3.309
  139POPC   H8R15145   3.218   4.098   3.379
  139POPC   H8S15146   3.140   4.138   3.216
  139POPC   C2915147   3.073   4.253   3.380
  139POPC   H9115148   3.041   4.350   3.338
  139POPC  C21015149   3.006   4.224   3.497
  139POPC  H10115150   2.906   4.268   3.513
  139POPC  C21115151   3.028   4.104   3.593
  139POPC  H11R15152   3.137   4.086   3.586
  139POPC  H11S15153   2.986   4.008   3.555
  139POPC  C21215154   2.962   4.105   3.732
  139POPC  H12R15155   2.992   4.016   3.792
  139POPC  H12S15156   2.852   4.092   3.722
  139POPC  C21315157   2.989   4.236   3.805
  139POPC  H13R15158   2.944   4.326   3.759
  139POPC  H13S15159   3.097   4.261   3.809
  139POPC  C21415160   2.934   4.236   3.956
  139POPC  H14R15161   3.011   4.203   4.029
  139POPC  H14S15162   2.854   4.160   3.968
  139POPC  C21515163   2.885   4.379   3.998
  139POPC  H15R15164   2.949   4.457   3.951
  139POPC  H15S15165   2.896   4.387   4.108
  139POPC  C21615166   2.735   4.401   3.957
  139POPC  H16R15167   2.683   4.317   4.007
  139POPC  H16S15168   2.714   4.392   3.848
  139POPC  C21715169   2.671   4.528   4.012
  139POPC  H17R15170   2.732   4.617   3.985
  139POPC  H17S15171   2.666   4.521   4.123
  139POPC  C21815172   2.531   4.549   3.965
  139POPC  H18R15173   2.535   4.520   3.857
  139POPC  H18S15174   2.496   4.654   3.972
  139POPC  H18T15175   2.465   4.477   4.017
  139POPC   C3315176   3.787   3.455   2.763
  139POPC   H3X15177   3.773   3.564   2.780
  139POPC   H3Y15178   3.896   3.435   2.769
  139POPC   C3415179   3.695   3.376   2.862
  139POPC   H4X15180   3.717   3.269   2.843
  139POPC   H4Y15181   3.589   3.390   2.832
  139POPC   C3515182   3.712   3.411   3.008
  139POPC   H5X15183   3.681   3.517   3.022
  139POPC   H5Y15184   3.817   3.396   3.041
  139POPC   C3615185   3.624   3.320   3.101
  139POPC   H6X15186   3.631   3.211   3.077
  139POPC   H6Y15187   3.518   3.342   3.076
  139POPC   C3715188   3.646   3.357   3.245
  139POPC   H7X15189   3.656   3.468   3.256
  139POPC   H7Y15190   3.741   3.308   3.275
  139POPC   C3815191   3.524   3.312   3.332
  139POPC   H8X15192   3.523   3.201   3.334
  139POPC   H8Y15193   3.429   3.340   3.282
  139POPC   C3915194   3.519   3.357   3.482
  139POPC   H9X15195   3.439   3.304   3.539
  139POPC   H9Y15196   3.495   3.465   3.490
  139POPC  C31015197   3.658   3.322   3.544
  139POPC  H10X15198   3.735   3.366   3.477
  139POPC  H10Y15199   3.674   3.213   3.530
  139POPC  C31115200   3.670   3.357   3.698
  139POPC  H11X15201   3.577   3.314   3.740
  139POPC  H11Y15202   3.673   3.466   3.718
  139POPC  C31215203   3.803   3.308   3.751
  139POPC  H12X15204   3.824   3.375   3.837
  139POPC  H12Y15205   3.884   3.332   3.678
  139POPC  C31315206   3.796   3.162   3.800
  139POPC  H13X15207   3.902   3.131   3.815
  139POPC  H13Y15208   3.747   3.101   3.721
  139POPC  C31415209   3.724   3.161   3.939
  139POPC  H14X15210   3.614   3.168   3.927
  139POPC  H14Y15211   3.754   3.253   3.994
  139POPC  C31515212   3.743   3.024   4.009
  139POPC  H15X15213   3.743   2.938   3.938
  139POPC  H15Y15214   3.656   3.015   4.077
  139POPC  C31615215   3.873   3.015   4.089
  139POPC  H16X15216   3.883   2.915   4.136
  139POPC  H16Y15217   3.872   3.082   4.178
  139POPC  H16Z15218   3.961   3.047   4.029
  140POPC     N15219   1.488   5.487   1.721
  140POPC   C1215220   1.595   5.469   1.823
  140POPC  H12A15221   1.682   5.501   1.767
  140POPC  H12B15222   1.608   5.369   1.860
  140POPC   C1315223   1.481   5.629   1.693
  140POPC  H13A15224   1.488   5.683   1.786
  140POPC  H13B15225   1.568   5.659   1.636
  140POPC  H13C15226   1.390   5.668   1.649
  140POPC   C1415227   1.526   5.410   1.601
  140POPC  H14A15228   1.535   5.303   1.614
  140POPC  H14B15229   1.452   5.416   1.522
  140POPC  H14C15230   1.617   5.450   1.558
  140POPC   C1515231   1.352   5.451   1.773
  140POPC  H15A15232   1.345   5.345   1.791
  140POPC  H15B15233   1.277   5.475   1.699
  140POPC  H15C15234   1.344   5.510   1.863
  140POPC   C1115235   1.597   5.563   1.945
  140POPC  H11A15236   1.616   5.669   1.918
  140POPC  H11B15237   1.684   5.534   2.008
  140POPC     P15238   1.413   5.684   2.077
  140POPC   O1315239   1.286   5.650   2.143
  140POPC   O1415240   1.412   5.792   1.975
  140POPC   O1215241   1.479   5.555   2.021
  140POPC   O1115242   1.518   5.733   2.190
  140POPC    C115243   1.580   5.642   2.286
  140POPC    HA15244   1.690   5.634   2.274
  140POPC    HB15245   1.547   5.537   2.268
  140POPC    C215246   1.532   5.672   2.427
  140POPC    HS15247   1.603   5.616   2.491
  140POPC   O2115248   1.397   5.634   2.449
  140POPC   C2115249   1.387   5.506   2.458
  140POPC   O2215250   1.477   5.428   2.479
  140POPC   C2215251   1.239   5.465   2.442
  140POPC   H2R15252   1.239   5.358   2.470
  140POPC   H2S15253   1.214   5.480   2.335
  140POPC    C315254   1.557   5.818   2.460
  140POPC    HX15255   1.482   5.871   2.397
  140POPC    HY15256   1.650   5.869   2.428
  140POPC   O3115257   1.551   5.842   2.602
  140POPC   C3115258   1.539   5.972   2.629
  140POPC   O3215259   1.563   6.063   2.549
  140POPC   C3215260   1.493   5.986   2.768
  140POPC   H2X15261   1.573   5.981   2.845
  140POPC   H2Y15262   1.418   5.905   2.780
  140POPC   C2315263   1.138   5.539   2.528
  140POPC   H3R15264   1.057   5.463   2.519
  140POPC   H3S15265   1.107   5.636   2.485
  140POPC   C2415266   1.167   5.542   2.683
  140POPC   H4R15267   1.232   5.453   2.701
  140POPC   H4S15268   1.071   5.511   2.730
  140POPC   C2515269   1.232   5.671   2.737
  140POPC   H5R15270   1.163   5.756   2.718
  140POPC   H5S15271   1.326   5.692   2.682
  140POPC   C2615272   1.273   5.667   2.885
  140POPC   H6R15273   1.181   5.631   2.937
  140POPC   H6S15274   1.287   5.770   2.925
  140POPC   C2715275   1.396   5.577   2.922
  140POPC   H7R15276   1.484   5.622   2.870
  140POPC   H7S15277   1.376   5.481   2.870
  140POPC   C2815278   1.428   5.566   3.071
  140POPC   H8R15279   1.493   5.479   3.091
  140POPC   H8S15280   1.335   5.538   3.125
  140POPC   C2915281   1.476   5.691   3.143
  140POPC   H9115282   1.570   5.735   3.104
  140POPC  C21015283   1.423   5.742   3.256
  140POPC  H10115284   1.454   5.836   3.305
  140POPC  C21115285   1.308   5.678   3.335
  140POPC  H11R15286   1.216   5.677   3.272
  140POPC  H11S15287   1.283   5.751   3.414
  140POPC  C21215288   1.347   5.544   3.407
  140POPC  H12R15289   1.378   5.467   3.334
  140POPC  H12S15290   1.264   5.505   3.469
  140POPC  C21315291   1.465   5.563   3.501
  140POPC  H13R15292   1.446   5.661   3.551
  140POPC  H13S15293   1.560   5.572   3.444
  140POPC  C21415294   1.484   5.453   3.606
  140POPC  H14R15295   1.525   5.357   3.566
  140POPC  H14S15296   1.385   5.428   3.648
  140POPC  C21515297   1.569   5.513   3.718
  140POPC  H15R15298   1.533   5.470   3.814
  140POPC  H15S15299   1.549   5.622   3.714
  140POPC  C21615300   1.716   5.488   3.689
  140POPC  H16R15301   1.751   5.540   3.598
  140POPC  H16S15302   1.726   5.378   3.674
  140POPC  C21715303   1.817   5.527   3.800
  140POPC  H17R15304   1.914   5.477   3.779
  140POPC  H17S15305   1.789   5.473   3.893
  140POPC  C21815306   1.825   5.671   3.812
  140POPC  H18R15307   1.920   5.702   3.861
  140POPC  H18S15308   1.740   5.715   3.868
  140POPC  H18T15309   1.819   5.724   3.714
  140POPC   C3315310   1.424   6.118   2.810
  140POPC   H3X15311   1.402   6.174   2.716
  140POPC   H3Y15312   1.492   6.182   2.870
  140POPC   C3415313   1.299   6.098   2.898
  140POPC   H4X15314   1.329   6.050   2.993
  140POPC   H4Y15315   1.223   6.036   2.845
  140POPC   C3515316   1.215   6.219   2.937
  140POPC   H5X15317   1.191   6.273   2.843
  140POPC   H5Y15318   1.283   6.300   2.972
  140POPC   C3615319   1.101   6.193   3.030
  140POPC   H6X15320   1.024   6.128   2.983
  140POPC   H6Y15321   1.061   6.294   3.049
  140POPC   C3715322   1.149   6.136   3.162
  140POPC   H7X15323   1.235   6.198   3.197
  140POPC   H7Y15324   1.185   6.031   3.151
  140POPC   C3815325   1.044   6.129   3.280
  140POPC   H8X15326   0.953   6.086   3.233
  140POPC   H8Y15327   1.012   6.231   3.310
  140POPC   C3915328   1.098   6.050   3.389
  140POPC   H9X15329   1.199   6.083   3.420
  140POPC   H9Y15330   1.094   5.944   3.354
  140POPC  C31015331   1.007   6.075   3.510
  140POPC  H10X15332   0.908   6.030   3.488
  140POPC  H10Y15333   0.994   6.181   3.542
  140POPC  C31115334   1.055   5.990   3.630
  140POPC  H11X15335   1.160   6.015   3.657
  140POPC  H11Y15336   1.067   5.887   3.589
  140POPC  C31215337   0.961   5.975   3.752
  140POPC  H12X15338   0.885   5.895   3.747
  140POPC  H12Y15339   0.928   6.077   3.781
  140POPC  C31315340   1.050   5.936   3.869
  140POPC  H13X15341   1.139   6.001   3.878
  140POPC  H13Y15342   1.088   5.832   3.857
  140POPC  C31415343   0.979   5.944   4.009
  140POPC  H14X15344   0.894   5.875   4.025
  140POPC  H14Y15345   0.962   6.051   4.034
  140POPC  C31515346   1.081   5.909   4.117
  140POPC  H15X15347   1.172   5.968   4.094
  140POPC  H15Y15348   1.111   5.803   4.102
  140POPC  C31615349   1.029   5.930   4.260
  140POPC  H16X15350   1.097   5.899   4.342
  140POPC  H16Y15351   0.939   5.865   4.270
  140POPC  H16Z15352   0.995   6.036   4.266
  141SAPS     N15353   4.117   3.304   6.448
  141SAPS   HN115354   4.058   3.390   6.443
  141SAPS   HN215355   4.067   3.224   6.406
  141SAPS   HN315356   4.133   3.284   6.548
  141SAPS   C1215357   4.245   3.328   6.368
  141SAPS  H12A15358   4.220   3.339   6.264
  141SAPS   C1315359   4.313   3.463   6.405
  141SAPS  O13A15360   4.253   3.550   6.479
  141SAPS  O13B15361   4.396   3.498   6.326
  141SAPS   C1115362   4.340   3.204   6.393
  141SAPS  H11A15363   4.351   3.194   6.503
  141SAPS  H11B15364   4.438   3.219   6.343
  141SAPS     P15365   4.235   3.020   6.215
  141SAPS   O1315366   4.222   2.872   6.232
  141SAPS   O1415367   4.119   3.099   6.174
  141SAPS   O1215368   4.282   3.083   6.352
  141SAPS   O1115369   4.357   3.051   6.121
  141SAPS    C115370   4.483   2.992   6.149
  141SAPS    HA15371   4.558   3.069   6.177
  141SAPS    HB15372   4.480   2.917   6.231
  141SAPS    C215373   4.558   2.934   6.020
  141SAPS    HS15374   4.662   2.919   6.055
  141SAPS   O2115375   4.545   3.025   5.904
  141SAPS   C2115376   4.637   3.118   5.908
  141SAPS   O2215377   4.720   3.135   5.994
  141SAPS   C2215378   4.628   3.200   5.775
  141SAPS   H2R15379   4.678   3.137   5.698
  141SAPS   H2S15380   4.522   3.230   5.758
  141SAPS    C315381   4.496   2.797   5.985
  141SAPS    HX15382   4.402   2.811   5.926
  141SAPS    HY15383   4.470   2.741   6.078
  141SAPS   O3115384   4.585   2.724   5.903
  141SAPS   C3115385   4.551   2.591   5.881
  141SAPS   O3215386   4.458   2.531   5.936
  141SAPS   C3215387   4.661   2.520   5.806
  141SAPS   H2X15388   4.656   2.410   5.821
  141SAPS   H2Y15389   4.758   2.556   5.848
  141SAPS   C2315390   4.712   3.329   5.783
  141SAPS   H3R15391   4.820   3.306   5.788
  141SAPS   H3S15392   4.680   3.384   5.875
  141SAPS   C2415393   4.698   3.433   5.664
  141SAPS   H4R15394   4.744   3.528   5.700
  141SAPS   H4S15395   4.588   3.450   5.655
  141SAPS   C2515396   4.760   3.383   5.529
  141SAPS   H5R15397   4.862   3.345   5.544
  141SAPS   C2615398   4.701   3.348   5.407
  141SAPS   H6R15399   4.751   3.329   5.312
  141SAPS   C2715400   4.553   3.363   5.385
  141SAPS   H7R15401   4.531   3.471   5.365
  141SAPS   H7S15402   4.500   3.347   5.481
  141SAPS   C2815403   4.498   3.276   5.272
  141SAPS   H8R15404   4.497   3.173   5.310
  141SAPS   C2915405   4.474   3.316   5.145
  141SAPS   H9R15406   4.439   3.239   5.075
  141SAPS  C21015407   4.498   3.446   5.089
  141SAPS  H10R15408   4.547   3.506   5.168
  141SAPS  H10S15409   4.405   3.503   5.070
  141SAPS  C21115410   4.608   3.442   4.985
  141SAPS  H11R15411   4.707   3.432   5.032
  141SAPS  C21215412   4.591   3.446   4.851
  141SAPS  H12R15413   4.674   3.452   4.779
  141SAPS  C21315414   4.456   3.469   4.782
  141SAPS  H13R15415   4.458   3.568   4.731
  141SAPS  H13S15416   4.375   3.476   4.857
  141SAPS  C21415417   4.433   3.359   4.679
  141SAPS  H14R15418   4.366   3.274   4.699
  141SAPS  C21515419   4.485   3.351   4.557
  141SAPS  H15R15420   4.443   3.279   4.485
  141SAPS  C21615421   4.582   3.446   4.495
  141SAPS  H16R15422   4.611   3.532   4.560
  141SAPS  H16S15423   4.534   3.490   4.406
  141SAPS  C21715424   4.715   3.365   4.467
  141SAPS  H17R15425   4.738   3.298   4.552
  141SAPS  H17S15426   4.797   3.438   4.449
  141SAPS  C21815427   4.710   3.279   4.341
  141SAPS  H18R15428   4.653   3.337   4.265
  141SAPS  H18S15429   4.658   3.186   4.374
  141SAPS  C21915430   4.847   3.235   4.281
  141SAPS  H19R15431   4.899   3.323   4.239
  141SAPS  H19S15432   4.824   3.190   4.182
  141SAPS  C22015433   4.923   3.138   4.356
  141SAPS  H20R15434   4.853   3.057   4.385
  141SAPS  H20S15435   4.960   3.181   4.451
  141SAPS  H20T15436   5.004   3.093   4.294
  141SAPS   C3315437   4.654   2.557   5.660
  141SAPS   H3X15438   4.744   2.615   5.633
  141SAPS   H3Y15439   4.565   2.621   5.638
  141SAPS   C3415440   4.656   2.429   5.572
  141SAPS   H4X15441   4.563   2.370   5.591
  141SAPS   H4Y15442   4.756   2.383   5.583
  141SAPS   C3515443   4.652   2.478   5.429
  141SAPS   H5X15444   4.744   2.524   5.387
  141SAPS   H5Y15445   4.560   2.541   5.428
  141SAPS   C3615446   4.642   2.352   5.345
  141SAPS   H6X15447   4.546   2.300   5.368
  141SAPS   H6Y15448   4.721   2.286   5.388
  141SAPS   C3715449   4.675   2.386   5.203
  141SAPS   H7X15450   4.783   2.411   5.191
  141SAPS   H7Y15451   4.624   2.476   5.163
  141SAPS   C3815452   4.643   2.267   5.104
  141SAPS   H8X15453   4.562   2.290   5.031
  141SAPS   H8Y15454   4.619   2.170   5.152
  141SAPS   C3915455   4.766   2.229   5.027
  141SAPS   H9X15456   4.752   2.128   4.982
  141SAPS   H9Y15457   4.859   2.223   5.088
  141SAPS  C31015458   4.786   2.314   4.898
  141SAPS  H10X15459   4.703   2.288   4.830
  141SAPS  H10Y15460   4.877   2.275   4.847
  141SAPS  C31115461   4.802   2.470   4.910
  141SAPS  H11X15462   4.895   2.490   4.967
  141SAPS  H11Y15463   4.725   2.524   4.969
  141SAPS  C31215464   4.821   2.541   4.774
  141SAPS  H12X15465   4.891   2.476   4.716
  141SAPS  H12Y15466   4.877   2.635   4.790
  141SAPS  C31315467   4.691   2.562   4.693
  141SAPS  H13X15468   4.617   2.618   4.754
  141SAPS  H13Y15469   4.643   2.465   4.664
  141SAPS  C31415470   4.712   2.647   4.567
  141SAPS  H14X15471   4.749   2.744   4.607
  141SAPS  H14Y15472   4.613   2.671   4.522
  141SAPS  C31515473   4.809   2.593   4.458
  141SAPS  H15X15474   4.768   2.493   4.431
  141SAPS  H15Y15475   4.914   2.583   4.490
  141SAPS  C31615476   4.808   2.681   4.335
  141SAPS  H16X15477   4.830   2.786   4.364
  141SAPS  H16Y15478   4.704   2.675   4.297
  141SAPS  C31715479   4.914   2.642   4.234
  141SAPS  H17X15480   4.906   2.533   4.212
  141SAPS  H17Y15481   5.008   2.633   4.293
  141SAPS  C31815482   4.916   2.718   4.098
  141SAPS  H18X15483   4.965   2.673   4.009
  141SAPS  H18Y15484   4.964   2.817   4.112
  141SAPS  H18Z15485   4.811   2.742   4.070
  142SAPS     N15486   2.739   1.989   6.397
  142SAPS   HN115487   2.771   1.914   6.331
  142SAPS   HN215488   2.641   1.961   6.415
  142SAPS   HN315489   2.739   2.080   6.347
  142SAPS   C1215490   2.822   2.007   6.527
  142SAPS  H12A15491   2.759   2.062   6.595
  142SAPS   C1315492   2.864   1.870   6.594
  142SAPS  O13A15493   2.857   1.763   6.523
  142SAPS  O13B15494   2.907   1.867   6.709
  142SAPS   C1115495   2.956   2.080   6.492
  142SAPS  H11A15496   3.020   2.012   6.433
  142SAPS  H11B15497   2.997   2.112   6.590
  142SAPS     P15498   3.046   2.291   6.364
  142SAPS   O1315499   3.001   2.403   6.287
  142SAPS   O1415500   3.139   2.336   6.475
  142SAPS   O1215501   2.932   2.201   6.421
  142SAPS   O1115502   3.126   2.194   6.268
  142SAPS    C115503   3.054   2.090   6.196
  142SAPS    HA15504   3.093   1.992   6.232
  142SAPS    HB15505   2.946   2.088   6.217
  142SAPS    C215506   3.074   2.109   6.043
  142SAPS    HS15507   3.009   2.031   5.996
  142SAPS   O2115508   3.212   2.100   6.016
  142SAPS   C2115509   3.253   2.011   5.924
  142SAPS   O2215510   3.172   1.948   5.857
  142SAPS   C2215511   3.399   2.009   5.916
  142SAPS   H2R15512   3.441   2.037   6.015
  142SAPS   H2S15513   3.439   1.906   5.906
  142SAPS    C315514   3.019   2.250   5.990
  142SAPS    HX15515   3.066   2.339   6.039
  142SAPS    HY15516   2.914   2.258   6.025
  142SAPS   O3115517   3.020   2.256   5.845
  142SAPS   C3115518   3.123   2.316   5.797
  142SAPS   O3215519   3.219   2.348   5.860
  142SAPS   C3215520   3.104   2.329   5.645
  142SAPS   H2X15521   3.002   2.361   5.616
  142SAPS   H2Y15522   3.129   2.230   5.600
  142SAPS   C2315523   3.457   2.095   5.804
  142SAPS   H3R15524   3.562   2.086   5.838
  142SAPS   H3S15525   3.448   2.206   5.810
  142SAPS   C2415526   3.444   2.030   5.665
  142SAPS   H4R15527   3.495   2.093   5.589
  142SAPS   H4S15528   3.333   2.039   5.655
  142SAPS   C2515529   3.487   1.887   5.641
  142SAPS   H5R15530   3.567   1.850   5.705
  142SAPS   C2615531   3.427   1.810   5.551
  142SAPS   H6R15532   3.466   1.708   5.540
  142SAPS   C2715533   3.317   1.862   5.456
  142SAPS   H7R15534   3.339   1.821   5.355
  142SAPS   H7S15535   3.319   1.971   5.438
  142SAPS   C2815536   3.175   1.830   5.499
  142SAPS   H8R15537   3.178   1.819   5.609
  142SAPS   C2915538   3.057   1.827   5.430
  142SAPS   H9R15539   2.967   1.817   5.492
  142SAPS  C21015540   3.033   1.862   5.287
  142SAPS  H10R15541   2.980   1.773   5.246
  142SAPS  H10S15542   3.134   1.878   5.242
  142SAPS  C21115543   2.956   1.995   5.261
  142SAPS  H11R15544   2.958   2.070   5.341
  142SAPS  C21215545   2.899   2.039   5.147
  142SAPS  H12R15546   2.855   2.140   5.141
  142SAPS  C21315547   2.887   1.957   5.020
  142SAPS  H13R15548   2.891   1.849   5.047
  142SAPS  H13S15549   2.981   1.982   4.967
  142SAPS  C21415550   2.770   1.983   4.932
  142SAPS  H14R15551   2.688   1.912   4.953
  142SAPS  C21515552   2.761   2.072   4.837
  142SAPS  H15R15553   2.681   2.065   4.761
  142SAPS  C21615554   2.869   2.166   4.792
  142SAPS  H16R15555   2.964   2.110   4.790
  142SAPS  H16S15556   2.883   2.242   4.872
  142SAPS  C21715557   2.843   2.226   4.654
  142SAPS  H17R15558   2.834   2.149   4.575
  142SAPS  H17S15559   2.941   2.259   4.612
  142SAPS  C21815560   2.721   2.319   4.634
  142SAPS  H18R15561   2.760   2.422   4.653
  142SAPS  H18S15562   2.649   2.284   4.711
  142SAPS  C21915563   2.664   2.323   4.489
  142SAPS  H19R15564   2.588   2.242   4.481
  142SAPS  H19S15565   2.750   2.295   4.426
  142SAPS  C22015566   2.597   2.454   4.449
  142SAPS  H20R15567   2.513   2.483   4.515
  142SAPS  H20S15568   2.561   2.443   4.345
  142SAPS  H20T15569   2.675   2.533   4.440
  142SAPS   C3315570   3.215   2.419   5.581
  142SAPS   H3X15571   3.314   2.379   5.614
  142SAPS   H3Y15572   3.209   2.525   5.615
  142SAPS   C3415573   3.208   2.443   5.424
  142SAPS   H4X15574   3.305   2.486   5.390
  142SAPS   H4Y15575   3.116   2.505   5.417
  142SAPS   C3515576   3.206   2.308   5.349
  142SAPS   H5X15577   3.104   2.264   5.352
  142SAPS   H5Y15578   3.274   2.237   5.401
  142SAPS   C3615579   3.228   2.329   5.198
  142SAPS   H6X15580   3.323   2.384   5.179
  142SAPS   H6Y15581   3.142   2.385   5.155
  142SAPS   C3715582   3.245   2.192   5.131
  142SAPS   H7X15583   3.151   2.132   5.126
  142SAPS   H7Y15584   3.322   2.135   5.186
  142SAPS   C3815585   3.296   2.203   4.981
  142SAPS   H8X15586   3.270   2.108   4.930
  142SAPS   H8Y15587   3.407   2.211   4.984
  142SAPS   C3915588   3.248   2.318   4.892
  142SAPS   H9X15589   3.291   2.415   4.923
  142SAPS   H9Y15590   3.143   2.347   4.915
  142SAPS  C31015591   3.276   2.309   4.741
  142SAPS  H10X15592   3.237   2.399   4.687
  142SAPS  H10Y15593   3.222   2.220   4.702
  142SAPS  C31115594   3.429   2.303   4.704
  142SAPS  H11X15595   3.474   2.212   4.749
  142SAPS  H11Y15596   3.490   2.389   4.740
  142SAPS  C31215597   3.454   2.286   4.558
  142SAPS  H12X15598   3.401   2.194   4.528
  142SAPS  H12Y15599   3.564   2.277   4.546
  142SAPS  C31315600   3.413   2.398   4.459
  142SAPS  H13X15601   3.485   2.483   4.460
  142SAPS  H13Y15602   3.310   2.436   4.480
  142SAPS  C31415603   3.411   2.348   4.311
  142SAPS  H14X15604   3.471   2.255   4.309
  142SAPS  H14Y15605   3.451   2.428   4.246
  142SAPS  C31515606   3.271   2.320   4.251
  142SAPS  H15X15607   3.209   2.265   4.325
  142SAPS  H15Y15608   3.280   2.249   4.166
  142SAPS  C31615609   3.202   2.441   4.197
  142SAPS  H16X15610   3.266   2.469   4.110
  142SAPS  H16Y15611   3.196   2.522   4.273
  142SAPS  C31715612   3.070   2.414   4.121
  142SAPS  H17X15613   3.085   2.342   4.038
  142SAPS  H17Y15614   3.033   2.508   4.074
  142SAPS  C31815615   2.952   2.361   4.212
  142SAPS  H18X15616   2.991   2.281   4.277
  142SAPS  H18Y15617   2.874   2.323   4.141
  142SAPS  H18Z15618   2.906   2.436   4.279
  143SAPS     N15619   3.290   5.044   6.470
  143SAPS   HN115620   3.223   4.971   6.502
  143SAPS   HN215621   3.290   5.044   6.366
  143SAPS   HN315622   3.376   5.011   6.518
  143SAPS   C1215623   3.251   5.172   6.532
  143SAPS  H12A15624   3.152   5.202   6.499
  143SAPS   C1315625   3.248   5.165   6.684
  143SAPS  O13A15626   3.295   5.063   6.740
  143SAPS  O13B15627   3.225   5.273   6.757
  143SAPS   C1115628   3.340   5.293   6.479
  143SAPS  H11A15629   3.446   5.278   6.507
  143SAPS  H11B15630   3.306   5.389   6.524
  143SAPS     P15631   3.422   5.398   6.249
  143SAPS   O1315632   3.562   5.363   6.278
  143SAPS   O1415633   3.384   5.384   6.109
  143SAPS   O1215634   3.333   5.305   6.337
  143SAPS   O1115635   3.380   5.539   6.314
  143SAPS    C115636   3.261   5.607   6.298
  143SAPS    HA15637   3.251   5.680   6.381
  143SAPS    HB15638   3.271   5.671   6.208
  143SAPS    C215639   3.136   5.521   6.300
  143SAPS    HS15640   3.153   5.452   6.386
  143SAPS   O2115641   3.124   5.444   6.177
  143SAPS   C2115642   3.064   5.322   6.195
  143SAPS   O2215643   3.000   5.288   6.295
  143SAPS   C2215644   3.080   5.232   6.083
  143SAPS   H2R15645   3.179   5.242   6.034
  143SAPS   H2S15646   3.069   5.128   6.119
  143SAPS    C315647   3.005   5.597   6.328
  143SAPS    HX15648   3.014   5.658   6.420
  143SAPS    HY15649   2.919   5.529   6.347
  143SAPS   O3115650   2.971   5.678   6.215
  143SAPS   C3115651   2.861   5.657   6.142
  143SAPS   O3215652   2.769   5.583   6.168
  143SAPS   C3215653   2.877   5.748   6.017
  143SAPS   H2X15654   2.981   5.739   5.980
  143SAPS   H2Y15655   2.870   5.849   6.065
  143SAPS   C2315656   2.984   5.274   5.970
  143SAPS   H3R15657   2.987   5.384   5.953
  143SAPS   H3S15658   2.888   5.241   6.014
  143SAPS   C2415659   3.009   5.195   5.840
  143SAPS   H4R15660   3.006   5.086   5.860
  143SAPS   H4S15661   3.106   5.233   5.803
  143SAPS   C2515662   2.910   5.222   5.735
  143SAPS   H5R15663   2.807   5.214   5.772
  143SAPS   C2615664   2.936   5.271   5.611
  143SAPS   H6R15665   2.848   5.289   5.547
  143SAPS   C2715666   3.067   5.306   5.545
  143SAPS   H7R15667   3.058   5.294   5.435
  143SAPS   H7S15668   3.142   5.232   5.579
  143SAPS   C2815669   3.123   5.446   5.574
  143SAPS   H8R15670   3.131   5.473   5.680
  143SAPS   C2915671   3.186   5.522   5.483
  143SAPS   H9R15672   3.212   5.624   5.517
  143SAPS  C21015673   3.225   5.495   5.343
  143SAPS  H10R15674   3.259   5.389   5.348
  143SAPS  H10S15675   3.318   5.547   5.312
  143SAPS  C21115676   3.125   5.516   5.235
  143SAPS  H11R15677   3.018   5.513   5.262
  143SAPS  C21215678   3.150   5.517   5.102
  143SAPS  H12R15679   3.060   5.534   5.041
  143SAPS  C21315680   3.280   5.483   5.036
  143SAPS  H13R15681   3.309   5.376   5.041
  143SAPS  H13S15682   3.367   5.532   5.086
  143SAPS  C21415683   3.271   5.541   4.895
  143SAPS  H14R15684   3.298   5.647   4.883
  143SAPS  C21515685   3.243   5.481   4.781
  143SAPS  H15R15686   3.235   5.545   4.691
  143SAPS  C21615687   3.193   5.344   4.767
  143SAPS  H16R15688   3.211   5.288   4.861
  143SAPS  H16S15689   3.255   5.285   4.696
  143SAPS  C21715690   3.045   5.326   4.744
  143SAPS  H17R15691   2.981   5.385   4.813
  143SAPS  H17S15692   3.023   5.217   4.756
  143SAPS  C21815693   3.005   5.358   4.598
  143SAPS  H18R15694   3.055   5.453   4.569
  143SAPS  H18S15695   2.895   5.370   4.610
  143SAPS  C21915696   3.032   5.240   4.496
  143SAPS  H19R15697   3.005   5.144   4.546
  143SAPS  H19S15698   3.138   5.226   4.467
  143SAPS  C22015699   2.961   5.262   4.370
  143SAPS  H20R15700   2.855   5.244   4.397
  143SAPS  H20S15701   2.989   5.191   4.289
  143SAPS  H20T15702   2.976   5.364   4.329
  143SAPS   C3315703   2.774   5.736   5.900
  143SAPS   H3X15704   2.796   5.822   5.833
  143SAPS   H3Y15705   2.672   5.762   5.935
  143SAPS   C3415706   2.782   5.607   5.816
  143SAPS   H4X15707   2.737   5.525   5.876
  143SAPS   H4Y15708   2.888   5.578   5.800
  143SAPS   C3515709   2.705   5.607   5.684
  143SAPS   H5X15710   2.604   5.652   5.688
  143SAPS   H5Y15711   2.684   5.503   5.652
  143SAPS   C3615712   2.770   5.698   5.575
  143SAPS   H6X15713   2.874   5.662   5.556
  143SAPS   H6Y15714   2.778   5.803   5.609
  143SAPS   C3715715   2.677   5.702   5.453
  143SAPS   H7X15716   2.596   5.777   5.463
  143SAPS   H7Y15717   2.645   5.597   5.440
  143SAPS   C3815718   2.761   5.754   5.331
  143SAPS   H8X15719   2.859   5.702   5.326
  143SAPS   H8Y15720   2.789   5.860   5.347
  143SAPS   C3915721   2.673   5.751   5.201
  143SAPS   H9X15722   2.584   5.817   5.204
  143SAPS   H9Y15723   2.633   5.648   5.200
  143SAPS  C31015724   2.758   5.769   5.078
  143SAPS  H10X15725   2.852   5.709   5.083
  143SAPS  H10Y15726   2.782   5.878   5.068
  143SAPS  C31115727   2.694   5.716   4.951
  143SAPS  H11X15728   2.592   5.760   4.941
  143SAPS  H11Y15729   2.665   5.609   4.961
  143SAPS  C31215730   2.787   5.735   4.836
  143SAPS  H12X15731   2.884   5.681   4.840
  143SAPS  H12Y15732   2.809   5.842   4.820
  143SAPS  C31315733   2.725   5.684   4.696
  143SAPS  H13X15734   2.634   5.746   4.675
  143SAPS  H13Y15735   2.690   5.579   4.704
  143SAPS  C31415736   2.816   5.712   4.579
  143SAPS  H14X15737   2.909   5.655   4.602
  143SAPS  H14Y15738   2.843   5.820   4.577
  143SAPS  C31515739   2.751   5.682   4.443
  143SAPS  H15X15740   2.670   5.758   4.436
  143SAPS  H15Y15741   2.702   5.582   4.447
  143SAPS  C31615742   2.844   5.696   4.325
  143SAPS  H16X15743   2.801   5.653   4.232
  143SAPS  H16Y15744   2.931   5.630   4.347
  143SAPS  C31715745   2.889   5.842   4.296
  143SAPS  H17X15746   2.926   5.879   4.393
  143SAPS  H17Y15747   2.799   5.905   4.279
  143SAPS  C31815748   2.996   5.857   4.185
  143SAPS  H18X15749   2.968   5.805   4.091
  143SAPS  H18Y15750   3.094   5.811   4.208
  143SAPS  H18Z15751   3.013   5.966   4.168
  144SAPS     N15752   3.920   0.130   6.369
  144SAPS   HN115753   3.978   0.203   6.415
  144SAPS   HN215754   3.940   0.038   6.414
  144SAPS   HN315755   3.940   0.129   6.266
  144SAPS   C1215756   3.781   0.153   6.402
  144SAPS  H12A15757   3.720   0.124   6.318
  144SAPS   C1315758   3.730   0.065   6.516
  144SAPS  O13A15759   3.800  -0.026   6.560
  144SAPS  O13B15760   3.612   0.084   6.558
  144SAPS   C1115761   3.757   0.305   6.423
  144SAPS  H11A15762   3.826   0.346   6.500
  144SAPS  H11B15763   3.656   0.323   6.467
  144SAPS     P15764   3.635   0.380   6.213
  144SAPS   O1315765   3.579   0.244   6.202
  144SAPS   O1415766   3.541   0.482   6.260
  144SAPS   O1215767   3.767   0.388   6.299
  144SAPS   O1115768   3.706   0.417   6.073
  144SAPS    C115769   3.823   0.350   6.042
  144SAPS    HA15770   3.909   0.407   6.084
  144SAPS    HB15771   3.826   0.243   6.072
  144SAPS    C215772   3.832   0.336   5.880
  144SAPS    HS15773   3.925   0.285   5.849
  144SAPS   O2115774   3.822   0.457   5.814
  144SAPS   C2115775   3.914   0.548   5.846
  144SAPS   O2215776   4.010   0.529   5.913
  144SAPS   C2215777   3.861   0.679   5.778
  144SAPS   H2R15778   3.838   0.655   5.672
  144SAPS   H2S15779   3.765   0.702   5.830
  144SAPS    C315780   3.718   0.240   5.833
  144SAPS    HX15781   3.620   0.262   5.879
  144SAPS    HY15782   3.744   0.134   5.855
  144SAPS   O3115783   3.705   0.256   5.693
  144SAPS   C3115784   3.611   0.334   5.647
  144SAPS   O3215785   3.526   0.397   5.707
  144SAPS   C3215786   3.632   0.346   5.497
  144SAPS   H2X15787   3.627   0.245   5.450
  144SAPS   H2Y15788   3.727   0.403   5.488
  144SAPS   C2315789   3.966   0.781   5.805
  144SAPS   H3R15790   4.017   0.775   5.903
  144SAPS   H3S15791   3.920   0.881   5.788
  144SAPS   C2415792   4.060   0.790   5.683
  144SAPS   H4R15793   4.002   0.808   5.589
  144SAPS   H4S15794   4.111   0.695   5.654
  144SAPS   C2515795   4.159   0.896   5.714
  144SAPS   H5R15796   4.221   0.880   5.804
  144SAPS   C2615797   4.181   1.009   5.640
  144SAPS   H6R15798   4.255   1.086   5.667
  144SAPS   C2715799   4.108   1.036   5.513
  144SAPS   H7R15800   3.999   1.030   5.534
  144SAPS   H7S15801   4.123   0.958   5.435
  144SAPS   C2815802   4.148   1.171   5.453
  144SAPS   H8R15803   4.194   1.240   5.525
  144SAPS   C2915804   4.147   1.201   5.318
  144SAPS   H9R15805   4.180   1.300   5.281
  144SAPS  C21015806   4.101   1.113   5.208
  144SAPS  H10R15807   4.012   1.055   5.241
  144SAPS  H10S15808   4.180   1.038   5.189
  144SAPS  C21115809   4.086   1.183   5.078
  144SAPS  H11R15810   4.145   1.276   5.065
  144SAPS  C21215811   4.022   1.136   4.970
  144SAPS  H12R15812   4.017   1.194   4.877
  144SAPS  C21315813   3.970   0.989   4.971
  144SAPS  H13R15814   3.893   0.991   5.052
  144SAPS  H13S15815   4.054   0.920   4.995
  144SAPS  C21415816   3.896   0.956   4.842
  144SAPS  H14R15817   3.786   0.951   4.845
  144SAPS  C21515818   3.952   0.924   4.727
  144SAPS  H15R15819   3.884   0.889   4.649
  144SAPS  C21615820   4.108   0.913   4.712
  144SAPS  H16R15821   4.141   0.807   4.720
  144SAPS  H16S15822   4.140   0.973   4.800
  144SAPS  C21715823   4.161   0.964   4.573
  144SAPS  H17R15824   4.270   0.985   4.581
  144SAPS  H17S15825   4.104   1.057   4.555
  144SAPS  C21815826   4.145   0.865   4.455
  144SAPS  H18R15827   4.043   0.834   4.485
  144SAPS  H18S15828   4.230   0.793   4.462
  144SAPS  C21915829   4.143   0.932   4.321
  144SAPS  H19R15830   4.251   0.947   4.300
  144SAPS  H19S15831   4.091   1.029   4.337
  144SAPS  C22015832   4.087   0.842   4.211
  144SAPS  H20R15833   4.124   0.866   4.109
  144SAPS  H20S15834   3.976   0.845   4.202
  144SAPS  H20T15835   4.128   0.739   4.219
  144SAPS   C3315836   3.516   0.432   5.434
  144SAPS   H3X15837   3.535   0.537   5.465
  144SAPS   H3Y15838   3.414   0.397   5.463
  144SAPS   C3415839   3.535   0.428   5.282
  144SAPS   H4X15840   3.540   0.327   5.236
  144SAPS   H4Y15841   3.639   0.466   5.269
  144SAPS   C3515842   3.443   0.516   5.200
  144SAPS   H5X15843   3.476   0.619   5.226
  144SAPS   H5Y15844   3.337   0.500   5.228
  144SAPS   C3615845   3.456   0.489   5.051
  144SAPS   H6X15846   3.460   0.380   5.030
  144SAPS   H6Y15847   3.553   0.530   5.016
  144SAPS   C3715848   3.339   0.553   4.969
  144SAPS   H7X15849   3.344   0.664   4.972
  144SAPS   H7Y15850   3.245   0.528   5.021
  144SAPS   C3815851   3.325   0.499   4.826
  144SAPS   H8X15852   3.298   0.391   4.822
  144SAPS   H8Y15853   3.421   0.499   4.770
  144SAPS   C3915854   3.218   0.579   4.750
  144SAPS   H9X15855   3.257   0.681   4.734
  144SAPS   H9Y15856   3.130   0.581   4.818
  144SAPS  C31015857   3.189   0.498   4.621
  144SAPS  H10X15858   3.143   0.399   4.641
  144SAPS  H10Y15859   3.285   0.474   4.569
  144SAPS  C31115860   3.115   0.570   4.509
  144SAPS  H11X15861   3.099   0.495   4.428
  144SAPS  H11Y15862   3.182   0.649   4.469
  144SAPS  C31215863   2.978   0.626   4.548
  144SAPS  H12X15864   2.995   0.692   4.636
  144SAPS  H12Y15865   2.905   0.544   4.567
  144SAPS  C31315866   2.921   0.710   4.433
  144SAPS  H13X15867   2.933   0.641   4.346
  144SAPS  H13Y15868   2.982   0.801   4.417
  144SAPS  C31415869   2.772   0.753   4.442
  144SAPS  H14X15870   2.748   0.819   4.529
  144SAPS  H14Y15871   2.701   0.668   4.447
  144SAPS  C31515872   2.726   0.826   4.316
  144SAPS  H15X15873   2.788   0.917   4.303
  144SAPS  H15Y15874   2.621   0.856   4.339
  144SAPS  C31615875   2.719   0.746   4.186
  144SAPS  H16X15876   2.653   0.656   4.191
  144SAPS  H16Y15877   2.820   0.704   4.170
  144SAPS  C31715878   2.656   0.837   4.077
  144SAPS  H17X15879   2.717   0.929   4.059
  144SAPS  H17Y15880   2.554   0.867   4.107
  144SAPS  C31815881   2.649   0.758   3.950
  144SAPS  H18X15882   2.752   0.719   3.938
  144SAPS  H18Y15883   2.625   0.825   3.865
  144SAPS  H18Z15884   2.575   0.675   3.939
  145SAPS     N15885   3.218   4.856   6.876
  145SAPS   HN115886   3.211   4.857   6.980
  145SAPS   HN215887   3.251   4.944   6.833
  145SAPS   HN315888   3.122   4.851   6.837
  145SAPS   C1215889   3.280   4.732   6.820
  145SAPS  H12A15890   3.385   4.753   6.829
  145SAPS   C1315891   3.251   4.599   6.903
  145SAPS  O13A15892   3.163   4.607   6.998
  145SAPS  O13B15893   3.313   4.490   6.875
  145SAPS   C1115894   3.229   4.714   6.670
  145SAPS  H11A15895   3.276   4.627   6.620
  145SAPS  H11B15896   3.267   4.802   6.614
  145SAPS     P15897   2.996   4.810   6.617
  145SAPS   O1315898   2.876   4.753   6.552
  145SAPS   O1415899   2.980   4.897   6.734
  145SAPS   O1215900   3.084   4.690   6.657
  145SAPS   O1115901   3.081   4.882   6.510
  145SAPS    C115902   3.030   4.890   6.377
  145SAPS    HA15903   2.922   4.915   6.373
  145SAPS    HB15904   3.084   4.975   6.330
  145SAPS    C215905   3.051   4.757   6.294
  145SAPS    HS15906   2.985   4.686   6.349
  145SAPS   O2115907   3.188   4.722   6.299
  145SAPS   C2115908   3.206   4.591   6.314
  145SAPS   O2215909   3.125   4.503   6.296
  145SAPS   C2215910   3.349   4.555   6.319
  145SAPS   H2R15911   3.407   4.649   6.335
  145SAPS   H2S15912   3.358   4.486   6.406
  145SAPS    C315913   3.009   4.760   6.143
  145SAPS    HX15914   3.070   4.825   6.076
  145SAPS    HY15915   2.913   4.814   6.131
  145SAPS   O3115916   3.002   4.630   6.084
  145SAPS   C3115917   2.888   4.565   6.103
  145SAPS   O3215918   2.802   4.601   6.182
  145SAPS   C3215919   2.894   4.444   6.011
  145SAPS   H2X15920   2.891   4.361   6.085
  145SAPS   H2Y15921   2.994   4.446   5.963
  145SAPS   C2315922   3.407   4.487   6.197
  145SAPS   H3R15923   3.374   4.382   6.207
  145SAPS   H3S15924   3.518   4.488   6.204
  145SAPS   C2415925   3.362   4.537   6.063
  145SAPS   H4R15926   3.253   4.547   6.043
  145SAPS   H4S15927   3.401   4.463   5.991
  145SAPS   C2515928   3.417   4.674   6.033
  145SAPS   H5R15929   3.504   4.706   6.092
  145SAPS   C2615930   3.380   4.766   5.943
  145SAPS   H6R15931   3.436   4.861   5.946
  145SAPS   C2715932   3.266   4.748   5.847
  145SAPS   H7R15933   3.189   4.676   5.884
  145SAPS   H7S15934   3.304   4.701   5.754
  145SAPS   C2815935   3.194   4.868   5.797
  145SAPS   H8R15936   3.118   4.903   5.869
  145SAPS   C2915937   3.194   4.924   5.673
  145SAPS   H9R15938   3.138   5.018   5.661
  145SAPS  C21015939   3.262   4.877   5.545
  145SAPS  H10R15940   3.182   4.821   5.493
  145SAPS  H10S15941   3.346   4.804   5.555
  145SAPS  C21115942   3.312   4.994   5.462
  145SAPS  H11R15943   3.399   5.045   5.506
  145SAPS  C21215944   3.259   5.040   5.350
  145SAPS  H12R15945   3.296   5.132   5.301
  145SAPS  C21315946   3.136   4.983   5.274
  145SAPS  H13R15947   3.049   5.039   5.314
  145SAPS  H13S15948   3.119   4.879   5.309
  145SAPS  C21415949   3.148   4.996   5.122
  145SAPS  H14R15950   3.250   4.976   5.083
  145SAPS  C21515951   3.054   5.038   5.030
  145SAPS  H15R15952   3.078   5.030   4.923
  145SAPS  C21615953   2.912   5.082   5.069
  145SAPS  H16R15954   2.867   5.023   5.152
  145SAPS  H16S15955   2.851   5.059   4.979
  145SAPS  C21715956   2.897   5.225   5.111
  145SAPS  H17R15957   2.940   5.299   5.039
  145SAPS  H17S15958   2.955   5.251   5.202
  145SAPS  C21815959   2.753   5.256   5.142
  145SAPS  H18R15960   2.680   5.257   5.058
  145SAPS  H18S15961   2.749   5.357   5.188
  145SAPS  C21915962   2.700   5.186   5.273
  145SAPS  H19R15963   2.783   5.163   5.344
  145SAPS  H19S15964   2.656   5.091   5.238
  145SAPS  C22015965   2.593   5.263   5.346
  145SAPS  H20R15966   2.631   5.364   5.374
  145SAPS  H20S15967   2.559   5.224   5.444
  145SAPS  H20T15968   2.507   5.280   5.278
  145SAPS   C3315969   2.781   4.436   5.917
  145SAPS   H3X15970   2.686   4.450   5.974
  145SAPS   H3Y15971   2.778   4.342   5.859
  145SAPS   C3415972   2.773   4.545   5.814
  145SAPS   H4X15973   2.758   4.644   5.862
  145SAPS   H4Y15974   2.687   4.529   5.745
  145SAPS   C3515975   2.902   4.551   5.726
  145SAPS   H5X15976   2.954   4.453   5.732
  145SAPS   H5Y15977   2.965   4.634   5.763
  145SAPS   C3615978   2.862   4.556   5.578
  145SAPS   H6X15979   2.787   4.478   5.554
  145SAPS   H6Y15980   2.950   4.518   5.522
  145SAPS   C3715981   2.824   4.693   5.517
  145SAPS   H7X15982   2.906   4.758   5.555
  145SAPS   H7Y15983   2.731   4.726   5.568
  145SAPS   C3815984   2.805   4.712   5.369
  145SAPS   H8X15985   2.833   4.813   5.334
  145SAPS   H8Y15986   2.698   4.695   5.346
  145SAPS   C3915987   2.898   4.627   5.275
  145SAPS   H9X15988   2.871   4.519   5.280
  145SAPS   H9Y15989   3.000   4.648   5.314
  145SAPS  C31015990   2.877   4.689   5.134
  145SAPS  H10X15991   2.870   4.799   5.127
  145SAPS  H10Y15992   2.784   4.648   5.089
  145SAPS  C31115993   3.000   4.664   5.042
  145SAPS  H11X15994   3.041   4.570   5.086
  145SAPS  H11Y15995   3.077   4.740   5.063
  145SAPS  C31215996   2.967   4.679   4.894
  145SAPS  H12X15997   2.934   4.785   4.894
  145SAPS  H12Y15998   2.877   4.620   4.869
  145SAPS  C31315999   3.074   4.648   4.794
  145SAPS  H13X16000   3.097   4.539   4.804
  145SAPS  H13Y16001   3.168   4.696   4.828
  145SAPS  C31416002   3.050   4.690   4.641
  145SAPS  H14X16003   3.015   4.596   4.593
  145SAPS  H14Y16004   3.144   4.721   4.590
  145SAPS  C31516005   2.957   4.813   4.620
  145SAPS  H15X16006   2.998   4.902   4.673
  145SAPS  H15Y16007   2.854   4.806   4.662
  145SAPS  C31616008   2.943   4.874   4.481
  145SAPS  H16X16009   3.044   4.911   4.453
  145SAPS  H16Y16010   2.867   4.956   4.483
  145SAPS  C31716011   2.898   4.779   4.366
  145SAPS  H17X16012   2.949   4.681   4.364
  145SAPS  H17Y16013   2.913   4.838   4.273
  145SAPS  C31816014   2.746   4.761   4.364
  145SAPS  H18X16015   2.710   4.721   4.460
  145SAPS  H18Y16016   2.724   4.687   4.284
  145SAPS  H18Z16017   2.693   4.854   4.334
  146SAPS     N16018   5.243   0.678   6.845
  146SAPS   HN116019   5.175   0.749   6.881
  146SAPS   HN216020   5.330   0.690   6.900
  146SAPS   HN316021   5.263   0.704   6.746
  146SAPS   C1216022   5.190   0.539   6.855
  146SAPS  H12A16023   5.259   0.486   6.790
  146SAPS   C1316024   5.195   0.481   6.998
  146SAPS  O13A16025   5.251   0.542   7.098
  146SAPS  O13B16026   5.160   0.361   7.010
  146SAPS   C1116027   5.045   0.519   6.798
  146SAPS  H11A16028   4.965   0.555   6.866
  146SAPS  H11B16029   5.036   0.410   6.777
  146SAPS     P16030   4.894   0.558   6.587
  146SAPS   O1316031   4.897   0.424   6.534
  146SAPS   O1416032   4.770   0.597   6.665
  146SAPS   O1216033   5.032   0.576   6.667
  146SAPS   O1116034   4.897   0.647   6.467
  146SAPS    C116035   4.990   0.744   6.447
  146SAPS    HA16036   4.968   0.826   6.519
  146SAPS    HB16037   5.095   0.715   6.470
  146SAPS    C216038   4.963   0.804   6.304
  146SAPS    HS16039   4.860   0.845   6.310
  146SAPS   O2116040   4.974   0.695   6.210
  146SAPS   C2116041   4.878   0.688   6.122
  146SAPS   O2216042   4.782   0.767   6.109
  146SAPS   C2216043   4.910   0.563   6.044
  146SAPS   H2R16044   5.019   0.557   6.024
  146SAPS   H2S16045   4.877   0.478   6.107
  146SAPS    C316046   5.068   0.911   6.253
  146SAPS    HX16047   5.163   0.858   6.231
  146SAPS    HY16048   5.081   0.991   6.329
  146SAPS   O3116049   5.033   0.966   6.130
  146SAPS   C3116050   4.946   1.065   6.123
  146SAPS   O3216051   4.878   1.112   6.209
  146SAPS   C3216052   4.931   1.111   5.974
  146SAPS   H2X16053   4.870   1.047   5.906
  146SAPS   H2Y16054   5.035   1.119   5.936
  146SAPS   C2316055   4.840   0.550   5.906
  146SAPS   H3R16056   4.735   0.515   5.912
  146SAPS   H3S16057   4.879   0.455   5.864
  146SAPS   C2416058   4.851   0.674   5.819
  146SAPS   H4R16059   4.796   0.758   5.868
  146SAPS   H4S16060   4.785   0.655   5.732
  146SAPS   C2516061   4.987   0.723   5.773
  146SAPS   H5R16062   5.063   0.745   5.849
  146SAPS   C2616063   5.012   0.756   5.643
  146SAPS   H6R16064   5.112   0.793   5.615
  146SAPS   C2716065   4.920   0.750   5.516
  146SAPS   H7R16066   4.909   0.847   5.463
  146SAPS   H7S16067   4.816   0.726   5.548
  146SAPS   C2816068   4.980   0.646   5.421
  146SAPS   H8R16069   5.027   0.558   5.468
  146SAPS   C2916070   4.960   0.654   5.287
  146SAPS   H9R16071   4.987   0.561   5.235
  146SAPS  C21016072   4.872   0.752   5.206
  146SAPS  H10R16073   4.917   0.854   5.208
  146SAPS  H10S16074   4.771   0.760   5.253
  146SAPS  C21116075   4.843   0.699   5.074
  146SAPS  H11R16076   4.808   0.595   5.077
  146SAPS  C21216077   4.840   0.764   4.955
  146SAPS  H12R16078   4.828   0.709   4.860
  146SAPS  C21316079   4.889   0.907   4.935
  146SAPS  H13R16080   4.874   0.969   5.026
  146SAPS  H13S16081   4.831   0.951   4.851
  146SAPS  C21416082   5.041   0.907   4.900
  146SAPS  H14R16083   5.097   0.827   4.951
  146SAPS  C21516084   5.101   0.995   4.816
  146SAPS  H15R16085   5.210   0.984   4.810
  146SAPS  C21616086   5.033   1.107   4.738
  146SAPS  H16R16087   5.084   1.203   4.761
  146SAPS  H16S16088   4.939   1.133   4.790
  146SAPS  C21716089   4.996   1.077   4.592
  146SAPS  H17R16090   5.091   1.052   4.539
  146SAPS  H17S16091   4.956   1.175   4.560
  146SAPS  C21816092   4.901   0.957   4.569
  146SAPS  H18R16093   4.804   0.967   4.623
  146SAPS  H18S16094   4.950   0.860   4.589
  146SAPS  C21916095   4.856   0.953   4.422
  146SAPS  H19R16096   4.945   0.933   4.358
  146SAPS  H19S16097   4.803   1.047   4.397
  146SAPS  C22016098   4.757   0.842   4.386
  146SAPS  H20R16099   4.760   0.766   4.467
  146SAPS  H20S16100   4.785   0.797   4.289
  146SAPS  H20T16101   4.654   0.884   4.381
  146SAPS   C3316102   4.865   1.252   5.979
  146SAPS   H3X16103   4.904   1.312   6.064
  146SAPS   H3Y16104   4.757   1.239   5.999
  146SAPS   C3416105   4.894   1.327   5.855
  146SAPS   H4X16106   4.802   1.342   5.795
  146SAPS   H4Y16107   4.942   1.248   5.794
  146SAPS   C3516108   4.989   1.445   5.867
  146SAPS   H5X16109   5.063   1.430   5.949
  146SAPS   H5Y16110   4.930   1.532   5.901
  146SAPS   C3616111   5.066   1.475   5.736
  146SAPS   H6X16112   5.139   1.394   5.718
  146SAPS   H6Y16113   5.131   1.564   5.750
  146SAPS   C3716114   4.980   1.487   5.613
  146SAPS   H7X16115   4.898   1.562   5.616
  146SAPS   H7Y16116   4.922   1.393   5.603
  146SAPS   C3816117   5.053   1.508   5.486
  146SAPS   H8X16118   5.144   1.444   5.488
  146SAPS   H8Y16119   5.103   1.606   5.470
  146SAPS   C3916120   4.961   1.482   5.363
  146SAPS   H9X16121   4.886   1.564   5.366
  146SAPS   H9Y16122   4.903   1.388   5.376
  146SAPS  C31016123   5.032   1.476   5.222
  146SAPS  H10X16124   5.078   1.576   5.209
  146SAPS  H10Y16125   4.955   1.470   5.142
  146SAPS  C31116126   5.133   1.368   5.205
  146SAPS  H11X16127   5.222   1.397   5.264
  146SAPS  H11Y16128   5.159   1.381   5.098
  146SAPS  C31216129   5.081   1.227   5.226
  146SAPS  H12X16130   4.994   1.214   5.159
  146SAPS  H12Y16131   5.034   1.220   5.327
  146SAPS  C31316132   5.177   1.113   5.186
  146SAPS  H13X16133   5.177   1.100   5.076
  146SAPS  H13Y16134   5.133   1.021   5.229
  146SAPS  C31416135   5.320   1.128   5.231
  146SAPS  H14X16136   5.372   1.204   5.169
  146SAPS  H14Y16137   5.365   1.029   5.212
  146SAPS  C31516138   5.341   1.174   5.376
  146SAPS  H15X16139   5.289   1.269   5.403
  146SAPS  H15Y16140   5.448   1.203   5.392
  146SAPS  C31616141   5.303   1.075   5.482
  146SAPS  H16X16142   5.372   0.989   5.493
  146SAPS  H16Y16143   5.202   1.029   5.474
  146SAPS  C31716144   5.288   1.145   5.610
  146SAPS  H17X16145   5.217   1.230   5.614
  146SAPS  H17Y16146   5.381   1.202   5.630
  146SAPS  C31816147   5.272   1.059   5.733
  146SAPS  H18X16148   5.340   0.971   5.731
  146SAPS  H18Y16149   5.169   1.015   5.739
  146SAPS  H18Z16150   5.289   1.123   5.821
  147SAPS     N16151   0.726   4.068   6.639
  147SAPS   HN116152   0.622   4.063   6.651
  147SAPS   HN216153   0.765   4.007   6.713
  147SAPS   HN316154   0.761   4.165   6.653
  147SAPS   C1216155   0.764   4.026   6.495
  147SAPS  H12A16156   0.868   4.047   6.479
  147SAPS   C1316157   0.729   3.876   6.475
  147SAPS  O13A16158   0.707   3.804   6.573
  147SAPS  O13B16159   0.775   3.834   6.369
  147SAPS   C1116160   0.692   4.110   6.389
  147SAPS  H11A16161   0.583   4.124   6.407
  147SAPS  H11B16162   0.693   4.058   6.291
  147SAPS     P16163   0.841   4.293   6.259
  147SAPS   O1316164   0.773   4.414   6.206
  147SAPS   O1416165   0.981   4.304   6.309
  147SAPS   O1216166   0.754   4.235   6.377
  147SAPS   O1116167   0.839   4.183   6.144
  147SAPS    C116168   0.938   4.078   6.140
  147SAPS    HA16169   1.038   4.126   6.136
  147SAPS    HB16170   0.925   4.008   6.224
  147SAPS    C216171   0.908   3.992   6.012
  147SAPS    HS16172   1.003   3.936   5.994
  147SAPS   O2116173   0.868   4.067   5.900
  147SAPS   C2116174   0.957   4.139   5.842
  147SAPS   O2216175   1.072   4.155   5.881
  147SAPS   C2216176   0.899   4.191   5.708
  147SAPS   H2R16177   0.816   4.119   5.687
  147SAPS   H2S16178   0.862   4.293   5.733
  147SAPS    C316179   0.798   3.887   6.036
  147SAPS    HX16180   0.709   3.949   6.062
  147SAPS    HY16181   0.813   3.817   6.121
  147SAPS   O3116182   0.791   3.808   5.912
  147SAPS   C3116183   0.671   3.779   5.864
  147SAPS   O3216184   0.569   3.825   5.918
  147SAPS   C3216185   0.688   3.701   5.736
  147SAPS   H2X16186   0.619   3.614   5.740
  147SAPS   H2Y16187   0.796   3.680   5.723
  147SAPS   C2316188   1.003   4.191   5.591
  147SAPS   H3R16189   0.940   4.231   5.509
  147SAPS   H3S16190   1.036   4.085   5.579
  147SAPS   C2416191   1.123   4.289   5.599
  147SAPS   H4R16192   1.160   4.280   5.494
  147SAPS   H4S16193   1.196   4.241   5.668
  147SAPS   C2516194   1.083   4.433   5.635
  147SAPS   H5R16195   1.064   4.455   5.741
  147SAPS   C2616196   1.052   4.535   5.549
  147SAPS   H6R16197   1.040   4.638   5.584
  147SAPS   C2716198   1.034   4.537   5.395
  147SAPS   H7R16199   1.081   4.448   5.347
  147SAPS   H7S16200   1.088   4.626   5.357
  147SAPS   C2816201   0.886   4.546   5.369
  147SAPS   H8R16202   0.820   4.498   5.443
  147SAPS   C2916203   0.834   4.595   5.257
  147SAPS   H9R16204   0.732   4.566   5.230
  147SAPS  C21016205   0.907   4.639   5.138
  147SAPS  H10R16206   0.934   4.544   5.087
  147SAPS  H10S16207   1.001   4.693   5.159
  147SAPS  C21116208   0.837   4.729   5.035
  147SAPS  H11R16209   0.858   4.835   5.054
  147SAPS  C21216210   0.733   4.691   4.952
  147SAPS  H12R16211   0.693   4.771   4.888
  147SAPS  C21316212   0.671   4.552   4.937
  147SAPS  H13R16213   0.718   4.472   4.998
  147SAPS  H13S16214   0.676   4.523   4.830
  147SAPS  C21416215   0.525   4.554   4.989
  147SAPS  H14R16216   0.489   4.655   5.017
  147SAPS  C21516217   0.451   4.441   5.015
  147SAPS  H15R16218   0.351   4.447   5.061
  147SAPS  C21616219   0.493   4.297   4.995
  147SAPS  H16R16220   0.593   4.287   4.947
  147SAPS  H16S16221   0.431   4.255   4.912
  147SAPS  C21716222   0.477   4.204   5.117
  147SAPS  H17R16223   0.483   4.098   5.085
  147SAPS  H17S16224   0.378   4.216   5.165
  147SAPS  C21816225   0.588   4.234   5.222
  147SAPS  H18R16226   0.587   4.343   5.242
  147SAPS  H18S16227   0.695   4.219   5.195
  147SAPS  C21916228   0.558   4.151   5.347
  147SAPS  H19R16229   0.569   4.045   5.317
  147SAPS  H19S16230   0.452   4.160   5.379
  147SAPS  C22016231   0.654   4.188   5.457
  147SAPS  H20R16232   0.632   4.141   5.555
  147SAPS  H20S16233   0.663   4.298   5.471
  147SAPS  H20T16234   0.754   4.142   5.438
  147SAPS   C3316235   0.662   3.794   5.614
  147SAPS   H3X16236   0.730   3.881   5.615
  147SAPS   H3Y16237   0.562   3.842   5.624
  147SAPS   C3416238   0.676   3.720   5.484
  147SAPS   H4X16239   0.776   3.672   5.470
  147SAPS   H4Y16240   0.679   3.800   5.407
  147SAPS   C3516241   0.565   3.621   5.463
  147SAPS   H5X16242   0.465   3.658   5.494
  147SAPS   H5Y16243   0.594   3.529   5.518
  147SAPS   C3616244   0.543   3.580   5.313
  147SAPS   H6X16245   0.474   3.493   5.313
  147SAPS   H6Y16246   0.640   3.549   5.269
  147SAPS   C3716247   0.480   3.689   5.229
  147SAPS   H7X16248   0.531   3.787   5.244
  147SAPS   H7Y16249   0.377   3.705   5.267
  147SAPS   C3816250   0.472   3.667   5.081
  147SAPS   H8X16251   0.406   3.580   5.060
  147SAPS   H8Y16252   0.573   3.639   5.042
  147SAPS   C3916253   0.408   3.791   5.021
  147SAPS   H9X16254   0.471   3.882   5.033
  147SAPS   H9Y16255   0.308   3.799   5.068
  147SAPS  C31016256   0.381   3.755   4.869
  147SAPS  H10X16257   0.330   3.656   4.867
  147SAPS  H10Y16258   0.475   3.723   4.820
  147SAPS  C31116259   0.306   3.857   4.791
  147SAPS  H11X16260   0.212   3.887   4.844
  147SAPS  H11Y16261   0.280   3.826   4.687
  147SAPS  C31216262   0.381   3.993   4.759
  147SAPS  H12X16263   0.472   3.963   4.703
  147SAPS  H12Y16264   0.421   4.043   4.850
  147SAPS  C31316265   0.303   4.091   4.671
  147SAPS  H13X16266   0.362   4.185   4.662
  147SAPS  H13Y16267   0.210   4.116   4.727
  147SAPS  C31416268   0.267   4.037   4.532
  147SAPS  H14X16269   0.207   3.945   4.549
  147SAPS  H14Y16270   0.359   3.998   4.482
  147SAPS  C31516271   0.176   4.127   4.455
  147SAPS  H15X16272   0.084   4.157   4.511
  147SAPS  H15Y16273   0.140   4.080   4.361
  147SAPS  C31616274   0.244   4.259   4.408
  147SAPS  H16X16275   0.340   4.239   4.354
  147SAPS  H16Y16276   0.261   4.320   4.499
  147SAPS  C31716277   0.173   4.332   4.302
  147SAPS  H17X16278   0.076   4.375   4.336
  147SAPS  H17Y16279   0.157   4.266   4.214
  147SAPS  C31816280   0.261   4.444   4.246
  147SAPS  H18X16281   0.220   4.491   4.154
  147SAPS  H18Y16282   0.361   4.409   4.213
  147SAPS  H18Z16283   0.253   4.534   4.311
  148SAPS     N16284   2.014   4.875   6.265
  148SAPS   HN116285   2.075   4.959   6.258
  148SAPS   HN216286   1.981   4.844   6.171
  148SAPS   HN316287   1.943   4.896   6.337
  148SAPS   C1216288   2.101   4.768   6.332
  148SAPS  H12A16289   2.189   4.764   6.269
  148SAPS   C1316290   2.142   4.799   6.479
  148SAPS  O13A16291   2.106   4.911   6.532
  148SAPS  O13B16292   2.208   4.724   6.555
  148SAPS   C1116293   2.029   4.633   6.342
  148SAPS  H11A16294   2.094   4.559   6.393
  148SAPS  H11B16295   2.021   4.592   6.238
  148SAPS     P16296   1.821   4.519   6.440
  148SAPS   O1316297   1.909   4.430   6.520
  148SAPS   O1416298   1.694   4.562   6.505
  148SAPS   O1216299   1.898   4.653   6.394
  148SAPS   O1116300   1.787   4.445   6.308
  148SAPS    C116301   1.671   4.470   6.233
  148SAPS    HA16302   1.660   4.376   6.174
  148SAPS    HB16303   1.583   4.492   6.298
  148SAPS    C216304   1.695   4.579   6.123
  148SAPS    HS16305   1.732   4.669   6.178
  148SAPS   O2116306   1.569   4.621   6.064
  148SAPS   C2116307   1.568   4.742   6.012
  148SAPS   O2216308   1.650   4.829   6.034
  148SAPS   C2216309   1.454   4.740   5.925
  148SAPS   H2R16310   1.460   4.638   5.880
  148SAPS   H2S16311   1.360   4.750   5.982
  148SAPS    C316312   1.795   4.532   6.014
  148SAPS    HX16313   1.756   4.438   5.969
  148SAPS    HY16314   1.891   4.504   6.062
  148SAPS   O3116315   1.804   4.616   5.892
  148SAPS   C3116316   1.872   4.733   5.915
  148SAPS   O3216317   1.935   4.754   6.021
  148SAPS   C3216318   1.876   4.831   5.800
  148SAPS   H2X16319   1.983   4.839   5.771
  148SAPS   H2Y16320   1.829   4.930   5.822
  148SAPS   C2316321   1.446   4.852   5.824
  148SAPS   H3R16322   1.520   4.844   5.742
  148SAPS   H3S16323   1.468   4.946   5.879
  148SAPS   C2416324   1.298   4.869   5.755
  148SAPS   H4R16325   1.228   4.866   5.841
  148SAPS   H4S16326   1.270   4.783   5.691
  148SAPS   C2516327   1.290   5.004   5.689
  148SAPS   H5R16328   1.313   5.086   5.758
  148SAPS   C2616329   1.267   5.025   5.560
  148SAPS   H6R16330   1.282   5.127   5.523
  148SAPS   C2716331   1.243   4.934   5.445
  148SAPS   H7R16332   1.267   4.828   5.470
  148SAPS   H7S16333   1.295   4.972   5.355
  148SAPS   C2816334   1.099   4.903   5.410
  148SAPS   H8R16335   1.052   4.830   5.478
  148SAPS   C2916336   1.023   4.958   5.314
  148SAPS   H9R16337   0.921   4.919   5.308
  148SAPS  C21016338   1.062   5.068   5.223
  148SAPS  H10R16339   1.136   5.134   5.274
  148SAPS  H10S16340   0.988   5.147   5.198
  148SAPS  C21116341   1.125   5.006   5.100
  148SAPS  H11R16342   1.090   4.912   5.056
  148SAPS  C21216343   1.198   5.075   5.006
  148SAPS  H12R16344   1.224   5.015   4.917
  148SAPS  C21316345   1.242   5.216   5.002
  148SAPS  H13R16346   1.332   5.229   4.937
  148SAPS  H13S16347   1.286   5.245   5.100
  148SAPS  C21416348   1.121   5.303   4.973
  148SAPS  H14R16349   1.035   5.288   5.039
  148SAPS  C21516350   1.117   5.409   4.892
  148SAPS  H15R16351   1.023   5.463   4.875
  148SAPS  C21616352   1.236   5.451   4.811
  148SAPS  H16R16353   1.309   5.367   4.797
  148SAPS  H16S16354   1.298   5.534   4.851
  148SAPS  C21716355   1.195   5.503   4.669
  148SAPS  H17R16356   1.143   5.601   4.670
  148SAPS  H17S16357   1.121   5.433   4.624
  148SAPS  C21816358   1.322   5.509   4.579
  148SAPS  H18R16359   1.352   5.402   4.573
  148SAPS  H18S16360   1.405   5.569   4.623
  148SAPS  C21916361   1.308   5.547   4.428
  148SAPS  H19R16362   1.221   5.498   4.379
  148SAPS  H19S16363   1.395   5.498   4.380
  148SAPS  C22016364   1.313   5.700   4.401
  148SAPS  H20R16365   1.413   5.744   4.422
  148SAPS  H20S16366   1.261   5.749   4.486
  148SAPS  H20T16367   1.285   5.735   4.299
  148SAPS   C3316368   1.823   4.773   5.665
  148SAPS   H3X16369   1.726   4.724   5.682
  148SAPS   H3Y16370   1.894   4.693   5.633
  148SAPS   C3416371   1.798   4.880   5.553
  148SAPS   H4X16372   1.904   4.882   5.517
  148SAPS   H4Y16373   1.777   4.981   5.595
  148SAPS   C3516374   1.706   4.843   5.441
  148SAPS   H5X16375   1.608   4.819   5.487
  148SAPS   H5Y16376   1.754   4.758   5.387
  148SAPS   C3616377   1.688   4.950   5.330
  148SAPS   H6X16378   1.792   4.973   5.298
  148SAPS   H6Y16379   1.644   5.040   5.377
  148SAPS   C3716380   1.622   4.910   5.197
  148SAPS   H7X16381   1.515   4.896   5.224
  148SAPS   H7Y16382   1.667   4.810   5.180
  148SAPS   C3816383   1.642   4.996   5.073
  148SAPS   H8X16384   1.748   5.023   5.054
  148SAPS   H8Y16385   1.600   5.098   5.075
  148SAPS   C3916386   1.573   4.932   4.951
  148SAPS   H9X16387   1.464   4.932   4.975
  148SAPS   H9Y16388   1.609   4.828   4.938
  148SAPS  C31016389   1.604   5.024   4.837
  148SAPS  H10X16390   1.712   5.050   4.826
  148SAPS  H10Y16391   1.553   5.123   4.846
  148SAPS  C31116392   1.547   4.980   4.699
  148SAPS  H11X16393   1.578   4.875   4.680
  148SAPS  H11Y16394   1.597   5.041   4.620
  148SAPS  C31216395   1.397   4.979   4.676
  148SAPS  H12X16396   1.371   5.085   4.697
  148SAPS  H12Y16397   1.346   4.918   4.753
  148SAPS  C31316398   1.334   4.948   4.534
  148SAPS  H13X16399   1.392   5.002   4.456
  148SAPS  H13Y16400   1.233   4.993   4.536
  148SAPS  C31416401   1.328   4.792   4.511
  148SAPS  H14X16402   1.316   4.752   4.613
  148SAPS  H14Y16403   1.428   4.763   4.470
  148SAPS  C31516404   1.205   4.740   4.424
  148SAPS  H15X16405   1.199   4.796   4.328
  148SAPS  H15Y16406   1.110   4.761   4.479
  148SAPS  C31616407   1.221   4.588   4.391
  148SAPS  H16X16408   1.192   4.541   4.488
  148SAPS  H16Y16409   1.329   4.578   4.368
  148SAPS  C31716410   1.138   4.539   4.275
  148SAPS  H17X16411   1.034   4.577   4.289
  148SAPS  H17Y16412   1.135   4.428   4.274
  148SAPS  C31816413   1.202   4.578   4.141
  148SAPS  H18X16414   1.168   4.510   4.060
  148SAPS  H18Y16415   1.312   4.569   4.154
  148SAPS  H18Z16416   1.185   4.685   4.117
  149SAPS     N16417   0.475   1.572   6.597
  149SAPS   HN116418   0.499   1.658   6.649
  149SAPS   HN216419   0.559   1.544   6.542
  149SAPS   HN316420   0.396   1.592   6.532
  149SAPS   C1216421   0.447   1.465   6.693
  149SAPS  H12A16422   0.539   1.454   6.748
  149SAPS   C1316423   0.346   1.496   6.795
  149SAPS  O13A16424   0.287   1.611   6.784
  149SAPS  O13B16425   0.296   1.405   6.866
  149SAPS   C1116426   0.422   1.332   6.615
  149SAPS  H11A16427   0.327   1.359   6.565
  149SAPS  H11B16428   0.403   1.252   6.691
  149SAPS     P16429   0.545   1.184   6.440
  149SAPS   O1316430   0.683   1.188   6.397
  149SAPS   O1416431   0.484   1.060   6.488
  149SAPS   O1216432   0.535   1.298   6.546
  149SAPS   O1116433   0.452   1.233   6.322
  149SAPS    C116434   0.456   1.367   6.277
  149SAPS    HA16435   0.407   1.433   6.352
  149SAPS    HB16436   0.563   1.391   6.256
  149SAPS    C216437   0.392   1.388   6.139
  149SAPS    HS16438   0.282   1.395   6.151
  149SAPS   O2116439   0.431   1.286   6.050
  149SAPS   C2116440   0.350   1.281   5.939
  149SAPS   O2216441   0.246   1.339   5.933
  149SAPS   C2216442   0.404   1.177   5.838
  149SAPS   H2R16443   0.511   1.198   5.821
  149SAPS   H2S16444   0.388   1.078   5.886
  149SAPS    C316445   0.448   1.527   6.091
  149SAPS    HX16446   0.549   1.511   6.049
  149SAPS    HY16447   0.458   1.597   6.177
  149SAPS   O3116448   0.363   1.591   5.988
  149SAPS   C3116449   0.253   1.660   6.030
  149SAPS   O3216450   0.212   1.652   6.143
  149SAPS   C3216451   0.192   1.742   5.914
  149SAPS   H2X16452   0.224   1.847   5.931
  149SAPS   H2Y16453   0.088   1.768   5.945
  149SAPS   C2316454   0.332   1.194   5.701
  149SAPS   H3R16455   0.221   1.201   5.700
  149SAPS   H3S16456   0.360   1.106   5.639
  149SAPS   C2416457   0.378   1.318   5.629
  149SAPS   H4R16458   0.488   1.332   5.642
  149SAPS   H4S16459   0.342   1.415   5.671
  149SAPS   C2516460   0.340   1.307   5.486
  149SAPS   H5R16461   0.265   1.230   5.460
  149SAPS   C2616462   0.401   1.379   5.389
  149SAPS   H6R16463   0.379   1.361   5.282
  149SAPS   C2716464   0.503   1.494   5.408
  149SAPS   H7R16465   0.551   1.501   5.508
  149SAPS   H7S16466   0.465   1.596   5.387
  149SAPS   C2816467   0.618   1.479   5.318
  149SAPS   H8R16468   0.699   1.409   5.343
  149SAPS   C2916469   0.633   1.541   5.195
  149SAPS   H9R16470   0.720   1.525   5.131
  149SAPS  C21016471   0.537   1.630   5.139
  149SAPS  H10R16472   0.444   1.643   5.198
  149SAPS  H10S16473   0.502   1.589   5.041
  149SAPS  C21116474   0.583   1.766   5.107
  149SAPS  H11R16475   0.616   1.822   5.195
  149SAPS  C21216476   0.600   1.824   4.986
  149SAPS  H12R16477   0.637   1.927   4.980
  149SAPS  C21316478   0.564   1.766   4.849
  149SAPS  H13R16479   0.487   1.685   4.855
  149SAPS  H13S16480   0.646   1.710   4.799
  149SAPS  C21416481   0.486   1.865   4.759
  149SAPS  H14R16482   0.467   1.967   4.796
  149SAPS  C21516483   0.442   1.842   4.631
  149SAPS  H15R16484   0.377   1.910   4.574
  149SAPS  C21616485   0.463   1.716   4.554
  149SAPS  H16R16486   0.375   1.649   4.552
  149SAPS  H16S16487   0.540   1.652   4.602
  149SAPS  C21716488   0.500   1.733   4.404
  149SAPS  H17R16489   0.603   1.774   4.395
  149SAPS  H17S16490   0.426   1.803   4.361
  149SAPS  C21816491   0.503   1.593   4.346
  149SAPS  H18R16492   0.398   1.556   4.342
  149SAPS  H18S16493   0.558   1.533   4.422
  149SAPS  C21916494   0.578   1.571   4.217
  149SAPS  H19R16495   0.675   1.626   4.222
  149SAPS  H19S16496   0.519   1.613   4.133
  149SAPS  C22016497   0.611   1.433   4.172
  149SAPS  H20R16498   0.675   1.384   4.249
  149SAPS  H20S16499   0.673   1.447   4.080
  149SAPS  H20T16500   0.525   1.371   4.140
  149SAPS   C3316501   0.231   1.695   5.780
  149SAPS   H3X16502   0.177   1.599   5.769
  149SAPS   H3Y16503   0.337   1.666   5.760
  149SAPS   C3416504   0.185   1.794   5.673
  149SAPS   H4X16505   0.239   1.891   5.681
  149SAPS   H4Y16506   0.081   1.816   5.707
  149SAPS   C3516507   0.199   1.743   5.530
  149SAPS   H5X16508   0.166   1.637   5.528
  149SAPS   H5Y16509   0.307   1.743   5.506
  149SAPS   C3616510   0.104   1.816   5.432
  149SAPS   H6X16511   0.124   1.925   5.423
  149SAPS   H6Y16512   0.000   1.801   5.469
  149SAPS   C3716513   0.101   1.766   5.286
  149SAPS   H7X16514   0.202   1.797   5.250
  149SAPS   H7Y16515   0.021   1.808   5.222
  149SAPS   C3816516   0.091   1.617   5.272
  149SAPS   H8X16517   0.008   1.565   5.323
  149SAPS   H8Y16518   0.185   1.573   5.312
  149SAPS   C3916519   0.083   1.579   5.119
  149SAPS   H9X16520   0.074   1.468   5.120
  149SAPS   H9Y16521   0.175   1.607   5.064
  149SAPS  C31016522  -0.046   1.619   5.043
  149SAPS  H10X16523  -0.030   1.720   4.999
  149SAPS  H10Y16524  -0.132   1.602   5.110
  149SAPS  C31116525  -0.065   1.534   4.915
  149SAPS  H11X16526  -0.169   1.533   4.877
  149SAPS  H11Y16527  -0.041   1.431   4.950
  149SAPS  C31216528   0.035   1.573   4.809
  149SAPS  H12X16529   0.141   1.547   4.828
  149SAPS  H12Y16530   0.043   1.683   4.806
  149SAPS  C31316531  -0.004   1.512   4.675
  149SAPS  H13X16532  -0.095   1.565   4.642
  149SAPS  H13Y16533  -0.026   1.403   4.684
  149SAPS  C31416534   0.103   1.522   4.568
  149SAPS  H14X16535   0.190   1.456   4.588
  149SAPS  H14Y16536   0.137   1.627   4.576
  149SAPS  C31516537   0.068   1.471   4.426
  149SAPS  H15X16538   0.165   1.463   4.372
  149SAPS  H15Y16539  -0.006   1.530   4.369
  149SAPS  C31616540   0.016   1.330   4.425
  149SAPS  H16X16541   0.067   1.279   4.509
  149SAPS  H16Y16542  -0.094   1.325   4.441
  149SAPS  C31716543   0.057   1.256   4.295
  149SAPS  H17X16544  -0.005   1.164   4.294
  149SAPS  H17Y16545   0.161   1.220   4.283
  149SAPS  C31816546   0.018   1.336   4.170
  149SAPS  H18X16547   0.008   1.275   4.077
  149SAPS  H18Y16548   0.083   1.423   4.148
  149SAPS  H18Z16549  -0.083   1.379   4.189
  150SAPS     N16550   0.957   5.321   6.207
  150SAPS   HN116551   1.031   5.249   6.222
  150SAPS   HN216552   0.872   5.287   6.157
  150SAPS   HN316553   0.999   5.393   6.144
  150SAPS   C1216554   0.908   5.388   6.329
  150SAPS  H12A16555   0.866   5.315   6.397
  150SAPS   C1316556   1.019   5.467   6.403
  150SAPS  O13A16557   1.141   5.471   6.363
  150SAPS  O13B16558   0.988   5.537   6.503
  150SAPS   C1116559   0.792   5.482   6.291
  150SAPS  H11A16560   0.843   5.559   6.229
  150SAPS  H11B16561   0.763   5.536   6.383
  150SAPS     P16562   0.538   5.485   6.232
  150SAPS   O1316563   0.462   5.431   6.353
  150SAPS   O1416564   0.545   5.628   6.213
  150SAPS   O1216565   0.678   5.415   6.230
  150SAPS   O1116566   0.458   5.417   6.117
  150SAPS    C116567   0.470   5.284   6.078
  150SAPS    HA16568   0.506   5.216   6.158
  150SAPS    HB16569   0.372   5.248   6.039
  150SAPS    C216570   0.565   5.288   5.954
  150SAPS    HS16571   0.651   5.356   5.974
  150SAPS   O2116572   0.488   5.327   5.839
  150SAPS   C2116573   0.552   5.395   5.746
  150SAPS   O2216574   0.671   5.419   5.745
  150SAPS   C2216575   0.453   5.428   5.641
  150SAPS   H2R16576   0.445   5.333   5.583
  150SAPS   H2S16577   0.359   5.457   5.693
  150SAPS    C316578   0.621   5.148   5.913
  150SAPS    HX16579   0.540   5.085   5.869
  150SAPS    HY16580   0.653   5.095   6.005
  150SAPS   O3116581   0.732   5.148   5.822
  150SAPS   C3116582   0.850   5.206   5.860
  150SAPS   O3216583   0.865   5.271   5.960
  150SAPS   C3216584   0.950   5.191   5.746
  150SAPS   H2X16585   0.899   5.148   5.657
  150SAPS   H2Y16586   1.016   5.108   5.777
  150SAPS   C2316587   0.490   5.545   5.545
  150SAPS   H3R16588   0.584   5.507   5.500
  150SAPS   H3S16589   0.519   5.634   5.605
  150SAPS   C2416590   0.369   5.574   5.464
  150SAPS   H4R16591   0.387   5.675   5.421
  150SAPS   H4S16592   0.275   5.591   5.521
  150SAPS   C2516593   0.341   5.468   5.359
  150SAPS   H5R16594   0.333   5.369   5.405
  150SAPS   C2616595   0.327   5.479   5.224
  150SAPS   H6R16596   0.306   5.391   5.161
  150SAPS   C2716597   0.326   5.605   5.147
  150SAPS   H7R16598   0.369   5.589   5.046
  150SAPS   H7S16599   0.384   5.687   5.195
  150SAPS   C2816600   0.178   5.661   5.142
  150SAPS   H8R16601   0.140   5.691   5.241
  150SAPS   C2916602   0.114   5.680   5.027
  150SAPS   H9R16603   0.010   5.713   5.039
  150SAPS  C21016604   0.164   5.671   4.891
  150SAPS  H10R16605   0.079   5.647   4.824
  150SAPS  H10S16606   0.235   5.588   4.873
  150SAPS  C21116607   0.225   5.803   4.856
  150SAPS  H11R16608   0.303   5.831   4.928
  150SAPS  C21216609   0.218   5.870   4.737
  150SAPS  H12R16610   0.249   5.975   4.733
  150SAPS  C21316611   0.139   5.832   4.620
  150SAPS  H13R16612   0.115   5.723   4.618
  150SAPS  H13S16613   0.197   5.862   4.531
  150SAPS  C21416614   0.009   5.914   4.619
  150SAPS  H14R16615  -0.069   5.885   4.691
  150SAPS  C21516616  -0.002   6.037   4.557
  150SAPS  H15R16617  -0.096   6.091   4.575
  150SAPS  C21616618   0.107   6.118   4.485
  150SAPS  H16R16619   0.208   6.086   4.520
  150SAPS  H16S16620   0.090   6.223   4.516
  150SAPS  C21716621   0.095   6.111   4.334
  150SAPS  H17R16622  -0.008   6.137   4.301
  150SAPS  H17S16623   0.127   6.007   4.314
  150SAPS  C21816624   0.177   6.220   4.278
  150SAPS  H18R16625   0.279   6.190   4.309
  150SAPS  H18S16626   0.161   6.317   4.329
  150SAPS  C21916627   0.157   6.248   4.136
  150SAPS  H19R16628   0.055   6.288   4.119
  150SAPS  H19S16629   0.165   6.147   4.090
  150SAPS  C22016630   0.263   6.342   4.079
  150SAPS  H20R16631   0.362   6.291   4.075
  150SAPS  H20S16632   0.260   6.440   4.131
  150SAPS  H20T16633   0.234   6.358   3.973
  150SAPS   C3316634   1.006   5.330   5.713
  150SAPS   H3X16635   1.103   5.354   5.761
  150SAPS   H3Y16636   0.939   5.408   5.755
  150SAPS   C3416637   1.012   5.356   5.554
  150SAPS   H4X16638   1.054   5.269   5.499
  150SAPS   H4Y16639   1.075   5.446   5.533
  150SAPS   C3516640   0.877   5.405   5.492
  150SAPS   H5X16641   0.849   5.503   5.536
  150SAPS   H5Y16642   0.790   5.340   5.518
  150SAPS   C3616643   0.898   5.429   5.347
  150SAPS   H6X16644   0.917   5.342   5.281
  150SAPS   H6Y16645   0.992   5.489   5.342
  150SAPS   C3716646   0.777   5.498   5.281
  150SAPS   H7X16647   0.739   5.581   5.345
  150SAPS   H7Y16648   0.687   5.436   5.266
  150SAPS   C3816649   0.815   5.574   5.151
  150SAPS   H8X16650   0.888   5.513   5.093
  150SAPS   H8Y16651   0.864   5.670   5.175
  150SAPS   C3916652   0.698   5.618   5.065
  150SAPS   H9X16653   0.646   5.706   5.109
  150SAPS   H9Y16654   0.628   5.537   5.035
  150SAPS  C31016655   0.738   5.671   4.924
  150SAPS  H10X16656   0.813   5.595   4.892
  150SAPS  H10Y16657   0.783   5.771   4.939
  150SAPS  C31116658   0.619   5.683   4.829
  150SAPS  H11X16659   0.547   5.759   4.868
  150SAPS  H11Y16660   0.570   5.584   4.828
  150SAPS  C31216661   0.654   5.704   4.680
  150SAPS  H12X16662   0.709   5.799   4.665
  150SAPS  H12Y16663   0.563   5.704   4.616
  150SAPS  C31316664   0.746   5.594   4.622
  150SAPS  H13X16665   0.706   5.495   4.653
  150SAPS  H13Y16666   0.848   5.612   4.662
  150SAPS  C31416667   0.744   5.608   4.468
  150SAPS  H14X16668   0.740   5.716   4.445
  150SAPS  H14Y16669   0.650   5.557   4.436
  150SAPS  C31516670   0.873   5.543   4.400
  150SAPS  H15X16671   0.906   5.472   4.478
  150SAPS  H15Y16672   0.948   5.625   4.402
  150SAPS  C31616673   0.851   5.484   4.258
  150SAPS  H16X16674   0.948   5.500   4.206
  150SAPS  H16Y16675   0.776   5.539   4.198
  150SAPS  C31716676   0.841   5.332   4.249
  150SAPS  H17X16677   0.939   5.288   4.278
  150SAPS  H17Y16678   0.824   5.294   4.146
  150SAPS  C31816679   0.714   5.274   4.319
  150SAPS  H18X16680   0.694   5.174   4.277
  150SAPS  H18Y16681   0.638   5.349   4.287
  150SAPS  H18Z16682   0.711   5.275   4.431
  151SAPS     N16683   4.327   4.897   2.087
  151SAPS   HN116684   4.379   4.808   2.100
  151SAPS   HN216685   4.283   4.902   1.993
  151SAPS   HN316686   4.385   4.982   2.100
  151SAPS   C1216687   4.220   4.900   2.191
  151SAPS  H12A16688   4.267   4.899   2.288
  151SAPS   C1316689   4.139   5.027   2.177
  151SAPS  O13A16690   4.179   5.114   2.100
  151SAPS  O13B16691   4.065   5.059   2.271
  151SAPS   C1116692   4.133   4.771   2.180
  151SAPS  H11A16693   4.063   4.776   2.094
  151SAPS  H11B16694   4.070   4.769   2.271
  151SAPS     P16695   4.226   4.554   2.267
  151SAPS   O1316696   4.094   4.496   2.285
  151SAPS   O1416697   4.322   4.447   2.230
  151SAPS   O1216698   4.221   4.657   2.153
  151SAPS   O1116699   4.265   4.631   2.400
  151SAPS    C116700   4.206   4.623   2.526
  151SAPS    HA16701   4.224   4.716   2.585
  151SAPS    HB16702   4.097   4.632   2.507
  151SAPS    C216703   4.226   4.495   2.612
  151SAPS    HS16704   4.200   4.407   2.550
  151SAPS   O2116705   4.134   4.512   2.726
  151SAPS   C2116706   4.105   4.399   2.775
  151SAPS   O2216707   4.104   4.294   2.717
  151SAPS   C2216708   4.052   4.408   2.913
  151SAPS   H2R16709   4.120   4.453   2.989
  151SAPS   H2S16710   3.962   4.473   2.905
  151SAPS    C316711   4.376   4.479   2.664
  151SAPS    HX16712   4.389   4.561   2.738
  151SAPS    HY16713   4.446   4.487   2.578
  151SAPS   O3116714   4.386   4.353   2.739
  151SAPS   C3116715   4.421   4.248   2.677
  151SAPS   O3216716   4.440   4.234   2.560
  151SAPS   C3216717   4.436   4.128   2.776
  151SAPS   H2X16718   4.361   4.053   2.741
  151SAPS   H2Y16719   4.401   4.174   2.871
  151SAPS   C2316720   4.012   4.274   2.984
  151SAPS   H3R16721   4.101   4.211   3.004
  151SAPS   H3S16722   3.947   4.226   2.907
  151SAPS   C2416723   3.943   4.297   3.118
  151SAPS   H4R16724   3.944   4.197   3.167
  151SAPS   H4S16725   3.839   4.329   3.098
  151SAPS   C2516726   4.021   4.393   3.210
  151SAPS   H5R16727   3.986   4.497   3.210
  151SAPS   C2616728   4.098   4.359   3.313
  151SAPS   H6R16729   4.145   4.443   3.367
  151SAPS   C2716730   4.136   4.215   3.347
  151SAPS   H7R16731   4.204   4.171   3.272
  151SAPS   H7S16732   4.043   4.155   3.336
  151SAPS   C2816733   4.194   4.199   3.481
  151SAPS   H8R16734   4.302   4.198   3.500
  151SAPS   C2916735   4.112   4.217   3.592
  151SAPS   H9R16736   4.160   4.216   3.691
  151SAPS  C21016737   3.969   4.257   3.603
  151SAPS  H10R16738   3.912   4.201   3.525
  151SAPS  H10S16739   3.962   4.364   3.575
  151SAPS  C21116740   3.907   4.235   3.735
  151SAPS  H11R16741   3.976   4.258   3.817
  151SAPS  C21216742   3.783   4.189   3.760
  151SAPS  H12R16743   3.752   4.169   3.863
  151SAPS  C21316744   3.674   4.165   3.661
  151SAPS  H13R16745   3.584   4.122   3.711
  151SAPS  H13S16746   3.705   4.073   3.608
  151SAPS  C21416747   3.629   4.283   3.577
  151SAPS  H14R16748   3.698   4.283   3.492
  151SAPS  C21516749   3.518   4.359   3.581
  151SAPS  H15R16750   3.504   4.440   3.508
  151SAPS  C21616751   3.416   4.353   3.695
  151SAPS  H16R16752   3.361   4.257   3.693
  151SAPS  H16S16753   3.345   4.438   3.697
  151SAPS  C21716754   3.482   4.362   3.844
  151SAPS  H17R16755   3.564   4.438   3.850
  151SAPS  H17S16756   3.530   4.269   3.881
  151SAPS  C21816757   3.382   4.402   3.953
  151SAPS  H18R16758   3.285   4.348   3.945
  151SAPS  H18S16759   3.366   4.511   3.942
  151SAPS  C21916760   3.432   4.373   4.095
  151SAPS  H19R16761   3.508   4.451   4.116
  151SAPS  H19S16762   3.477   4.272   4.089
  151SAPS  C22016763   3.306   4.380   4.191
  151SAPS  H20R16764   3.337   4.364   4.296
  151SAPS  H20S16765   3.240   4.293   4.170
  151SAPS  H20T16766   3.259   4.480   4.177
  151SAPS   C3316767   4.579   4.063   2.775
  151SAPS   H3X16768   4.657   4.123   2.827
  151SAPS   H3Y16769   4.608   4.043   2.670
  151SAPS   C3416770   4.562   3.932   2.846
  151SAPS   H4X16771   4.488   3.863   2.799
  151SAPS   H4Y16772   4.516   3.947   2.946
  151SAPS   C3516773   4.692   3.843   2.857
  151SAPS   H5X16774   4.751   3.838   2.764
  151SAPS   H5Y16775   4.657   3.740   2.881
  151SAPS   C3616776   4.786   3.874   2.983
  151SAPS   H6X16777   4.838   3.967   2.951
  151SAPS   H6Y16778   4.864   3.794   2.987
  151SAPS   C3716779   4.731   3.882   3.128
  151SAPS   H7X16780   4.641   3.948   3.133
  151SAPS   H7Y16781   4.811   3.936   3.183
  151SAPS   C3816782   4.711   3.735   3.187
  151SAPS   H8X16783   4.804   3.676   3.173
  151SAPS   H8Y16784   4.636   3.689   3.120
  151SAPS   C3916785   4.658   3.740   3.329
  151SAPS   H9X16786   4.559   3.790   3.340
  151SAPS   H9Y16787   4.722   3.795   3.400
  151SAPS  C31016788   4.631   3.592   3.386
  151SAPS  H10X16789   4.722   3.530   3.372
  151SAPS  H10Y16790   4.551   3.549   3.323
  151SAPS  C31116791   4.592   3.587   3.530
  151SAPS  H11X16792   4.507   3.653   3.556
  151SAPS  H11Y16793   4.681   3.630   3.582
  151SAPS  C31216794   4.556   3.447   3.575
  151SAPS  H12X16795   4.639   3.377   3.554
  151SAPS  H12Y16796   4.478   3.405   3.508
  151SAPS  C31316797   4.526   3.426   3.733
  151SAPS  H13X16798   4.457   3.506   3.768
  151SAPS  H13Y16799   4.621   3.447   3.787
  151SAPS  C31416800   4.462   3.293   3.768
  151SAPS  H14X16801   4.540   3.227   3.724
  151SAPS  H14Y16802   4.360   3.289   3.725
  151SAPS  C31516803   4.446   3.274   3.923
  151SAPS  H15X16804   4.541   3.288   3.980
  151SAPS  H15Y16805   4.430   3.166   3.941
  151SAPS  C31616806   4.338   3.369   3.975
  151SAPS  H16X16807   4.249   3.354   3.911
  151SAPS  H16Y16808   4.369   3.475   3.959
  151SAPS  C31716809   4.313   3.347   4.127
  151SAPS  H17X16810   4.409   3.364   4.180
  151SAPS  H17Y16811   4.288   3.239   4.128
  151SAPS  C31816812   4.190   3.432   4.178
  151SAPS  H18X16813   4.235   3.531   4.160
  151SAPS  H18Y16814   4.158   3.413   4.282
  151SAPS  H18Z16815   4.102   3.417   4.111
  152SAPS     N16816   5.469   4.141   1.979
  152SAPS   HN116817   5.374   4.180   1.990
  152SAPS   HN216818   5.445   4.057   1.922
  152SAPS   HN316819   5.511   4.120   2.072
  152SAPS   C1216820   5.564   4.228   1.902
  152SAPS  H12A16821   5.660   4.199   1.943
  152SAPS   C1316822   5.564   4.213   1.752
  152SAPS  O13A16823   5.471   4.138   1.700
  152SAPS  O13B16824   5.640   4.286   1.680
  152SAPS   C1116825   5.533   4.383   1.926
  152SAPS  H11A16826   5.428   4.398   1.894
  152SAPS  H11B16827   5.611   4.430   1.863
  152SAPS     P16828   5.673   4.504   2.116
  152SAPS   O1316829   5.798   4.437   2.082
  152SAPS   O1416830   5.667   4.635   2.054
  152SAPS   O1216831   5.555   4.412   2.066
  152SAPS   O1116832   5.662   4.525   2.273
  152SAPS    C116833   5.585   4.428   2.345
  152SAPS    HA16834   5.477   4.445   2.326
  152SAPS    HB16835   5.605   4.324   2.313
  152SAPS    C216836   5.615   4.439   2.500
  152SAPS    HS16837   5.549   4.372   2.559
  152SAPS   O2116838   5.608   4.570   2.550
  152SAPS   C2116839   5.487   4.614   2.579
  152SAPS   O2216840   5.383   4.553   2.545
  152SAPS   C2216841   5.501   4.743   2.667
  152SAPS   H2R16842   5.430   4.810   2.614
  152SAPS   H2S16843   5.455   4.709   2.762
  152SAPS    C316844   5.760   4.384   2.529
  152SAPS    HX16845   5.820   4.433   2.450
  152SAPS    HY16846   5.759   4.275   2.507
  152SAPS   O3116847   5.810   4.411   2.661
  152SAPS   C3116848   5.747   4.370   2.765
  152SAPS   O3216849   5.655   4.290   2.767
  152SAPS   C3216850   5.800   4.439   2.890
  152SAPS   H2X16851   5.773   4.546   2.878
  152SAPS   H2Y16852   5.910   4.451   2.884
  152SAPS   C2316853   5.646   4.799   2.695
  152SAPS   H3R16854   5.704   4.806   2.600
  152SAPS   H3S16855   5.705   4.729   2.758
  152SAPS   C2416856   5.648   4.944   2.759
  152SAPS   H4R16857   5.747   4.993   2.751
  152SAPS   H4S16858   5.610   4.935   2.863
  152SAPS   C2516859   5.553   5.044   2.693
  152SAPS   H5R16860   5.501   5.017   2.601
  152SAPS   C2616861   5.530   5.171   2.729
  152SAPS   H6R16862   5.482   5.240   2.658
  152SAPS   C2716863   5.591   5.231   2.854
  152SAPS   H7R16864   5.685   5.277   2.816
  152SAPS   H7S16865   5.630   5.157   2.926
  152SAPS   C2816866   5.499   5.331   2.918
  152SAPS   H8R16867   5.442   5.385   2.841
  152SAPS   C2916868   5.479   5.351   3.047
  152SAPS   H9R16869   5.399   5.421   3.073
  152SAPS  C21016870   5.553   5.283   3.159
  152SAPS  H10R16871   5.596   5.358   3.228
  152SAPS  H10S16872   5.633   5.211   3.131
  152SAPS  C21116873   5.451   5.195   3.231
  152SAPS  H11R16874   5.370   5.159   3.165
  152SAPS  C21216875   5.448   5.152   3.360
  152SAPS  H12R16876   5.365   5.090   3.397
  152SAPS  C21316877   5.544   5.201   3.473
  152SAPS  H13R16878   5.490   5.275   3.537
  152SAPS  H13S16879   5.626   5.264   3.433
  152SAPS  C21416880   5.582   5.083   3.561
  152SAPS  H14R16881   5.672   5.035   3.518
  152SAPS  C21516882   5.523   5.046   3.678
  152SAPS  H15R16883   5.559   4.954   3.727
  152SAPS  C21616884   5.407   5.110   3.748
  152SAPS  H16R16885   5.365   5.191   3.685
  152SAPS  H16S16886   5.434   5.168   3.838
  152SAPS  C21716887   5.295   5.023   3.802
  152SAPS  H17R16888   5.253   4.965   3.717
  152SAPS  H17S16889   5.211   5.080   3.847
  152SAPS  C21816890   5.337   4.916   3.911
  152SAPS  H18R16891   5.435   4.873   3.883
  152SAPS  H18S16892   5.260   4.836   3.906
  152SAPS  C21916893   5.348   4.974   4.047
  152SAPS  H19R16894   5.249   5.016   4.074
  152SAPS  H19S16895   5.432   5.047   4.053
  152SAPS  C22016896   5.387   4.861   4.149
  152SAPS  H20R16897   5.310   4.782   4.166
  152SAPS  H20S16898   5.484   4.810   4.132
  152SAPS  H20T16899   5.398   4.911   4.248
  152SAPS   C3316900   5.764   4.386   3.027
  152SAPS   H3X16901   5.807   4.284   3.042
  152SAPS   H3Y16902   5.653   4.377   3.028
  152SAPS   C3416903   5.798   4.479   3.149
  152SAPS   H4X16904   5.769   4.582   3.121
  152SAPS   H4Y16905   5.909   4.486   3.147
  152SAPS   C3516906   5.736   4.423   3.277
  152SAPS   H5X16907   5.766   4.319   3.301
  152SAPS   H5Y16908   5.627   4.420   3.260
  152SAPS   C3616909   5.782   4.506   3.403
  152SAPS   H6X16910   5.733   4.605   3.389
  152SAPS   H6Y16911   5.891   4.520   3.416
  152SAPS   C3716912   5.725   4.446   3.531
  152SAPS   H7X16913   5.625   4.405   3.507
  152SAPS   H7Y16914   5.711   4.520   3.612
  152SAPS   C3816915   5.811   4.340   3.592
  152SAPS   H8X16916   5.909   4.390   3.609
  152SAPS   H8Y16917   5.818   4.243   3.539
  152SAPS   C3916918   5.747   4.302   3.727
  152SAPS   H9X16919   5.639   4.296   3.705
  152SAPS   H9Y16920   5.769   4.383   3.800
  152SAPS  C31016921   5.793   4.173   3.797
  152SAPS  H10X16922   5.899   4.166   3.829
  152SAPS  H10Y16923   5.778   4.093   3.722
  152SAPS  C31116924   5.707   4.142   3.920
  152SAPS  H11X16925   5.603   4.165   3.889
  152SAPS  H11Y16926   5.741   4.198   4.010
  152SAPS  C31216927   5.702   3.994   3.969
  152SAPS  H12X16928   5.806   3.959   3.990
  152SAPS  H12Y16929   5.670   3.938   3.878
  152SAPS  C31316930   5.605   3.980   4.085
  152SAPS  H13X16931   5.501   3.989   4.047
  152SAPS  H13Y16932   5.612   4.068   4.152
  152SAPS  C31416933   5.621   3.858   4.180
  152SAPS  H14X16934   5.550   3.854   4.265
  152SAPS  H14Y16935   5.720   3.871   4.227
  152SAPS  C31516936   5.609   3.721   4.111
  152SAPS  H15X16937   5.677   3.714   4.023
  152SAPS  H15Y16938   5.642   3.643   4.184
  152SAPS  C31616939   5.459   3.697   4.067
  152SAPS  H16X16940   5.431   3.776   3.994
  152SAPS  H16Y16941   5.388   3.720   4.149
  152SAPS  C31716942   5.431   3.549   4.026
  152SAPS  H17X16943   5.433   3.486   4.117
  152SAPS  H17Y16944   5.513   3.514   3.960
  152SAPS  C31816945   5.300   3.523   3.950
  152SAPS  H18X16946   5.278   3.415   3.946
  152SAPS  H18Y16947   5.320   3.574   3.853
  152SAPS  H18Z16948   5.215   3.579   3.994
  153SAPS     N16949   2.350   5.723   1.631
  153SAPS   HN116950   2.340   5.621   1.647
  153SAPS   HN216951   2.424   5.748   1.562
  153SAPS   HN316952   2.347   5.776   1.721
  153SAPS   C1216953   2.238   5.747   1.542
  153SAPS  H12A16954   2.221   5.853   1.529
  153SAPS   C1316955   2.264   5.696   1.397
  153SAPS  O13A16956   2.378   5.651   1.362
  153SAPS  O13B16957   2.181   5.723   1.308
  153SAPS   C1116958   2.105   5.685   1.602
  153SAPS  H11A16959   2.085   5.582   1.564
  153SAPS  H11B16960   2.029   5.740   1.543
  153SAPS     P16961   1.987   5.624   1.826
  153SAPS   O1316962   1.888   5.720   1.878
  153SAPS   O1416963   1.931   5.513   1.744
  153SAPS   O1216964   2.093   5.702   1.742
  153SAPS   O1116965   2.067   5.562   1.949
  153SAPS    C116966   2.118   5.651   2.052
  153SAPS    HA16967   2.151   5.746   2.004
  153SAPS    HB16968   2.031   5.675   2.116
  153SAPS    C216969   2.243   5.599   2.129
  153SAPS    HS16970   2.207   5.512   2.187
  153SAPS   O2116971   2.305   5.700   2.215
  153SAPS   C2116972   2.224   5.741   2.309
  153SAPS   O2216973   2.120   5.688   2.343
  153SAPS   C2216974   2.270   5.872   2.365
  153SAPS   H2R16975   2.282   5.946   2.284
  153SAPS   H2S16976   2.214   5.913   2.452
  153SAPS    C316977   2.342   5.530   2.031
  153SAPS    HX16978   2.392   5.616   1.981
  153SAPS    HY16979   2.285   5.487   1.946
  153SAPS   O3116980   2.439   5.444   2.092
  153SAPS   C3116981   2.399   5.318   2.129
  153SAPS   O3216982   2.291   5.267   2.099
  153SAPS   C3216983   2.507   5.249   2.213
  153SAPS   H2X16984   2.604   5.298   2.191
  153SAPS   H2Y16985   2.523   5.152   2.162
  153SAPS   C2316986   2.414   5.872   2.426
  153SAPS   H3R16987   2.422   5.976   2.464
  153SAPS   H3S16988   2.490   5.879   2.346
  153SAPS   C2416989   2.437   5.753   2.522
  153SAPS   H4R16990   2.416   5.664   2.459
  153SAPS   H4S16991   2.354   5.749   2.596
  153SAPS   C2516992   2.575   5.752   2.579
  153SAPS   H5R16993   2.649   5.715   2.505
  153SAPS   C2616994   2.597   5.774   2.710
  153SAPS   H6R16995   2.701   5.768   2.747
  153SAPS   C2716996   2.486   5.812   2.802
  153SAPS   H7R16997   2.430   5.718   2.821
  153SAPS   H7S16998   2.421   5.886   2.749
  153SAPS   C2816999   2.535   5.869   2.934
  153SAPS   H8R17000   2.645   5.877   2.940
  153SAPS   C2917001   2.456   5.909   3.032
  153SAPS   H9R17002   2.505   5.937   3.127
  153SAPS  C21017003   2.308   5.894   3.043
  153SAPS  H10R17004   2.268   5.857   3.139
  153SAPS  H10S17005   2.275   5.821   2.966
  153SAPS  C21117006   2.223   6.012   3.000
  153SAPS  H11R17007   2.173   6.004   2.902
  153SAPS  C21217008   2.200   6.120   3.086
  153SAPS  H12R17009   2.137   6.201   3.047
  153SAPS  C21317010   2.237   6.135   3.229
  153SAPS  H13R17011   2.263   6.243   3.234
  153SAPS  H13S17012   2.337   6.089   3.243
  153SAPS  C21417013   2.130   6.094   3.333
  153SAPS  H14R17014   2.030   6.139   3.335
  153SAPS  C21517015   2.144   5.993   3.421
  153SAPS  H15R17016   2.062   5.975   3.492
  153SAPS  C21617017   2.261   5.903   3.442
  153SAPS  H16R17018   2.343   5.939   3.377
  153SAPS  H16S17019   2.239   5.800   3.406
  153SAPS  C21717020   2.319   5.890   3.587
  153SAPS  H17R17021   2.306   5.995   3.621
  153SAPS  H17S17022   2.428   5.872   3.591
  153SAPS  C21817023   2.242   5.800   3.693
  153SAPS  H18R17024   2.251   5.694   3.661
  153SAPS  H18S17025   2.132   5.817   3.700
  153SAPS  C21917026   2.289   5.813   3.839
  153SAPS  H19R17027   2.398   5.795   3.848
  153SAPS  H19S17028   2.248   5.734   3.904
  153SAPS  C22017029   2.265   5.946   3.906
  153SAPS  H20R17030   2.177   6.005   3.873
  153SAPS  H20S17031   2.349   6.012   3.874
  153SAPS  H20T17032   2.271   5.935   4.016
  153SAPS   C3317033   2.474   5.234   2.366
  153SAPS   H3X17034   2.539   5.166   2.425
  153SAPS   H3Y17035   2.370   5.204   2.393
  153SAPS   C3417036   2.487   5.372   2.435
  153SAPS   H4X17037   2.404   5.440   2.407
  153SAPS   H4Y17038   2.577   5.418   2.389
  153SAPS   C3517039   2.493   5.368   2.592
  153SAPS   H5X17040   2.416   5.302   2.637
  153SAPS   H5Y17041   2.460   5.470   2.619
  153SAPS   C3617042   2.626   5.322   2.643
  153SAPS   H6X17043   2.694   5.313   2.556
  153SAPS   H6Y17044   2.622   5.220   2.686
  153SAPS   C3717045   2.693   5.417   2.750
  153SAPS   H7X17046   2.710   5.515   2.702
  153SAPS   H7Y17047   2.790   5.364   2.763
  153SAPS   C3817048   2.618   5.439   2.874
  153SAPS   H8X17049   2.595   5.335   2.906
  153SAPS   H8Y17050   2.515   5.476   2.852
  153SAPS   C3917051   2.692   5.518   2.981
  153SAPS   H9X17052   2.703   5.622   2.944
  153SAPS   H9Y17053   2.797   5.480   2.983
  153SAPS  C31017054   2.623   5.504   3.119
  153SAPS  H10X17055   2.606   5.401   3.156
  153SAPS  H10Y17056   2.522   5.549   3.118
  153SAPS  C31117057   2.696   5.574   3.241
  153SAPS  H11X17058   2.708   5.682   3.221
  153SAPS  H11Y17059   2.794   5.525   3.260
  153SAPS  C31217060   2.614   5.547   3.369
  153SAPS  H12X17061   2.615   5.437   3.387
  153SAPS  H12Y17062   2.506   5.571   3.355
  153SAPS  C31317063   2.672   5.617   3.493
  153SAPS  H13X17064   2.653   5.725   3.476
  153SAPS  H13Y17065   2.779   5.587   3.498
  153SAPS  C31417066   2.601   5.564   3.614
  153SAPS  H14X17067   2.627   5.457   3.629
  153SAPS  H14Y17068   2.491   5.577   3.604
  153SAPS  C31517069   2.650   5.639   3.741
  153SAPS  H15X17070   2.625   5.746   3.726
  153SAPS  H15Y17071   2.760   5.627   3.748
  153SAPS  C31617072   2.587   5.607   3.877
  153SAPS  H16X17073   2.602   5.501   3.906
  153SAPS  H16Y17074   2.478   5.619   3.863
  153SAPS  C31717075   2.624   5.709   3.991
  153SAPS  H17X17076   2.590   5.807   3.951
  153SAPS  H17Y17077   2.729   5.730   4.021
  153SAPS  C31817078   2.534   5.691   4.112
  153SAPS  H18X17079   2.577   5.614   4.180
  153SAPS  H18Y17080   2.429   5.663   4.088
  153SAPS  H18Z17081   2.522   5.785   4.171
  154SAPS     N17082   0.844   4.894   1.483
  154SAPS   HN117083   0.743   4.908   1.503
  154SAPS   HN217084   0.870   4.953   1.401
  154SAPS   HN317085   0.850   4.795   1.453
  154SAPS   C1217086   0.935   4.925   1.604
  154SAPS  H12A17087   0.909   4.870   1.693
  154SAPS   C1317088   1.080   4.894   1.577
  154SAPS  O13A17089   1.107   4.808   1.488
  154SAPS  O13B17090   1.176   4.963   1.626
  154SAPS   C1117091   0.926   5.078   1.641
  154SAPS  H11A17092   0.975   5.128   1.555
  154SAPS  H11B17093   0.986   5.118   1.725
  154SAPS     P17094   0.700   5.106   1.779
  154SAPS   O1317095   0.631   5.229   1.817
  154SAPS   O1417096   0.615   4.991   1.755
  154SAPS   O1217097   0.792   5.119   1.647
  154SAPS   O1117098   0.814   5.072   1.899
  154SAPS    C117099   0.768   4.999   2.011
  154SAPS    HA17100   0.688   4.925   1.991
  154SAPS    HB17101   0.850   4.944   2.062
  154SAPS    C217102   0.697   5.096   2.108
  154SAPS    HS17103   0.614   5.150   2.057
  154SAPS   O2117104   0.791   5.194   2.153
  154SAPS   C2117105   0.738   5.301   2.208
  154SAPS   O2217106   0.622   5.334   2.203
  154SAPS   C2217107   0.850   5.369   2.293
  154SAPS   H2R17108   0.936   5.300   2.311
  154SAPS   H2S17109   0.875   5.464   2.241
  154SAPS    C317110   0.642   5.007   2.223
  154SAPS    HX17111   0.726   4.950   2.267
  154SAPS    HY17112   0.587   4.925   2.172
  154SAPS   O3117113   0.570   5.074   2.331
  154SAPS   C3117114   0.462   5.139   2.283
  154SAPS   O3217115   0.414   5.125   2.177
  154SAPS   C3217116   0.393   5.218   2.389
  154SAPS   H2X17117   0.296   5.254   2.351
  154SAPS   H2Y17118   0.465   5.297   2.421
  154SAPS   C2317119   0.795   5.403   2.435
  154SAPS   H3R17120   0.694   5.446   2.426
  154SAPS   H3S17121   0.867   5.468   2.488
  154SAPS   C2417122   0.784   5.267   2.517
  154SAPS   H4R17123   0.756   5.181   2.452
  154SAPS   H4S17124   0.691   5.269   2.577
  154SAPS   C2517125   0.904   5.232   2.596
  154SAPS   H5R17126   0.990   5.192   2.540
  154SAPS   C2617127   0.918   5.254   2.729
  154SAPS   H6R17128   1.017   5.233   2.774
  154SAPS   C2717129   0.816   5.316   2.824
  154SAPS   H7R17130   0.786   5.241   2.901
  154SAPS   H7S17131   0.727   5.350   2.768
  154SAPS   C2817132   0.855   5.439   2.902
  154SAPS   H8R17133   0.830   5.537   2.858
  154SAPS   C2917134   0.915   5.434   3.020
  154SAPS   H9R17135   0.922   5.529   3.074
  154SAPS  C21017136   0.960   5.300   3.086
  154SAPS  H10R17137   0.978   5.218   3.013
  154SAPS  H10S17138   0.873   5.262   3.143
  154SAPS  C21117139   1.083   5.323   3.168
  154SAPS  H11R17140   1.166   5.372   3.116
  154SAPS  C21217141   1.102   5.300   3.300
  154SAPS  H12R17142   1.195   5.338   3.345
  154SAPS  C21317143   1.008   5.245   3.404
  154SAPS  H13R17144   0.904   5.259   3.365
  154SAPS  H13S17145   1.010   5.305   3.497
  154SAPS  C21417146   1.033   5.099   3.436
  154SAPS  H14R17147   0.978   5.031   3.370
  154SAPS  C21517148   1.117   5.064   3.533
  154SAPS  H15R17149   1.125   4.960   3.569
  154SAPS  C21617150   1.198   5.160   3.621
  154SAPS  H16R17151   1.141   5.231   3.684
  154SAPS  H16S17152   1.254   5.221   3.547
  154SAPS  C21717153   1.312   5.087   3.702
  154SAPS  H17R17154   1.404   5.148   3.713
  154SAPS  H17S17155   1.340   4.994   3.647
  154SAPS  C21817156   1.257   5.042   3.838
  154SAPS  H18R17157   1.321   4.961   3.879
  154SAPS  H18S17158   1.159   4.993   3.820
  154SAPS  C21917159   1.244   5.152   3.946
  154SAPS  H19R17160   1.198   5.241   3.898
  154SAPS  H19S17161   1.346   5.181   3.980
  154SAPS  C22017162   1.185   5.107   4.081
  154SAPS  H20R17163   1.078   5.133   4.093
  154SAPS  H20S17164   1.235   5.157   4.167
  154SAPS  H20T17165   1.201   4.998   4.094
  154SAPS   C3317166   0.376   5.144   2.525
  154SAPS   H3X17167   0.471   5.101   2.563
  154SAPS   H3Y17168   0.313   5.054   2.508
  154SAPS   C3417169   0.305   5.231   2.630
  154SAPS   H4X17170   0.231   5.289   2.570
  154SAPS   H4Y17171   0.387   5.294   2.672
  154SAPS   C3517172   0.253   5.149   2.741
  154SAPS   H5X17173   0.179   5.075   2.706
  154SAPS   H5Y17174   0.211   5.209   2.824
  154SAPS   C3617175   0.371   5.084   2.815
  154SAPS   H6X17176   0.445   5.157   2.853
  154SAPS   H6Y17177   0.427   5.022   2.742
  154SAPS   C3717178   0.328   4.998   2.940
  154SAPS   H7X17179   0.272   4.907   2.913
  154SAPS   H7Y17180   0.259   5.063   2.999
  154SAPS   C3817181   0.445   4.939   3.025
  154SAPS   H8X17182   0.541   4.993   3.034
  154SAPS   H8Y17183   0.470   4.842   2.977
  154SAPS   C3917184   0.405   4.906   3.166
  154SAPS   H9X17185   0.375   5.000   3.219
  154SAPS   H9Y17186   0.497   4.867   3.214
  154SAPS  C31017187   0.286   4.805   3.168
  154SAPS  H10X17188   0.311   4.729   3.092
  154SAPS  H10Y17189   0.191   4.852   3.136
  154SAPS  C31117190   0.261   4.746   3.299
  154SAPS  H11X17191   0.357   4.705   3.337
  154SAPS  H11Y17192   0.187   4.664   3.284
  154SAPS  C31217193   0.211   4.841   3.409
  154SAPS  H12X17194   0.138   4.915   3.370
  154SAPS  H12Y17195   0.301   4.896   3.445
  154SAPS  C31317196   0.146   4.760   3.516
  154SAPS  H13X17197   0.209   4.669   3.513
  154SAPS  H13Y17198   0.046   4.731   3.477
  154SAPS  C31417199   0.153   4.822   3.652
  154SAPS  H14X17200   0.236   4.896   3.655
  154SAPS  H14Y17201   0.179   4.730   3.708
  154SAPS  C31517202   0.033   4.892   3.718
  154SAPS  H15X17203   0.011   4.977   3.650
  154SAPS  H15Y17204   0.068   4.934   3.815
  154SAPS  C31617205  -0.107   4.819   3.728
  154SAPS  H16X17206  -0.142   4.812   3.623
  154SAPS  H16Y17207  -0.169   4.882   3.794
  154SAPS  C31717208  -0.094   4.674   3.781
  154SAPS  H17X17209  -0.037   4.602   3.718
  154SAPS  H17Y17210  -0.195   4.628   3.775
  154SAPS  C31817211  -0.045   4.659   3.926
  154SAPS  H18X17212  -0.067   4.560   3.970
  154SAPS  H18Y17213  -0.104   4.738   3.978
  154SAPS  H18Z17214   0.061   4.683   3.946
  155SAPS     N17215   1.821   1.068   2.046
  155SAPS   HN117216   1.744   0.998   2.052
  155SAPS   HN217217   1.884   1.062   2.128
  155SAPS   HN317218   1.774   1.160   2.033
  155SAPS   C1217219   1.886   1.030   1.917
  155SAPS  H12A17220   1.926   0.930   1.923
  155SAPS   C1317221   1.798   1.034   1.797
  155SAPS  O13A17222   1.675   1.070   1.801
  155SAPS  O13B17223   1.847   0.999   1.684
  155SAPS   C1117224   2.007   1.118   1.887
  155SAPS  H11A17225   1.981   1.219   1.851
  155SAPS  H11B17226   2.066   1.069   1.807
  155SAPS     P17227   2.219   1.185   2.015
  155SAPS   O1317228   2.241   1.274   1.898
  155SAPS   O1417229   2.239   1.239   2.151
  155SAPS   O1217230   2.081   1.133   2.006
  155SAPS   O1117231   2.299   1.050   1.987
  155SAPS    C117232   2.316   0.934   2.063
  155SAPS    HA17233   2.236   0.908   2.134
  155SAPS    HB17234   2.309   0.845   1.997
  155SAPS    C217235   2.443   0.933   2.149
  155SAPS    HS17236   2.457   0.830   2.188
  155SAPS   O2117237   2.437   1.037   2.252
  155SAPS   C2117238   2.344   1.023   2.340
  155SAPS   O2217239   2.269   0.931   2.362
  155SAPS   C2217240   2.346   1.137   2.435
  155SAPS   H2R17241   2.449   1.168   2.465
  155SAPS   H2S17242   2.302   1.228   2.389
  155SAPS    C317243   2.575   0.961   2.062
  155SAPS    HX17244   2.574   1.068   2.032
  155SAPS    HY17245   2.568   0.903   1.967
  155SAPS   O3117246   2.699   0.940   2.131
  155SAPS   C3117247   2.739   0.814   2.124
  155SAPS   O3217248   2.676   0.720   2.076
  155SAPS   C3217249   2.875   0.796   2.193
  155SAPS   H2X17250   2.933   0.718   2.140
  155SAPS   H2Y17251   2.848   0.769   2.297
  155SAPS   C2317252   2.284   1.089   2.566
  155SAPS   H3R17253   2.320   0.990   2.602
  155SAPS   H3S17254   2.175   1.094   2.545
  155SAPS   C2417255   2.307   1.200   2.669
  155SAPS   H4R17256   2.230   1.176   2.746
  155SAPS   H4S17257   2.290   1.300   2.625
  155SAPS   C2517258   2.445   1.191   2.735
  155SAPS   H5R17259   2.526   1.198   2.661
  155SAPS   C2617260   2.475   1.157   2.863
  155SAPS   H6R17261   2.572   1.187   2.905
  155SAPS   C2717262   2.362   1.140   2.964
  155SAPS   H7R17263   2.274   1.195   2.924
  155SAPS   H7S17264   2.394   1.185   3.061
  155SAPS   C2817265   2.323   0.994   2.984
  155SAPS   H8R17266   2.288   0.941   2.894
  155SAPS   C2917267   2.338   0.925   3.097
  155SAPS   H9R17268   2.304   0.821   3.088
  155SAPS  C21017269   2.396   0.978   3.232
  155SAPS  H10R17270   2.376   1.086   3.245
  155SAPS  H10S17271   2.505   0.963   3.224
  155SAPS  C21117272   2.345   0.901   3.354
  155SAPS  H11R17273   2.239   0.916   3.378
  155SAPS  C21217274   2.426   0.845   3.451
  155SAPS  H12R17275   2.373   0.795   3.534
  155SAPS  C21317276   2.580   0.838   3.447
  155SAPS  H13R17277   2.624   0.820   3.548
  155SAPS  H13S17278   2.607   0.941   3.418
  155SAPS  C21417279   2.628   0.734   3.356
  155SAPS  H14R17280   2.555   0.652   3.347
  155SAPS  C21517281   2.747   0.723   3.303
  155SAPS  H15R17282   2.759   0.637   3.235
  155SAPS  C21617283   2.870   0.823   3.313
  155SAPS  H16R17284   2.958   0.787   3.370
  155SAPS  H16S17285   2.844   0.924   3.350
  155SAPS  C21717286   2.929   0.858   3.174
  155SAPS  H17R17287   2.974   0.765   3.132
  155SAPS  H17S17288   3.001   0.941   3.183
  155SAPS  C21817289   2.821   0.925   3.074
  155SAPS  H18R17290   2.772   1.003   3.138
  155SAPS  H18S17291   2.742   0.849   3.060
  155SAPS  C21917292   2.876   0.960   2.928
  155SAPS  H19R17293   2.959   1.034   2.928
  155SAPS  H19S17294   2.786   1.001   2.879
  155SAPS  C22017295   2.932   0.838   2.848
  155SAPS  H20R17296   2.977   0.869   2.751
  155SAPS  H20S17297   2.852   0.768   2.817
  155SAPS  H20T17298   3.018   0.796   2.905
  155SAPS   C3317299   2.962   0.923   2.184
  155SAPS   H3X17300   2.911   1.003   2.243
  155SAPS   H3Y17301   2.967   0.946   2.076
  155SAPS   C3417302   3.100   0.900   2.243
  155SAPS   H4X17303   3.161   0.824   2.188
  155SAPS   H4Y17304   3.076   0.849   2.339
  155SAPS   C3517305   3.179   1.026   2.269
  155SAPS   H5X17306   3.112   1.104   2.311
  155SAPS   H5Y17307   3.217   1.074   2.176
  155SAPS   C3617308   3.285   0.992   2.374
  155SAPS   H6X17309   3.356   1.076   2.362
  155SAPS   H6Y17310   3.333   0.893   2.361
  155SAPS   C3717311   3.246   1.000   2.527
  155SAPS   H7X17312   3.160   0.931   2.536
  155SAPS   H7Y17313   3.214   1.105   2.537
  155SAPS   C3817314   3.354   0.959   2.629
  155SAPS   H8X17315   3.435   1.035   2.627
  155SAPS   H8Y17316   3.395   0.861   2.595
  155SAPS   C3917317   3.297   0.935   2.773
  155SAPS   H9X17318   3.383   0.877   2.814
  155SAPS   H9Y17319   3.206   0.873   2.762
  155SAPS  C31017320   3.292   1.061   2.860
  155SAPS  H10X17321   3.200   1.110   2.821
  155SAPS  H10Y17322   3.374   1.136   2.855
  155SAPS  C31117323   3.258   1.034   3.006
  155SAPS  H11X17324   3.200   0.940   3.017
  155SAPS  H11Y17325   3.193   1.118   3.037
  155SAPS  C31217326   3.382   1.006   3.094
  155SAPS  H12X17327   3.438   1.099   3.120
  155SAPS  H12Y17328   3.464   0.959   3.036
  155SAPS  C31317329   3.364   0.929   3.229
  155SAPS  H13X17330   3.455   0.909   3.289
  155SAPS  H13Y17331   3.316   0.833   3.201
  155SAPS  C31417332   3.271   1.004   3.326
  155SAPS  H14X17333   3.175   1.010   3.270
  155SAPS  H14Y17334   3.308   1.107   3.347
  155SAPS  C31517335   3.245   0.911   3.453
  155SAPS  H15X17336   3.338   0.907   3.515
  155SAPS  H15Y17337   3.229   0.807   3.418
  155SAPS  C31617338   3.129   0.970   3.539
  155SAPS  H16X17339   3.038   1.010   3.488
  155SAPS  H16Y17340   3.173   1.053   3.598
  155SAPS  C31717341   3.077   0.867   3.641
  155SAPS  H17X17342   3.161   0.827   3.701
  155SAPS  H17Y17343   3.031   0.786   3.581
  155SAPS  C31817344   2.986   0.934   3.738
  155SAPS  H18X17345   2.900   0.981   3.685
  155SAPS  H18Y17346   3.049   1.013   3.784
  155SAPS  H18Z17347   2.953   0.865   3.819
  156SAPS     N17348   6.838   6.004   2.053
  156SAPS   HN117349   6.770   6.082   2.067
  156SAPS   HN217350   6.802   5.914   2.089
  156SAPS   HN317351   6.922   6.035   2.107
  156SAPS   C1217352   6.880   6.002   1.910
  156SAPS  H12A17353   6.945   5.916   1.904
  156SAPS   C1317354   6.769   5.977   1.808
  156SAPS  O13A17355   6.648   5.993   1.846
  156SAPS  O13B17356   6.795   5.945   1.689
  156SAPS   C1117357   6.950   6.145   1.876
  156SAPS  H11A17358   6.873   6.223   1.894
  156SAPS  H11B17359   6.985   6.143   1.770
  156SAPS     P17360   7.120   6.306   1.980
  156SAPS   O1317361   7.178   6.365   1.857
  156SAPS   O1417362   7.008   6.382   2.045
  156SAPS   O1217363   7.058   6.162   1.959
  156SAPS   O1117364   7.236   6.288   2.085
  156SAPS    C117365   7.327   6.178   2.072
  156SAPS    HA17366   7.340   6.150   1.965
  156SAPS    HB17367   7.424   6.213   2.115
  156SAPS    C217368   7.275   6.060   2.159
  156SAPS    HS17369   7.186   6.023   2.104
  156SAPS   O2117370   7.227   6.115   2.282
  156SAPS   C2117371   7.098   6.137   2.299
  156SAPS   O2217372   7.015   6.086   2.226
  156SAPS   C2217373   7.066   6.243   2.406
  156SAPS   H2R17374   7.162   6.259   2.460
  156SAPS   H2S17375   7.047   6.347   2.370
  156SAPS    C317376   7.384   5.956   2.185
  156SAPS    HX17377   7.402   5.891   2.097
  156SAPS    HY17378   7.356   5.882   2.263
  156SAPS   O3117379   7.507   6.016   2.231
  156SAPS   C3117380   7.609   5.926   2.250
  156SAPS   O3217381   7.612   5.811   2.212
  156SAPS   C3217382   7.734   5.987   2.311
  156SAPS   H2X17383   7.721   6.091   2.349
  156SAPS   H2Y17384   7.798   5.997   2.221
  156SAPS   C2317385   6.953   6.202   2.502
  156SAPS   H3R17386   6.860   6.181   2.445
  156SAPS   H3S17387   6.933   6.292   2.564
  156SAPS   C2417388   7.001   6.095   2.608
  156SAPS   H4R17389   7.061   6.020   2.553
  156SAPS   H4S17390   6.908   6.050   2.648
  156SAPS   C2517391   7.088   6.153   2.720
  156SAPS   H5R17392   7.189   6.186   2.691
  156SAPS   C2617393   7.047   6.163   2.849
  156SAPS   H6R17394   7.112   6.214   2.922
  156SAPS   C2717395   6.905   6.137   2.898
  156SAPS   H7R17396   6.882   6.028   2.890
  156SAPS   H7S17397   6.837   6.179   2.821
  156SAPS   C2817398   6.877   6.177   3.037
  156SAPS   H8R17399   6.958   6.157   3.108
  156SAPS   C2917400   6.763   6.235   3.082
  156SAPS   H9R17401   6.738   6.243   3.189
  156SAPS  C21017402   6.638   6.271   3.006
  156SAPS  H10R17403   6.652   6.279   2.896
  156SAPS  H10S17404   6.600   6.367   3.046
  156SAPS  C21117405   6.532   6.164   3.016
  156SAPS  H11R17406   6.520   6.123   2.914
  156SAPS  C21217407   6.466   6.120   3.127
  156SAPS  H12R17408   6.409   6.027   3.113
  156SAPS  C21317409   6.476   6.166   3.271
  156SAPS  H13R17410   6.576   6.210   3.289
  156SAPS  H13S17411   6.492   6.073   3.330
  156SAPS  C21417412   6.349   6.235   3.308
  156SAPS  H14R17413   6.250   6.196   3.280
  156SAPS  C21517414   6.337   6.337   3.396
  156SAPS  H15R17415   6.236   6.370   3.422
  156SAPS  C21617416   6.447   6.408   3.472
  156SAPS  H16R17417   6.445   6.519   3.468
  156SAPS  H16S17418   6.547   6.389   3.428
  156SAPS  C21717419   6.464   6.364   3.618
  156SAPS  H17R17420   6.496   6.258   3.620
  156SAPS  H17S17421   6.368   6.380   3.672
  156SAPS  C21817422   6.573   6.435   3.706
  156SAPS  H18R17423   6.545   6.540   3.730
  156SAPS  H18S17424   6.665   6.437   3.643
  156SAPS  C21917425   6.602   6.367   3.836
  156SAPS  H19R17426   6.701   6.397   3.877
  156SAPS  H19S17427   6.617   6.262   3.803
  156SAPS  C22017428   6.495   6.384   3.946
  156SAPS  H20R17429   6.392   6.376   3.904
  156SAPS  H20S17430   6.499   6.488   3.985
  156SAPS  H20T17431   6.503   6.312   4.030
  156SAPS   C3317432   7.825   5.900   2.407
  156SAPS   H3X17433   7.931   5.895   2.374
  156SAPS   H3Y17434   7.776   5.801   2.409
  156SAPS   C3417435   7.807   5.944   2.555
  156SAPS   H4X17436   7.704   5.929   2.595
  156SAPS   H4Y17437   7.816   6.054   2.563
  156SAPS   C3517438   7.900   5.873   2.647
  156SAPS   H5X17439   8.004   5.909   2.631
  156SAPS   H5Y17440   7.894   5.762   2.649
  156SAPS   C3617441   7.866   5.907   2.795
  156SAPS   H6X17442   7.755   5.911   2.798
  156SAPS   H6Y17443   7.898   6.012   2.813
  156SAPS   C3717444   7.930   5.821   2.906
  156SAPS   H7X17445   8.025   5.874   2.929
  156SAPS   H7Y17446   7.958   5.717   2.878
  156SAPS   C3817447   7.849   5.831   3.029
  156SAPS   H8X17448   7.755   5.773   3.023
  156SAPS   H8Y17449   7.813   5.936   3.026
  156SAPS   C3917450   7.923   5.784   3.157
  156SAPS   H9X17451   7.988   5.870   3.186
  156SAPS   H9Y17452   7.986   5.695   3.137
  156SAPS  C31017453   7.825   5.743   3.267
  156SAPS  H10X17454   7.734   5.705   3.215
  156SAPS  H10Y17455   7.797   5.836   3.321
  156SAPS  C31117456   7.899   5.652   3.365
  156SAPS  H11X17457   7.993   5.700   3.398
  156SAPS  H11Y17458   7.932   5.553   3.326
  156SAPS  C31217459   7.821   5.634   3.500
  156SAPS  H12X17460   7.722   5.592   3.472
  156SAPS  H12Y17461   7.801   5.728   3.554
  156SAPS  C31317462   7.868   5.512   3.587
  156SAPS  H13X17463   7.861   5.426   3.516
  156SAPS  H13Y17464   7.791   5.504   3.668
  156SAPS  C31417465   8.012   5.532   3.639
  156SAPS  H14X17466   8.036   5.638   3.618
  156SAPS  H14Y17467   8.087   5.480   3.575
  156SAPS  C31517468   8.032   5.497   3.789
  156SAPS  H15X17469   8.034   5.386   3.788
  156SAPS  H15Y17470   7.950   5.543   3.849
  156SAPS  C31617471   8.168   5.547   3.837
  156SAPS  H16X17472   8.208   5.649   3.823
  156SAPS  H16Y17473   8.240   5.482   3.782
  156SAPS  C31717474   8.180   5.519   3.984
  156SAPS  H17X17475   8.135   5.418   3.992
  156SAPS  H17Y17476   8.115   5.576   4.054
  156SAPS  C31817477   8.318   5.539   4.032
  156SAPS  H18X17478   8.391   5.486   3.967
  156SAPS  H18Y17479   8.315   5.491   4.133
  156SAPS  H18Z17480   8.341   5.647   4.042
  157SAPS     N17481   6.427   6.004   2.007
  157SAPS   HN117482   6.431   6.102   2.042
  157SAPS   HN217483   6.449   5.943   2.088
  157SAPS   HN317484   6.489   5.994   1.924
  157SAPS   C1217485   6.289   5.982   1.955
  157SAPS  H12A17486   6.221   5.985   2.039
  157SAPS   C1317487   6.229   6.083   1.859
  157SAPS  O13A17488   6.294   6.188   1.842
  157SAPS  O13B17489   6.107   6.076   1.838
  157SAPS   C1117490   6.293   5.835   1.889
  157SAPS  H11A17491   6.366   5.845   1.806
  157SAPS  H11B17492   6.197   5.832   1.835
  157SAPS     P17493   6.404   5.607   1.953
  157SAPS   O1317494   6.325   5.504   1.886
  157SAPS   O1417495   6.516   5.658   1.874
  157SAPS   O1217496   6.311   5.729   1.982
  157SAPS   O1117497   6.449   5.561   2.104
  157SAPS    C117498   6.345   5.539   2.200
  157SAPS    HA17499   6.252   5.492   2.160
  157SAPS    HB17500   6.389   5.453   2.254
  157SAPS    C217501   6.322   5.663   2.286
  157SAPS    HS17502   6.294   5.750   2.222
  157SAPS   O2117503   6.446   5.688   2.355
  157SAPS   C2117504   6.526   5.785   2.311
  157SAPS   O2217505   6.512   5.855   2.215
  157SAPS   C2217506   6.642   5.806   2.410
  157SAPS   H2R17507   6.703   5.713   2.412
  157SAPS   H2S17508   6.712   5.886   2.380
  157SAPS    C317509   6.196   5.649   2.383
  157SAPS    HX17510   6.187   5.741   2.445
  157SAPS    HY17511   6.215   5.558   2.443
  157SAPS   O3117512   6.078   5.632   2.303
  157SAPS   C3117513   6.020   5.745   2.250
  157SAPS   O3217514   6.082   5.847   2.239
  157SAPS   C3217515   5.878   5.715   2.200
  157SAPS   H2X17516   5.879   5.668   2.100
  157SAPS   H2Y17517   5.836   5.817   2.195
  157SAPS   C2317518   6.590   5.825   2.561
  157SAPS   H3R17519   6.667   5.774   2.622
  157SAPS   H3S17520   6.491   5.776   2.574
  157SAPS   C2417521   6.579   5.968   2.598
  157SAPS   H4R17522   6.678   6.018   2.586
  157SAPS   H4S17523   6.558   5.963   2.707
  157SAPS   C2517524   6.477   6.039   2.516
  157SAPS   H5R17525   6.520   6.114   2.448
  157SAPS   C2617526   6.347   6.062   2.539
  157SAPS   H6R17527   6.282   6.129   2.482
  157SAPS   C2717528   6.265   6.003   2.653
  157SAPS   H7R17529   6.264   6.078   2.735
  157SAPS   H7S17530   6.319   5.911   2.683
  157SAPS   C2817531   6.127   5.966   2.603
  157SAPS   H8R17532   6.078   6.034   2.532
  157SAPS   C2917533   6.059   5.858   2.651
  157SAPS   H9R17534   5.960   5.842   2.605
  157SAPS  C21017535   6.099   5.754   2.758
  157SAPS  H10R17536   6.186   5.788   2.819
  157SAPS  H10S17537   6.121   5.656   2.712
  157SAPS  C21117538   5.984   5.745   2.853
  157SAPS  H11R17539   5.898   5.683   2.823
  157SAPS  C21217540   5.976   5.790   2.983
  157SAPS  H12R17541   5.885   5.766   3.040
  157SAPS  C21317542   6.076   5.874   3.062
  157SAPS  H13R17543   6.167   5.899   3.003
  157SAPS  H13S17544   6.113   5.815   3.148
  157SAPS  C21417545   6.022   6.003   3.119
  157SAPS  H14R17546   6.036   6.090   3.054
  157SAPS  C21517547   5.956   6.019   3.233
  157SAPS  H15R17548   5.945   6.119   3.277
  157SAPS  C21617549   5.923   5.911   3.330
  157SAPS  H16R17550   5.967   5.816   3.293
  157SAPS  H16S17551   5.813   5.890   3.333
  157SAPS  C21717552   5.987   5.944   3.466
  157SAPS  H17R17553   5.995   6.051   3.497
  157SAPS  H17S17554   6.094   5.915   3.457
  157SAPS  C21817555   5.916   5.880   3.584
  157SAPS  H18R17556   5.820   5.934   3.598
  157SAPS  H18S17557   5.972   5.892   3.679
  157SAPS  C21917558   5.876   5.729   3.571
  157SAPS  H19R17559   5.972   5.674   3.561
  157SAPS  H19S17560   5.820   5.707   3.478
  157SAPS  C22017561   5.812   5.683   3.704
  157SAPS  H20R17562   5.785   5.576   3.721
  157SAPS  H20S17563   5.721   5.744   3.720
  157SAPS  H20T17564   5.886   5.693   3.786
  157SAPS   C3317565   5.798   5.619   2.291
  157SAPS   H3X17566   5.853   5.523   2.298
  157SAPS   H3Y17567   5.708   5.590   2.233
  157SAPS   C3417568   5.748   5.665   2.425
  157SAPS   H4X17569   5.682   5.752   2.404
  157SAPS   H4Y17570   5.828   5.691   2.498
  157SAPS   C3517571   5.673   5.549   2.492
  157SAPS   H5X17572   5.743   5.473   2.531
  157SAPS   H5Y17573   5.604   5.501   2.419
  157SAPS   C3617574   5.581   5.597   2.608
  157SAPS   H6X17575   5.518   5.506   2.619
  157SAPS   H6Y17576   5.503   5.667   2.572
  157SAPS   C3717577   5.647   5.647   2.731
  157SAPS   H7X17578   5.719   5.732   2.721
  157SAPS   H7Y17579   5.704   5.557   2.764
  157SAPS   C3817580   5.538   5.675   2.845
  157SAPS   H8X17581   5.464   5.592   2.848
  157SAPS   H8Y17582   5.474   5.764   2.828
  157SAPS   C3917583   5.597   5.679   2.985
  157SAPS   H9X17584   5.682   5.750   2.998
  157SAPS   H9Y17585   5.643   5.578   2.995
  157SAPS  C31017586   5.501   5.709   3.104
  157SAPS  H10X17587   5.414   5.640   3.092
  157SAPS  H10Y17588   5.459   5.811   3.093
  157SAPS  C31117589   5.553   5.697   3.246
  157SAPS  H11X17590   5.600   5.792   3.279
  157SAPS  H11Y17591   5.643   5.632   3.246
  157SAPS  C31217592   5.443   5.636   3.338
  157SAPS  H12X17593   5.427   5.530   3.307
  157SAPS  H12Y17594   5.354   5.701   3.325
  157SAPS  C31317595   5.481   5.655   3.482
  157SAPS  H13X17596   5.513   5.761   3.496
  157SAPS  H13Y17597   5.580   5.607   3.494
  157SAPS  C31417598   5.361   5.608   3.579
  157SAPS  H14X17599   5.333   5.502   3.560
  157SAPS  H14Y17600   5.270   5.670   3.565
  157SAPS  C31517601   5.419   5.617   3.722
  157SAPS  H15X17602   5.522   5.575   3.717
  157SAPS  H15Y17603   5.358   5.552   3.788
  157SAPS  C31617604   5.412   5.759   3.786
  157SAPS  H16X17605   5.303   5.771   3.768
  157SAPS  H16Y17606   5.467   5.836   3.728
  157SAPS  C31717607   5.448   5.761   3.932
  157SAPS  H17X17608   5.380   5.694   3.989
  157SAPS  H17Y17609   5.426   5.863   3.970
  157SAPS  C31817610   5.600   5.740   3.961
  157SAPS  H18X17611   5.649   5.647   3.926
  157SAPS  H18Y17612   5.622   5.753   4.069
  157SAPS  H18Z17613   5.658   5.817   3.906
  158SAPS     N17614   2.939   6.714   2.067
  158SAPS   HN117615   2.906   6.686   2.162
  158SAPS   HN217616   3.039   6.691   2.052
  158SAPS   HN317617   2.926   6.817   2.058
  158SAPS   C1217618   2.869   6.642   1.956
  158SAPS  H12A17619   2.861   6.717   1.879
  158SAPS   C1317620   2.953   6.519   1.904
  158SAPS  O13A17621   3.070   6.502   1.953
  158SAPS  O13B17622   2.937   6.473   1.786
  158SAPS   C1117623   2.725   6.604   2.007
  158SAPS  H11A17624   2.730   6.533   2.093
  158SAPS  H11B17625   2.692   6.542   1.921
  158SAPS     P17626   2.499   6.713   2.089
  158SAPS   O1317627   2.457   6.854   2.103
  158SAPS   O1417628   2.414   6.613   2.022
  158SAPS   O1217629   2.639   6.714   2.026
  158SAPS   O1117630   2.537   6.659   2.235
  158SAPS    C117631   2.575   6.759   2.337
  158SAPS    HA17632   2.682   6.790   2.326
  158SAPS    HB17633   2.512   6.850   2.340
  158SAPS    C217634   2.558   6.708   2.482
  158SAPS    HS17635   2.526   6.793   2.547
  158SAPS   O2117636   2.684   6.640   2.510
  158SAPS   C2117637   2.703   6.624   2.636
  158SAPS   O2217638   2.635   6.661   2.727
  158SAPS   C2217639   2.822   6.526   2.646
  158SAPS   H2R17640   2.902   6.594   2.608
  158SAPS   H2S17641   2.832   6.516   2.756
  158SAPS    C317642   2.437   6.606   2.498
  158SAPS    HX17643   2.472   6.512   2.449
  158SAPS    HY17644   2.353   6.646   2.438
  158SAPS   O3117645   2.402   6.564   2.636
  158SAPS   C3117646   2.338   6.662   2.702
  158SAPS   O3217647   2.311   6.769   2.651
  158SAPS   C3217648   2.312   6.623   2.852
  158SAPS   H2X17649   2.403   6.661   2.903
  158SAPS   H2Y17650   2.316   6.512   2.859
  158SAPS   C2317651   2.798   6.390   2.571
  158SAPS   H3R17652   2.896   6.341   2.552
  158SAPS   H3S17653   2.731   6.401   2.483
  158SAPS   C2417654   2.717   6.289   2.658
  158SAPS   H4R17655   2.690   6.195   2.606
  158SAPS   H4S17656   2.620   6.328   2.697
  158SAPS   C2517657   2.813   6.255   2.774
  158SAPS   H5R17658   2.903   6.200   2.743
  158SAPS   C2617659   2.810   6.289   2.904
  158SAPS   H6R17660   2.898   6.273   2.969
  158SAPS   C2717661   2.694   6.373   2.966
  158SAPS   H7R17662   2.628   6.410   2.885
  158SAPS   H7S17663   2.736   6.465   3.012
  158SAPS   C2817664   2.618   6.300   3.067
  158SAPS   H8R17665   2.570   6.209   3.027
  158SAPS   C2917666   2.582   6.332   3.193
  158SAPS   H9R17667   2.519   6.266   3.255
  158SAPS  C21017668   2.610   6.460   3.274
  158SAPS  H10R17669   2.685   6.519   3.217
  158SAPS  H10S17670   2.675   6.435   3.361
  158SAPS  C21117671   2.483   6.544   3.299
  158SAPS  H11R17672   2.437   6.595   3.213
  158SAPS  C21217673   2.425   6.544   3.421
  158SAPS  H12R17674   2.328   6.594   3.434
  158SAPS  C21317675   2.472   6.466   3.544
  158SAPS  H13R17676   2.521   6.537   3.615
  158SAPS  H13S17677   2.545   6.386   3.522
  158SAPS  C21417678   2.361   6.405   3.622
  158SAPS  H14R17679   2.291   6.346   3.561
  158SAPS  C21517680   2.350   6.388   3.753
  158SAPS  H15R17681   2.261   6.335   3.791
  158SAPS  C21617682   2.445   6.432   3.863
  158SAPS  H16R17683   2.547   6.430   3.819
  158SAPS  H16S17684   2.461   6.345   3.930
  158SAPS  C21717685   2.412   6.557   3.942
  158SAPS  H17R17686   2.397   6.646   3.877
  158SAPS  H17S17687   2.497   6.574   4.010
  158SAPS  C21817688   2.287   6.545   4.029
  158SAPS  H18R17689   2.305   6.474   4.112
  158SAPS  H18S17690   2.211   6.496   3.964
  158SAPS  C21917691   2.271   6.683   4.106
  158SAPS  H19R17692   2.244   6.759   4.030
  158SAPS  H19S17693   2.368   6.726   4.138
  158SAPS  C22017694   2.155   6.689   4.202
  158SAPS  H20R17695   2.071   6.619   4.182
  158SAPS  H20S17696   2.109   6.790   4.206
  158SAPS  H20T17697   2.182   6.674   4.309
  158SAPS   C3317698   2.179   6.669   2.903
  158SAPS   H3X17699   2.105   6.599   2.859
  158SAPS   H3Y17700   2.164   6.776   2.877
  158SAPS   C3417701   2.163   6.632   3.048
  158SAPS   H4X17702   2.252   6.665   3.106
  158SAPS   H4Y17703   2.156   6.521   3.051
  158SAPS   C3517704   2.021   6.679   3.102
  158SAPS   H5X17705   1.938   6.642   3.038
  158SAPS   H5Y17706   2.013   6.789   3.091
  158SAPS   C3617707   2.001   6.640   3.252
  158SAPS   H6X17708   1.901   6.683   3.276
  158SAPS   H6Y17709   2.089   6.681   3.307
  158SAPS   C3717710   1.994   6.491   3.284
  158SAPS   H7X17711   2.080   6.431   3.247
  158SAPS   H7Y17712   1.898   6.450   3.246
  158SAPS   C3817713   1.984   6.455   3.441
  158SAPS   H8X17714   2.083   6.476   3.487
  158SAPS   H8Y17715   1.958   6.347   3.443
  158SAPS   C3917716   1.880   6.545   3.513
  158SAPS   H9X17717   1.781   6.527   3.467
  158SAPS   H9Y17718   1.913   6.649   3.491
  158SAPS  C31017719   1.895   6.517   3.662
  158SAPS  H10X17720   1.978   6.556   3.724
  158SAPS  H10Y17721   1.916   6.408   3.671
  158SAPS  C31117722   1.769   6.555   3.733
  158SAPS  H11X17723   1.765   6.485   3.820
  158SAPS  H11Y17724   1.676   6.520   3.683
  158SAPS  C31217725   1.736   6.693   3.775
  158SAPS  H12X17726   1.716   6.766   3.693
  158SAPS  H12Y17727   1.819   6.732   3.838
  158SAPS  C31317728   1.612   6.694   3.863
  158SAPS  H13X17729   1.615   6.609   3.934
  158SAPS  H13Y17730   1.525   6.678   3.795
  158SAPS  C31417731   1.605   6.821   3.949
  158SAPS  H14X17732   1.605   6.911   3.884
  158SAPS  H14Y17733   1.694   6.830   4.016
  158SAPS  C31517734   1.473   6.826   4.034
  158SAPS  H15X17735   1.480   6.732   4.094
  158SAPS  H15Y17736   1.390   6.808   3.963
  158SAPS  C31617737   1.458   6.944   4.129
  158SAPS  H16X17738   1.448   7.035   4.066
  158SAPS  H16Y17739   1.549   6.962   4.190
  158SAPS  C31717740   1.340   6.926   4.227
  158SAPS  H17X17741   1.378   6.850   4.298
  158SAPS  H17Y17742   1.259   6.882   4.166
  158SAPS  C31817743   1.290   7.051   4.307
  158SAPS  H18X17744   1.245   7.124   4.238
  158SAPS  H18Y17745   1.378   7.090   4.363
  158SAPS  H18Z17746   1.211   7.021   4.380
  159SAPS     N17747   6.498   6.514   1.880
  159SAPS   HN117748   6.406   6.481   1.915
  159SAPS   HN217749   6.490   6.609   1.840
  159SAPS   HN317750   6.537   6.448   1.810
  159SAPS   C1217751   6.571   6.508   2.009
  159SAPS  H12A17752   6.628   6.416   2.010
  159SAPS   C1317753   6.677   6.617   2.036
  159SAPS  O13A17754   6.713   6.698   1.943
  159SAPS  O13B17755   6.747   6.602   2.134
  159SAPS   C1117756   6.469   6.516   2.124
  159SAPS  H11A17757   6.440   6.621   2.145
  159SAPS  H11B17758   6.513   6.476   2.218
  159SAPS     P17759   6.293   6.334   2.172
  159SAPS   O1317760   6.154   6.290   2.143
  159SAPS   O1417761   6.397   6.230   2.175
  159SAPS   O1217762   6.349   6.448   2.088
  159SAPS   O1117763   6.288   6.388   2.315
  159SAPS    C117764   6.214   6.499   2.354
  159SAPS    HA17765   6.285   6.581   2.378
  159SAPS    HB17766   6.145   6.538   2.275
  159SAPS    C217767   6.138   6.478   2.481
  159SAPS    HS17768   6.092   6.571   2.520
  159SAPS   O2117769   6.213   6.409   2.582
  159SAPS   C2117770   6.288   6.489   2.656
  159SAPS   O2217771   6.300   6.610   2.646
  159SAPS   C2217772   6.345   6.401   2.770
  159SAPS   H2R17773   6.404   6.320   2.723
  159SAPS   H2S17774   6.417   6.461   2.830
  159SAPS    C317775   6.010   6.378   2.458
  159SAPS    HX17776   6.059   6.288   2.414
  159SAPS    HY17777   5.928   6.410   2.389
  159SAPS   O3117778   5.950   6.352   2.583
  159SAPS   C3117779   5.874   6.243   2.591
  159SAPS   O3217780   5.858   6.155   2.509
  159SAPS   C3217781   5.799   6.234   2.726
  159SAPS   H2X17782   5.693   6.248   2.694
  159SAPS   H2Y17783   5.839   6.315   2.791
  159SAPS   C2317784   6.229   6.341   2.849
  159SAPS   H3R17785   6.250   6.263   2.926
  159SAPS   H3S17786   6.156   6.287   2.785
  159SAPS   C2417787   6.133   6.450   2.922
  159SAPS   H4R17788   6.043   6.396   2.958
  159SAPS   H4S17789   6.097   6.530   2.853
  159SAPS   C2517790   6.195   6.507   3.044
  159SAPS   H5R17791   6.271   6.585   3.027
  159SAPS   C2617792   6.149   6.508   3.164
  159SAPS   H6R17793   6.208   6.545   3.249
  159SAPS   C2717794   6.010   6.448   3.204
  159SAPS   H7R17795   6.030   6.345   3.240
  159SAPS   H7S17796   5.939   6.441   3.119
  159SAPS   C2817797   5.929   6.534   3.304
  159SAPS   H8R17798   5.905   6.635   3.267
  159SAPS   C2917799   5.865   6.502   3.417
  159SAPS   H9R17800   5.797   6.578   3.458
  159SAPS  C21017801   5.852   6.368   3.485
  159SAPS  H10R17802   5.906   6.295   3.422
  159SAPS  H10S17803   5.746   6.335   3.472
  159SAPS  C21117804   5.905   6.356   3.631
  159SAPS  H11R17805   6.012   6.334   3.625
  159SAPS  C21217806   5.835   6.332   3.747
  159SAPS  H12R17807   5.895   6.328   3.839
  159SAPS  C21317808   5.686   6.316   3.760
  159SAPS  H13R17809   5.632   6.349   3.669
  159SAPS  H13S17810   5.654   6.378   3.846
  159SAPS  C21417811   5.657   6.175   3.785
  159SAPS  H14R17812   5.677   6.103   3.704
  159SAPS  C21517813   5.600   6.122   3.896
  159SAPS  H15R17814   5.600   6.012   3.900
  159SAPS  C21617815   5.540   6.203   4.020
  159SAPS  H16R17816   5.464   6.144   4.076
  159SAPS  H16S17817   5.483   6.290   3.980
  159SAPS  C21717818   5.651   6.230   4.124
  159SAPS  H17R17819   5.708   6.312   4.075
  159SAPS  H17S17820   5.711   6.138   4.137
  159SAPS  C21817821   5.601   6.286   4.257
  159SAPS  H18R17822   5.691   6.321   4.311
  159SAPS  H18S17823   5.561   6.209   4.327
  159SAPS  C21917824   5.500   6.404   4.247
  159SAPS  H19R17825   5.414   6.361   4.191
  159SAPS  H19S17826   5.534   6.483   4.176
  159SAPS  C22017827   5.444   6.469   4.377
  159SAPS  H20R17828   5.532   6.508   4.434
  159SAPS  H20S17829   5.384   6.390   4.427
  159SAPS  H20T17830   5.376   6.552   4.348
  159SAPS   C3317831   5.823   6.095   2.803
  159SAPS   H3X17832   5.928   6.077   2.833
  159SAPS   H3Y17833   5.806   6.008   2.737
  159SAPS   C3417834   5.735   6.076   2.926
  159SAPS   H4X17835   5.768   5.988   2.986
  159SAPS   H4Y17836   5.634   6.055   2.884
  159SAPS   C3517837   5.718   6.202   3.012
  159SAPS   H5X17838   5.663   6.273   2.947
  159SAPS   H5Y17839   5.807   6.260   3.044
  159SAPS   C3617840   5.629   6.166   3.129
  159SAPS   H6X17841   5.682   6.093   3.194
  159SAPS   H6Y17842   5.552   6.096   3.089
  159SAPS   C3717843   5.562   6.291   3.196
  159SAPS   H7X17844   5.476   6.322   3.133
  159SAPS   H7Y17845   5.621   6.379   3.228
  159SAPS   C3817846   5.491   6.233   3.327
  159SAPS   H8X17847   5.572   6.193   3.391
  159SAPS   H8Y17848   5.417   6.154   3.302
  159SAPS   C3917849   5.433   6.343   3.408
  159SAPS   H9X17850   5.354   6.394   3.349
  159SAPS   H9Y17851   5.518   6.411   3.432
  159SAPS  C31017852   5.372   6.296   3.540
  159SAPS  H10X17853   5.439   6.237   3.606
  159SAPS  H10Y17854   5.299   6.214   3.523
  159SAPS  C31117855   5.313   6.420   3.613
  159SAPS  H11X17856   5.230   6.477   3.567
  159SAPS  H11Y17857   5.386   6.503   3.626
  159SAPS  C31217858   5.266   6.383   3.750
  159SAPS  H12X17859   5.354   6.381   3.817
  159SAPS  H12Y17860   5.212   6.286   3.759
  159SAPS  C31317861   5.158   6.487   3.801
  159SAPS  H13X17862   5.073   6.482   3.730
  159SAPS  H13Y17863   5.180   6.596   3.804
  159SAPS  C31417864   5.097   6.446   3.941
  159SAPS  H14X17865   5.180   6.449   4.014
  159SAPS  H14Y17866   5.045   6.348   3.932
  159SAPS  C31517867   4.987   6.538   4.003
  159SAPS  H15X17868   4.892   6.535   3.946
  159SAPS  H15Y17869   5.029   6.640   3.988
  159SAPS  C31617870   4.965   6.506   4.147
  159SAPS  H16X17871   5.059   6.525   4.203
  159SAPS  H16Y17872   4.943   6.397   4.157
  159SAPS  C31717873   4.853   6.594   4.203
  159SAPS  H17X17874   4.754   6.571   4.160
  159SAPS  H17Y17875   4.869   6.703   4.189
  159SAPS  C31817876   4.823   6.571   4.356
  159SAPS  H18X17877   4.745   6.639   4.399
  159SAPS  H18Y17878   4.788   6.467   4.369
  159SAPS  H18Z17879   4.917   6.578   4.414
  160SAPS     N17880   0.164   6.869   1.998
  160SAPS   HN117881   0.182   6.927   2.082
  160SAPS   HN217882   0.095   6.794   2.020
  160SAPS   HN317883   0.251   6.815   1.982
  160SAPS   C1217884   0.139   6.966   1.891
  160SAPS  H12A17885   0.122   6.917   1.797
  160SAPS   C1317886   0.010   7.044   1.915
  160SAPS  O13A17887  -0.065   7.030   2.012
  160SAPS  O13B17888  -0.031   7.117   1.821
  160SAPS   C1117889   0.262   7.071   1.885
  160SAPS  H11A17890   0.264   7.145   1.969
  160SAPS  H11B17891   0.247   7.123   1.788
  160SAPS     P17892   0.515   7.027   1.954
  160SAPS   O1317893   0.573   6.900   2.004
  160SAPS   O1417894   0.588   7.111   1.855
  160SAPS   O1217895   0.381   6.997   1.870
  160SAPS   O1117896   0.473   7.114   2.069
  160SAPS    C117897   0.557   7.131   2.181
  160SAPS    HA17898   0.660   7.089   2.173
  160SAPS    HB17899   0.562   7.241   2.194
  160SAPS    C217900   0.486   7.069   2.306
  160SAPS    HS17901   0.455   6.965   2.285
  160SAPS   O2117902   0.376   7.151   2.359
  160SAPS   C2117903   0.256   7.121   2.302
  160SAPS   O2217904   0.237   7.039   2.215
  160SAPS   C2217905   0.156   7.182   2.394
  160SAPS   H2R17906   0.174   7.290   2.416
  160SAPS   H2S17907   0.060   7.169   2.340
  160SAPS    C317908   0.584   7.053   2.430
  160SAPS    HX17909   0.619   7.153   2.463
  160SAPS    HY17910   0.676   7.004   2.390
  160SAPS   O3117911   0.525   6.988   2.543
  160SAPS   C3117912   0.587   6.885   2.589
  160SAPS   O3217913   0.690   6.835   2.551
  160SAPS   C3217914   0.500   6.823   2.705
  160SAPS   H2X17915   0.541   6.725   2.737
  160SAPS   H2Y17916   0.397   6.804   2.669
  160SAPS   C2317917   0.153   7.121   2.534
  160SAPS   H3R17918   0.256   7.125   2.577
  160SAPS   H3S17919   0.118   7.016   2.529
  160SAPS   C2417920   0.077   7.206   2.632
  160SAPS   H4R17921   0.137   7.296   2.657
  160SAPS   H4S17922   0.079   7.144   2.724
  160SAPS   C2517923  -0.063   7.246   2.580
  160SAPS   H5R17924  -0.074   7.261   2.472
  160SAPS   C2617925  -0.162   7.289   2.663
  160SAPS   H6R17926  -0.269   7.299   2.636
  160SAPS   C2717927  -0.147   7.296   2.816
  160SAPS   H7R17928  -0.039   7.307   2.839
  160SAPS   H7S17929  -0.181   7.208   2.875
  160SAPS   C2817930  -0.222   7.415   2.860
  160SAPS   H8R17931  -0.233   7.498   2.788
  160SAPS   C2917932  -0.279   7.429   2.982
  160SAPS   H9R17933  -0.332   7.522   3.006
  160SAPS  C21017934  -0.277   7.338   3.102
  160SAPS  H10R17935  -0.206   7.255   3.082
  160SAPS  H10S17936  -0.373   7.281   3.100
  160SAPS  C21117937  -0.269   7.400   3.245
  160SAPS  H11R17938  -0.291   7.507   3.256
  160SAPS  C21217939  -0.231   7.340   3.361
  160SAPS  H12R17940  -0.237   7.389   3.459
  160SAPS  C21317941  -0.200   7.195   3.381
  160SAPS  H13R17942  -0.256   7.142   3.301
  160SAPS  H13S17943  -0.238   7.163   3.480
  160SAPS  C21417944  -0.054   7.142   3.366
  160SAPS  H14R17945   0.004   7.188   3.285
  160SAPS  C21517946  -0.015   7.034   3.437
  160SAPS  H15R17947   0.092   7.009   3.438
  160SAPS  C21617948  -0.097   6.954   3.542
  160SAPS  H16R17949  -0.197   6.925   3.501
  160SAPS  H16S17950  -0.127   7.025   3.621
  160SAPS  C21717951  -0.023   6.836   3.597
  160SAPS  H17R17952   0.082   6.870   3.611
  160SAPS  H17S17953  -0.020   6.756   3.520
  160SAPS  C21817954  -0.084   6.795   3.734
  160SAPS  H18R17955  -0.066   6.881   3.802
  160SAPS  H18S17956  -0.043   6.699   3.770
  160SAPS  C21917957  -0.233   6.779   3.725
  160SAPS  H19R17958  -0.251   6.705   3.643
  160SAPS  H19S17959  -0.290   6.868   3.692
  160SAPS  C22017960  -0.296   6.751   3.863
  160SAPS  H20R17961  -0.240   6.676   3.923
  160SAPS  H20S17962  -0.404   6.727   3.855
  160SAPS  H20T17963  -0.287   6.852   3.909
  160SAPS   C3317964   0.501   6.923   2.827
  160SAPS   H3X17965   0.411   6.923   2.892
  160SAPS   H3Y17966   0.496   7.026   2.788
  160SAPS   C3417967   0.629   6.905   2.920
  160SAPS   H4X17968   0.717   6.913   2.853
  160SAPS   H4Y17969   0.629   6.802   2.961
  160SAPS   C3517970   0.628   6.997   3.037
  160SAPS   H5X17971   0.535   6.979   3.096
  160SAPS   H5Y17972   0.625   7.101   2.997
  160SAPS   C3617973   0.747   6.964   3.126
  160SAPS   H6X17974   0.837   6.982   3.064
  160SAPS   H6Y17975   0.743   6.856   3.154
  160SAPS   C3717976   0.750   7.045   3.263
  160SAPS   H7X17977   0.654   7.024   3.315
  160SAPS   H7Y17978   0.751   7.151   3.229
  160SAPS   C3817979   0.865   7.012   3.359
  160SAPS   H8X17980   0.963   7.034   3.314
  160SAPS   H8Y17981   0.855   6.906   3.391
  160SAPS   C3917982   0.861   7.088   3.491
  160SAPS   H9X17983   0.873   7.197   3.473
  160SAPS   H9Y17984   0.952   7.060   3.548
  160SAPS  C31017985   0.742   7.054   3.583
  160SAPS  H10X17986   0.718   6.945   3.581
  160SAPS  H10Y17987   0.653   7.099   3.535
  160SAPS  C31117988   0.766   7.101   3.738
  160SAPS  H11X17989   0.757   7.211   3.741
  160SAPS  H11Y17990   0.867   7.074   3.775
  160SAPS  C31217991   0.658   7.044   3.836
  160SAPS  H12X17992   0.687   7.076   3.938
  160SAPS  H12Y17993   0.663   6.934   3.841
  160SAPS  C31317994   0.513   7.079   3.811
  160SAPS  H13X17995   0.444   7.029   3.882
  160SAPS  H13Y17996   0.490   7.046   3.708
  160SAPS  C31417997   0.487   7.231   3.802
  160SAPS  H14X17998   0.527   7.287   3.715
  160SAPS  H14Y17999   0.529   7.279   3.892
  160SAPS  C31518000   0.341   7.264   3.817
  160SAPS  H15X18001   0.334   7.373   3.841
  160SAPS  H15Y18002   0.303   7.198   3.898
  160SAPS  C31618003   0.256   7.235   3.691
  160SAPS  H16X18004   0.271   7.125   3.683
  160SAPS  H16Y18005   0.293   7.280   3.596
  160SAPS  C31718006   0.113   7.268   3.715
  160SAPS  H17X18007   0.072   7.211   3.801
  160SAPS  H17Y18008   0.060   7.243   3.621
  160SAPS  C31818009   0.091   7.418   3.735
  160SAPS  H18X18010   0.133   7.474   3.649
  160SAPS  H18Y18011   0.123   7.451   3.836
  160SAPS  H18Z18012  -0.019   7.430   3.726
  161SAPE     N18013   5.238   4.966   6.503
  161SAPE   HN118014   5.167   4.912   6.557
  161SAPE   HN218015   5.323   4.994   6.555
  161SAPE   HN318016   5.195   5.054   6.468
  161SAPE   C1218017   5.273   4.884   6.384
  161SAPE  H12A18018   5.192   4.893   6.309
  161SAPE  H12B18019   5.276   4.779   6.421
  161SAPE   C1118020   5.403   4.931   6.317
  161SAPE  H11A18021   5.388   5.033   6.277
  161SAPE  H11B18022   5.426   4.872   6.226
  161SAPE     P18023   5.584   4.795   6.448
  161SAPE   O1318024   5.723   4.834   6.488
  161SAPE   O1418025   5.514   4.710   6.543
  161SAPE   O1218026   5.500   4.928   6.425
  161SAPE   O1118027   5.571   4.712   6.315
  161SAPE    C118028   5.668   4.705   6.209
  161SAPE    HA18029   5.689   4.805   6.165
  161SAPE    HB18030   5.767   4.672   6.247
  161SAPE    C218031   5.629   4.595   6.107
  161SAPE    HS18032   5.636   4.503   6.169
  161SAPE   O2118033   5.733   4.608   6.006
  161SAPE   C2118034   5.815   4.510   5.996
  161SAPE   O2218035   5.833   4.417   6.073
  161SAPE   C2218036   5.875   4.518   5.852
  161SAPE   H2R18037   5.791   4.553   5.788
  161SAPE   H2S18038   5.943   4.606   5.851
  161SAPE    C318039   5.490   4.613   6.044
  161SAPE    HX18040   5.473   4.722   6.028
  161SAPE    HY18041   5.408   4.580   6.111
  161SAPE   O3118042   5.489   4.563   5.911
  161SAPE   C3118043   5.455   4.437   5.892
  161SAPE   O3218044   5.425   4.356   5.979
  161SAPE   C3218045   5.463   4.405   5.740
  161SAPE   H2X18046   5.541   4.475   5.703
  161SAPE   H2Y18047   5.359   4.421   5.704
  161SAPE   C2318048   5.950   4.394   5.803
  161SAPE   H3R18049   5.876   4.311   5.811
  161SAPE   H3S18050   6.036   4.359   5.865
  161SAPE   C2418051   5.993   4.396   5.662
  161SAPE   H4R18052   6.053   4.303   5.650
  161SAPE   H4S18053   6.046   4.493   5.655
  161SAPE   C2518054   5.873   4.390   5.574
  161SAPE   H5R18055   5.786   4.437   5.622
  161SAPE   C2618056   5.882   4.370   5.444
  161SAPE   H6R18057   5.796   4.379   5.377
  161SAPE   C2718058   6.018   4.355   5.377
  161SAPE   H7R18059   6.031   4.246   5.360
  161SAPE   H7S18060   6.103   4.394   5.436
  161SAPE   C2818061   6.032   4.433   5.250
  161SAPE   H8R18062   6.076   4.534   5.261
  161SAPE   C2918063   6.012   4.384   5.123
  161SAPE   H9R18064   5.994   4.470   5.056
  161SAPE  C21018065   5.971   4.248   5.068
  161SAPE  H10R18066   5.926   4.191   5.153
  161SAPE  H10S18067   6.053   4.174   5.058
  161SAPE  C21118068   5.890   4.255   4.943
  161SAPE  H11R18069   5.822   4.341   4.933
  161SAPE  C21218070   5.915   4.193   4.831
  161SAPE  H12R18071   5.853   4.214   4.743
  161SAPE  C21318072   6.023   4.090   4.807
  161SAPE  H13R18073   6.100   4.075   4.885
  161SAPE  H13S18074   6.090   4.119   4.723
  161SAPE  C21418075   5.965   3.955   4.782
  161SAPE  H14R18076   5.881   3.925   4.847
  161SAPE  C21518077   6.002   3.872   4.677
  161SAPE  H15R18078   5.946   3.779   4.659
  161SAPE  C21618079   6.102   3.896   4.571
  161SAPE  H16R18080   6.098   3.988   4.507
  161SAPE  H16S18081   6.097   3.812   4.498
  161SAPE  C21718082   6.234   3.871   4.648
  161SAPE  H17R18083   6.240   3.932   4.741
  161SAPE  H17S18084   6.320   3.902   4.585
  161SAPE  C21818085   6.257   3.725   4.685
  161SAPE  H18R18086   6.262   3.654   4.600
  161SAPE  H18S18087   6.163   3.693   4.736
  161SAPE  C21918088   6.376   3.712   4.781
  161SAPE  H19R18089   6.378   3.615   4.835
  161SAPE  H19S18090   6.372   3.790   4.860
  161SAPE  C22018091   6.504   3.714   4.702
  161SAPE  H20R18092   6.511   3.817   4.662
  161SAPE  H20S18093   6.495   3.643   4.616
  161SAPE  H20T18094   6.589   3.690   4.770
  161SAPE   C3318095   5.502   4.267   5.715
  161SAPE   H3X18096   5.448   4.177   5.753
  161SAPE   H3Y18097   5.602   4.258   5.761
  161SAPE   C3418098   5.539   4.232   5.568
  161SAPE   H4X18099   5.588   4.132   5.573
  161SAPE   H4Y18100   5.611   4.299   5.516
  161SAPE   C3518101   5.410   4.244   5.476
  161SAPE   H5X18102   5.374   4.347   5.458
  161SAPE   H5Y18103   5.324   4.200   5.531
  161SAPE   C3618104   5.432   4.189   5.335
  161SAPE   H6X18105   5.442   4.079   5.352
  161SAPE   H6Y18106   5.537   4.208   5.305
  161SAPE   C3718107   5.326   4.223   5.228
  161SAPE   H7X18108   5.352   4.328   5.204
  161SAPE   H7Y18109   5.225   4.204   5.268
  161SAPE   C3818110   5.346   4.125   5.110
  161SAPE   H8X18111   5.308   4.025   5.143
  161SAPE   H8Y18112   5.451   4.116   5.074
  161SAPE   C3918113   5.263   4.168   4.992
  161SAPE   H9X18114   5.288   4.272   4.962
  161SAPE   H9Y18115   5.159   4.168   5.029
  161SAPE  C31018116   5.265   4.057   4.879
  161SAPE  H10X18117   5.182   4.064   4.806
  161SAPE  H10Y18118   5.251   3.964   4.937
  161SAPE  C31118119   5.385   4.054   4.785
  161SAPE  H11X18120   5.385   3.957   4.731
  161SAPE  H11Y18121   5.482   4.067   4.838
  161SAPE  C31218122   5.391   4.155   4.670
  161SAPE  H12X18123   5.407   4.259   4.704
  161SAPE  H12Y18124   5.290   4.140   4.627
  161SAPE  C31318125   5.496   4.126   4.556
  161SAPE  H13X18126   5.479   4.017   4.540
  161SAPE  H13Y18127   5.476   4.192   4.469
  161SAPE  C31418128   5.642   4.159   4.594
  161SAPE  H14X18129   5.666   4.103   4.687
  161SAPE  H14Y18130   5.641   4.268   4.618
  161SAPE  C31518131   5.732   4.124   4.485
  161SAPE  H15X18132   5.698   4.029   4.440
  161SAPE  H15Y18133   5.834   4.100   4.523
  161SAPE  C31618134   5.759   4.228   4.371
  161SAPE  H16X18135   5.766   4.325   4.425
  161SAPE  H16Y18136   5.677   4.222   4.297
  161SAPE  C31718137   5.895   4.197   4.290
  161SAPE  H17X18138   5.875   4.099   4.243
  161SAPE  H17Y18139   5.986   4.177   4.351
  161SAPE  C31818140   5.924   4.311   4.190
  161SAPE  H18X18141   5.874   4.300   4.092
  161SAPE  H18Y18142   6.032   4.316   4.162
  161SAPE  H18Z18143   5.890   4.403   4.242
  162SAPE     N18144   6.010   5.462   6.387
  162SAPE   HN118145   6.029   5.549   6.334
  162SAPE   HN218146   6.038   5.479   6.486
  162SAPE   HN318147   6.056   5.385   6.334
  162SAPE   C1218148   5.862   5.432   6.367
  162SAPE  H12A18149   5.831   5.336   6.413
  162SAPE  H12B18150   5.859   5.419   6.257
  162SAPE   C1118151   5.778   5.554   6.405
  162SAPE  H11A18152   5.799   5.559   6.514
  162SAPE  H11B18153   5.673   5.535   6.375
  162SAPE     P18154   5.741   5.769   6.260
  162SAPE   O1318155   5.644   5.823   6.356
  162SAPE   O1418156   5.822   5.856   6.178
  162SAPE   O1218157   5.836   5.676   6.343
  162SAPE   O1118158   5.668   5.660   6.177
  162SAPE    C118159   5.732   5.576   6.086
  162SAPE    HA18160   5.843   5.575   6.087
  162SAPE    HB18161   5.701   5.470   6.101
  162SAPE    C218162   5.694   5.598   5.935
  162SAPE    HS18163   5.740   5.510   5.885
  162SAPE   O2118164   5.749   5.717   5.888
  162SAPE   C2118165   5.882   5.710   5.873
  162SAPE   O2218166   5.947   5.608   5.873
  162SAPE   C2218167   5.924   5.854   5.844
  162SAPE   H2R18168   5.886   5.917   5.927
  162SAPE   H2S18169   6.035   5.859   5.845
  162SAPE    C318170   5.535   5.593   5.904
  162SAPE    HX18171   5.520   5.698   5.937
  162SAPE    HY18172   5.476   5.523   5.968
  162SAPE   O3118173   5.502   5.587   5.756
  162SAPE   C3118174   5.430   5.482   5.725
  162SAPE   O3218175   5.375   5.411   5.806
  162SAPE   C3218176   5.421   5.463   5.571
  162SAPE   H2X18177   5.524   5.466   5.529
  162SAPE   H2Y18178   5.357   5.538   5.520
  162SAPE   C2318179   5.847   5.896   5.715
  162SAPE   H3R18180   5.872   6.004   5.716
  162SAPE   H3S18181   5.737   5.883   5.715
  162SAPE   C2418182   5.897   5.830   5.590
  162SAPE   H4R18183   5.882   5.720   5.594
  162SAPE   H4S18184   6.004   5.856   5.583
  162SAPE   C2518185   5.843   5.885   5.454
  162SAPE   H5R18186   5.886   5.977   5.414
  162SAPE   C2618187   5.759   5.811   5.377
  162SAPE   H6R18188   5.726   5.856   5.282
  162SAPE   C2718189   5.704   5.674   5.404
  162SAPE   H7R18190   5.599   5.677   5.371
  162SAPE   H7S18191   5.692   5.656   5.513
  162SAPE   C2818192   5.778   5.554   5.369
  162SAPE   H8R18193   5.826   5.491   5.446
  162SAPE   C2918194   5.795   5.500   5.245
  162SAPE   H9R18195   5.854   5.408   5.239
  162SAPE  C21018196   5.737   5.549   5.113
  162SAPE  H10R18197   5.707   5.656   5.121
  162SAPE  H10S18198   5.649   5.485   5.094
  162SAPE  C21118199   5.841   5.555   5.001
  162SAPE  H11R18200   5.925   5.625   5.013
  162SAPE  C21218201   5.839   5.478   4.888
  162SAPE  H12R18202   5.920   5.494   4.816
  162SAPE  C21318203   5.743   5.373   4.842
  162SAPE  H13R18204   5.700   5.385   4.741
  162SAPE  H13S18205   5.654   5.367   4.908
  162SAPE  C21418206   5.814   5.238   4.846
  162SAPE  H14R18207   5.812   5.184   4.941
  162SAPE  C21518208   5.868   5.174   4.744
  162SAPE  H15R18209   5.894   5.069   4.766
  162SAPE  C21618210   5.876   5.208   4.601
  162SAPE  H16R18211   5.854   5.316   4.590
  162SAPE  H16S18212   5.800   5.148   4.546
  162SAPE  C21718213   6.019   5.189   4.545
  162SAPE  H17R18214   6.041   5.081   4.555
  162SAPE  H17S18215   6.079   5.247   4.619
  162SAPE  C21818216   6.042   5.249   4.410
  162SAPE  H18R18217   6.135   5.308   4.414
  162SAPE  H18S18218   5.951   5.310   4.392
  162SAPE  C21918219   6.061   5.152   4.290
  162SAPE  H19R18220   6.166   5.117   4.286
  162SAPE  H19S18221   6.049   5.225   4.207
  162SAPE  C22018222   5.970   5.029   4.284
  162SAPE  H20R18223   5.866   5.067   4.299
  162SAPE  H20S18224   5.997   4.966   4.371
  162SAPE  H20T18225   5.984   4.964   4.196
  162SAPE   C3318226   5.360   5.329   5.541
  162SAPE   H3X18227   5.262   5.327   5.594
  162SAPE   H3Y18228   5.431   5.254   5.584
  162SAPE   C3418229   5.376   5.300   5.388
  162SAPE   H4X18230   5.486   5.299   5.371
  162SAPE   H4Y18231   5.334   5.392   5.342
  162SAPE   C3518232   5.312   5.174   5.330
  162SAPE   H5X18233   5.202   5.186   5.326
  162SAPE   H5Y18234   5.347   5.086   5.388
  162SAPE   C3618235   5.342   5.173   5.179
  162SAPE   H6X18236   5.451   5.176   5.160
  162SAPE   H6Y18237   5.321   5.271   5.131
  162SAPE   C3718238   5.270   5.063   5.099
  162SAPE   H7X18239   5.162   5.088   5.108
  162SAPE   H7Y18240   5.291   4.967   5.152
  162SAPE   C3818241   5.312   5.052   4.956
  162SAPE   H8X18242   5.256   4.966   4.913
  162SAPE   H8Y18243   5.422   5.038   4.949
  162SAPE   C3918244   5.290   5.183   4.882
  162SAPE   H9X18245   5.369   5.253   4.916
  162SAPE   H9Y18246   5.198   5.228   4.924
  162SAPE  C31018247   5.294   5.162   4.730
  162SAPE  H10X18248   5.242   5.252   4.691
  162SAPE  H10Y18249   5.229   5.075   4.703
  162SAPE  C31118250   5.430   5.156   4.678
  162SAPE  H11X18251   5.474   5.056   4.699
  162SAPE  H11Y18252   5.492   5.233   4.730
  162SAPE  C31218253   5.433   5.187   4.524
  162SAPE  H12X18254   5.332   5.162   4.486
  162SAPE  H12Y18255   5.504   5.118   4.473
  162SAPE  C31318256   5.475   5.337   4.491
  162SAPE  H13X18257   5.565   5.354   4.554
  162SAPE  H13Y18258   5.400   5.397   4.548
  162SAPE  C31418259   5.475   5.368   4.342
  162SAPE  H14X18260   5.513   5.471   4.325
  162SAPE  H14Y18261   5.382   5.351   4.284
  162SAPE  C31518262   5.578   5.283   4.262
  162SAPE  H15X18263   5.524   5.189   4.240
  162SAPE  H15Y18264   5.673   5.260   4.315
  162SAPE  C31618265   5.621   5.346   4.131
  162SAPE  H16X18266   5.666   5.446   4.152
  162SAPE  H16Y18267   5.534   5.369   4.066
  162SAPE  C31718268   5.711   5.257   4.052
  162SAPE  H17X18269   5.662   5.158   4.051
  162SAPE  H17Y18270   5.813   5.243   4.093
  162SAPE  C31818271   5.731   5.309   3.908
  162SAPE  H18X18272   5.803   5.251   3.847
  162SAPE  H18Y18273   5.781   5.408   3.911
  162SAPE  H18Z18274   5.636   5.303   3.851
  163SAPE     N18275   4.051   1.580   6.459
  163SAPE   HN118276   3.956   1.618   6.482
  163SAPE   HN218277   4.125   1.646   6.490
  163SAPE   HN318278   4.060   1.586   6.356
  163SAPE   C1218279   4.067   1.439   6.513
  163SAPE  H12A18280   3.972   1.383   6.495
  163SAPE  H12B18281   4.095   1.427   6.619
  163SAPE   C1118282   4.186   1.371   6.426
  163SAPE  H11A18283   4.263   1.450   6.412
  163SAPE  H11B18284   4.152   1.358   6.321
  163SAPE     P18285   4.171   1.110   6.454
  163SAPE   O1318286   4.243   1.014   6.543
  163SAPE   O1418287   4.028   1.129   6.477
  163SAPE   O1218288   4.236   1.247   6.475
  163SAPE   O1118289   4.207   1.082   6.305
  163SAPE    C118290   4.349   1.083   6.267
  163SAPE    HA18291   4.423   1.076   6.349
  163SAPE    HB18292   4.369   0.996   6.200
  163SAPE    C218293   4.378   1.208   6.182
  163SAPE    HS18294   4.365   1.292   6.254
  163SAPE   O2118295   4.280   1.228   6.078
  163SAPE   C2118296   4.279   1.338   6.000
  163SAPE   O2218297   4.346   1.436   6.021
  163SAPE   C2218298   4.182   1.319   5.885
  163SAPE   H2R18299   4.244   1.289   5.798
  163SAPE   H2S18300   4.110   1.238   5.909
  163SAPE    C318301   4.525   1.196   6.121
  163SAPE    HX18302   4.589   1.199   6.211
  163SAPE    HY18303   4.552   1.286   6.062
  163SAPE   O3118304   4.551   1.071   6.053
  163SAPE   C3118305   4.538   1.086   5.915
  163SAPE   O3218306   4.496   1.189   5.859
  163SAPE   C3218307   4.565   0.953   5.849
  163SAPE   H2X18308   4.469   0.901   5.826
  163SAPE   H2Y18309   4.626   0.896   5.922
  163SAPE   C2318310   4.096   1.452   5.845
  163SAPE   H3R18311   4.166   1.538   5.860
  163SAPE   H3S18312   4.029   1.462   5.933
  163SAPE   C2418313   4.046   1.468   5.707
  163SAPE   H4R18314   4.124   1.417   5.646
  163SAPE   H4S18315   4.023   1.571   5.672
  163SAPE   C2518316   3.921   1.382   5.690
  163SAPE   H5R18317   3.891   1.312   5.769
  163SAPE   C2618318   3.840   1.376   5.577
  163SAPE   H6R18319   3.742   1.328   5.588
  163SAPE   C2718320   3.843   1.459   5.455
  163SAPE   H7R18321   3.943   1.506   5.445
  163SAPE   H7S18322   3.775   1.546   5.469
  163SAPE   C2818323   3.803   1.390   5.327
  163SAPE   H8R18324   3.874   1.312   5.296
  163SAPE   C2918325   3.699   1.422   5.249
  163SAPE   H9R18326   3.674   1.358   5.163
  163SAPE  C21018327   3.592   1.524   5.279
  163SAPE  H10R18328   3.561   1.568   5.182
  163SAPE  H10S18329   3.637   1.606   5.338
  163SAPE  C21118330   3.480   1.468   5.359
  163SAPE  H11R18331   3.498   1.462   5.468
  163SAPE  C21218332   3.368   1.423   5.305
  163SAPE  H12R18333   3.287   1.404   5.377
  163SAPE  C21318334   3.331   1.440   5.162
  163SAPE  H13R18335   3.400   1.380   5.099
  163SAPE  H13S18336   3.327   1.547   5.131
  163SAPE  C21418337   3.184   1.399   5.136
  163SAPE  H14R18338   3.122   1.377   5.224
  163SAPE  C21518339   3.133   1.388   5.010
  163SAPE  H15R18340   3.033   1.342   4.998
  163SAPE  C21618341   3.203   1.409   4.878
  163SAPE  H16R18342   3.203   1.311   4.826
  163SAPE  H16S18343   3.312   1.427   4.895
  163SAPE  C21718344   3.162   1.525   4.784
  163SAPE  H17R18345   3.051   1.525   4.788
  163SAPE  H17S18346   3.200   1.492   4.685
  163SAPE  C21818347   3.212   1.661   4.828
  163SAPE  H18R18348   3.322   1.651   4.845
  163SAPE  H18S18349   3.177   1.693   4.928
  163SAPE  C21918350   3.199   1.775   4.732
  163SAPE  H19R18351   3.256   1.749   4.641
  163SAPE  H19S18352   3.249   1.865   4.773
  163SAPE  C22018353   3.054   1.803   4.691
  163SAPE  H20R18354   2.980   1.758   4.761
  163SAPE  H20S18355   3.029   1.756   4.593
  163SAPE  H20T18356   3.034   1.911   4.673
  163SAPE   C3318357   4.642   0.975   5.721
  163SAPE   H3X18358   4.683   0.881   5.680
  163SAPE   H3Y18359   4.723   1.045   5.750
  163SAPE   C3418360   4.565   1.029   5.599
  163SAPE   H4X18361   4.527   1.129   5.627
  163SAPE   H4Y18362   4.478   0.969   5.562
  163SAPE   C3518363   4.651   1.048   5.478
  163SAPE   H5X18364   4.701   0.958   5.436
  163SAPE   H5Y18365   4.731   1.125   5.485
  163SAPE   C3618366   4.562   1.111   5.367
  163SAPE   H6X18367   4.526   1.213   5.394
  163SAPE   H6Y18368   4.469   1.055   5.343
  163SAPE   C3718369   4.634   1.127   5.237
  163SAPE   H7X18370   4.690   1.034   5.217
  163SAPE   H7Y18371   4.695   1.221   5.233
  163SAPE   C3818372   4.528   1.144   5.118
  163SAPE   H8X18373   4.487   1.247   5.124
  163SAPE   H8Y18374   4.440   1.079   5.133
  163SAPE   C3918375   4.577   1.108   4.975
  163SAPE   H9X18376   4.628   1.010   4.958
  163SAPE   H9Y18377   4.660   1.181   4.968
  163SAPE  C31018378   4.478   1.133   4.862
  163SAPE  H10X18379   4.392   1.066   4.883
  163SAPE  H10Y18380   4.526   1.105   4.766
  163SAPE  C31118381   4.423   1.279   4.857
  163SAPE  H11X18382   4.510   1.344   4.879
  163SAPE  H11Y18383   4.351   1.305   4.937
  163SAPE  C31218384   4.353   1.311   4.729
  163SAPE  H12X18385   4.246   1.283   4.730
  163SAPE  H12Y18386   4.391   1.262   4.637
  163SAPE  C31318387   4.362   1.466   4.704
  163SAPE  H13X18388   4.469   1.488   4.685
  163SAPE  H13Y18389   4.337   1.514   4.802
  163SAPE  C31418390   4.269   1.515   4.591
  163SAPE  H14X18391   4.168   1.474   4.610
  163SAPE  H14Y18392   4.298   1.458   4.500
  163SAPE  C31518393   4.293   1.668   4.564
  163SAPE  H15X18394   4.399   1.681   4.533
  163SAPE  H15Y18395   4.272   1.719   4.660
  163SAPE  C31618396   4.183   1.714   4.465
  163SAPE  H16X18397   4.082   1.701   4.510
  163SAPE  H16Y18398   4.179   1.640   4.382
  163SAPE  C31718399   4.197   1.855   4.402
  163SAPE  H17X18400   4.259   1.861   4.310
  163SAPE  H17Y18401   4.245   1.926   4.472
  163SAPE  C31818402   4.060   1.926   4.384
  163SAPE  H18X18403   3.985   1.881   4.315
  163SAPE  H18Y18404   4.074   2.018   4.324
  163SAPE  H18Z18405   4.012   1.949   4.482
  164SAPE     N18406   2.338   4.973   6.667
  164SAPE   HN118407   2.271   4.929   6.601
  164SAPE   HN218408   2.404   4.901   6.702
  164SAPE   HN318409   2.286   5.004   6.751
  164SAPE   C1218410   2.429   5.075   6.606
  164SAPE  H12A18411   2.530   5.081   6.651
  164SAPE  H12B18412   2.376   5.171   6.624
  164SAPE   C1118413   2.449   5.043   6.456
  164SAPE  H11A18414   2.483   4.939   6.437
  164SAPE  H11B18415   2.530   5.102   6.407
  164SAPE     P18416   2.283   5.156   6.276
  164SAPE   O1318417   2.172   5.099   6.200
  164SAPE   O1418418   2.261   5.288   6.339
  164SAPE   O1218419   2.329   5.057   6.389
  164SAPE   O1118420   2.402   5.162   6.178
  164SAPE    C118421   2.470   5.277   6.139
  164SAPE    HA18422   2.498   5.343   6.224
  164SAPE    HB18423   2.565   5.245   6.092
  164SAPE    C218424   2.391   5.365   6.038
  164SAPE    HS18425   2.311   5.415   6.096
  164SAPE   O2118426   2.342   5.270   5.943
  164SAPE   C2118427   2.211   5.289   5.911
  164SAPE   O2218428   2.137   5.370   5.960
  164SAPE   C2218429   2.171   5.166   5.828
  164SAPE   H2R18430   2.265   5.115   5.799
  164SAPE   H2S18431   2.120   5.101   5.904
  164SAPE    C318432   2.470   5.486   5.971
  164SAPE    HX18433   2.540   5.423   5.912
  164SAPE    HY18434   2.528   5.540   6.049
  164SAPE   O3118435   2.378   5.563   5.900
  164SAPE   C3118436   2.339   5.672   5.955
  164SAPE   O3218437   2.374   5.718   6.060
  164SAPE   C3218438   2.219   5.722   5.873
  164SAPE   H2X18439   2.226   5.832   5.890
  164SAPE   H2Y18440   2.133   5.685   5.933
  164SAPE   C2318441   2.080   5.192   5.709
  164SAPE   H3R18442   1.977   5.227   5.732
  164SAPE   H3S18443   2.070   5.095   5.654
  164SAPE   C2418444   2.151   5.276   5.604
  164SAPE   H4R18445   2.248   5.233   5.571
  164SAPE   H4S18446   2.195   5.366   5.652
  164SAPE   C2518447   2.071   5.322   5.486
  164SAPE   H5R18448   1.972   5.366   5.502
  164SAPE   C2618449   2.095   5.284   5.352
  164SAPE   H6R18450   2.032   5.338   5.281
  164SAPE   C2718451   2.196   5.193   5.301
  164SAPE   H7R18452   2.284   5.198   5.370
  164SAPE   H7S18453   2.225   5.233   5.201
  164SAPE   C2818454   2.131   5.059   5.285
  164SAPE   H8R18455   2.124   4.994   5.374
  164SAPE   C2918456   2.072   5.015   5.170
  164SAPE   H9R18457   2.023   4.917   5.161
  164SAPE  C21018458   2.054   5.101   5.042
  164SAPE  H10R18459   2.043   5.203   5.086
  164SAPE  H10S18460   1.956   5.084   4.993
  164SAPE  C21118461   2.174   5.094   4.953
  164SAPE  H11R18462   2.270   5.091   5.007
  164SAPE  C21218463   2.172   5.090   4.820
  164SAPE  H12R18464   2.264   5.077   4.762
  164SAPE  C21318465   2.051   5.094   4.730
  164SAPE  H13R18466   1.970   5.136   4.793
  164SAPE  H13S18467   2.011   4.992   4.708
  164SAPE  C21418468   2.068   5.178   4.598
  164SAPE  H14R18469   2.160   5.238   4.594
  164SAPE  C21518470   1.990   5.189   4.490
  164SAPE  H15R18471   2.024   5.247   4.403
  164SAPE  C21618472   1.851   5.131   4.467
  164SAPE  H16R18473   1.822   5.078   4.560
  164SAPE  H16S18474   1.852   5.059   4.382
  164SAPE  C21718475   1.752   5.246   4.433
  164SAPE  H17R18476   1.749   5.327   4.509
  164SAPE  H17S18477   1.652   5.200   4.446
  164SAPE  C21818478   1.764   5.308   4.294
  164SAPE  H18R18479   1.735   5.223   4.228
  164SAPE  H18S18480   1.862   5.349   4.263
  164SAPE  C21918481   1.660   5.424   4.292
  164SAPE  H19R18482   1.693   5.502   4.364
  164SAPE  H19S18483   1.567   5.379   4.331
  164SAPE  C22018484   1.650   5.490   4.161
  164SAPE  H20R18485   1.737   5.557   4.146
  164SAPE  H20S18486   1.567   5.564   4.152
  164SAPE  H20T18487   1.639   5.419   4.076
  164SAPE   C3318488   2.217   5.700   5.720
  164SAPE   H3X18489   2.109   5.702   5.695
  164SAPE   H3Y18490   2.251   5.598   5.691
  164SAPE   C3418491   2.285   5.808   5.633
  164SAPE   H4X18492   2.395   5.798   5.622
  164SAPE   H4Y18493   2.275   5.907   5.682
  164SAPE   C3518494   2.232   5.817   5.484
  164SAPE   H5X18495   2.290   5.903   5.443
  164SAPE   H5Y18496   2.126   5.852   5.490
  164SAPE   C3618497   2.253   5.695   5.391
  164SAPE   H6X18498   2.182   5.616   5.423
  164SAPE   H6Y18499   2.357   5.659   5.406
  164SAPE   C3718500   2.241   5.735   5.244
  164SAPE   H7X18501   2.314   5.818   5.237
  164SAPE   H7Y18502   2.142   5.786   5.236
  164SAPE   C3818503   2.243   5.627   5.136
  164SAPE   H8X18504   2.208   5.659   5.036
  164SAPE   H8Y18505   2.171   5.552   5.174
  164SAPE   C3918506   2.376   5.575   5.108
  164SAPE   H9X18507   2.424   5.527   5.196
  164SAPE   H9Y18508   2.444   5.660   5.082
  164SAPE  C31018509   2.363   5.467   4.993
  164SAPE  H10X18510   2.279   5.404   5.030
  164SAPE  H10Y18511   2.451   5.400   4.987
  164SAPE  C31118512   2.361   5.524   4.852
  164SAPE  H11X18513   2.461   5.570   4.834
  164SAPE  H11Y18514   2.289   5.608   4.844
  164SAPE  C31218515   2.338   5.420   4.742
  164SAPE  H12X18516   2.251   5.357   4.773
  164SAPE  H12Y18517   2.430   5.360   4.725
  164SAPE  C31318518   2.285   5.485   4.611
  164SAPE  H13X18519   2.189   5.536   4.633
  164SAPE  H13Y18520   2.271   5.403   4.537
  164SAPE  C31418521   2.389   5.584   4.548
  164SAPE  H14X18522   2.488   5.534   4.548
  164SAPE  H14Y18523   2.387   5.685   4.594
  164SAPE  C31518524   2.359   5.617   4.399
  164SAPE  H15X18525   2.381   5.525   4.341
  164SAPE  H15Y18526   2.423   5.702   4.366
  164SAPE  C31618527   2.221   5.670   4.370
  164SAPE  H16X18528   2.189   5.757   4.430
  164SAPE  H16Y18529   2.150   5.587   4.389
  164SAPE  C31718530   2.196   5.690   4.220
  164SAPE  H17X18531   2.193   5.591   4.169
  164SAPE  H17Y18532   2.278   5.758   4.188
  164SAPE  C31818533   2.062   5.754   4.193
  164SAPE  H18X18534   1.971   5.692   4.207
  164SAPE  H18Y18535   2.069   5.800   4.092
  164SAPE  H18Z18536   2.050   5.829   4.273
  165SAPE     N18537   5.380   6.590   6.548
  165SAPE   HN118538   5.314   6.668   6.569
  165SAPE   HN218539   5.374   6.526   6.630
  165SAPE   HN318540   5.473   6.636   6.549
  165SAPE   C1218541   5.350   6.535   6.414
  165SAPE  H12A18542   5.317   6.623   6.355
  165SAPE  H12B18543   5.261   6.468   6.408
  165SAPE   C1118544   5.474   6.460   6.363
  165SAPE  H11A18545   5.555   6.525   6.322
  165SAPE  H11B18546   5.444   6.396   6.277
  165SAPE     P18547   5.487   6.234   6.483
  165SAPE   O1318548   5.567   6.167   6.588
  165SAPE   O1418549   5.337   6.230   6.494
  165SAPE   O1218550   5.538   6.377   6.464
  165SAPE   O1118551   5.533   6.168   6.346
  165SAPE    C118552   5.669   6.197   6.293
  165SAPE    HA18553   5.714   6.286   6.341
  165SAPE    HB18554   5.729   6.104   6.305
  165SAPE    C218555   5.669   6.237   6.146
  165SAPE    HS18556   5.622   6.337   6.134
  165SAPE   O2118557   5.625   6.140   6.056
  165SAPE   C2118558   5.494   6.135   6.040
  165SAPE   O2218559   5.412   6.213   6.082
  165SAPE   C2218560   5.456   6.012   5.964
  165SAPE   H2R18561   5.485   5.919   6.017
  165SAPE   H2S18562   5.345   6.013   5.966
  165SAPE    C318563   5.824   6.262   6.111
  165SAPE    HX18564   5.878   6.169   6.139
  165SAPE    HY18565   5.855   6.341   6.182
  165SAPE   O3118566   5.842   6.310   5.972
  165SAPE   C3118567   5.965   6.365   5.956
  165SAPE   O3218568   6.051   6.366   6.042
  165SAPE   C3218569   5.980   6.406   5.812
  165SAPE   H2X18570   6.088   6.405   5.786
  165SAPE   H2Y18571   5.926   6.502   5.795
  165SAPE   C2318572   5.514   6.005   5.826
  165SAPE   H3R18573   5.478   5.912   5.777
  165SAPE   H3S18574   5.626   6.008   5.827
  165SAPE   C2418575   5.461   6.119   5.738
  165SAPE   H4R18576   5.510   6.210   5.778
  165SAPE   H4S18577   5.352   6.126   5.759
  165SAPE   C2518578   5.495   6.118   5.592
  165SAPE   H5R18579   5.567   6.195   5.561
  165SAPE   C2618580   5.443   6.037   5.500
  165SAPE   H6R18581   5.467   6.039   5.393
  165SAPE   C2718582   5.339   5.934   5.533
  165SAPE   H7R18583   5.314   5.927   5.641
  165SAPE   H7S18584   5.375   5.830   5.518
  165SAPE   C2818585   5.211   5.952   5.459
  165SAPE   H8R18586   5.153   6.041   5.486
  165SAPE   C2918587   5.160   5.884   5.354
  165SAPE   H9R18588   5.059   5.908   5.317
  165SAPE  C21018589   5.211   5.755   5.286
  165SAPE  H10R18590   5.131   5.704   5.228
  165SAPE  H10S18591   5.229   5.679   5.366
  165SAPE  C21118592   5.330   5.755   5.197
  165SAPE  H11R18593   5.411   5.817   5.238
  165SAPE  C21218594   5.348   5.709   5.068
  165SAPE  H12R18595   5.447   5.716   5.020
  165SAPE  C21318596   5.239   5.624   5.000
  165SAPE  H13R18597   5.160   5.601   5.074
  165SAPE  H13S18598   5.275   5.521   4.977
  165SAPE  C21418599   5.167   5.686   4.882
  165SAPE  H14R18600   5.066   5.724   4.908
  165SAPE  C21518601   5.215   5.703   4.751
  165SAPE  H15R18602   5.142   5.738   4.676
  165SAPE  C21618603   5.351   5.665   4.701
  165SAPE  H16R18604   5.367   5.555   4.696
  165SAPE  H16S18605   5.426   5.691   4.778
  165SAPE  C21718606   5.392   5.740   4.568
  165SAPE  H17R18607   5.501   5.727   4.548
  165SAPE  H17S18608   5.368   5.847   4.581
  165SAPE  C21818609   5.302   5.706   4.446
  165SAPE  H18R18610   5.198   5.742   4.460
  165SAPE  H18S18611   5.311   5.596   4.434
  165SAPE  C21918612   5.359   5.774   4.315
  165SAPE  H19R18613   5.310   5.743   4.220
  165SAPE  H19S18614   5.466   5.746   4.309
  165SAPE  C22018615   5.339   5.926   4.318
  165SAPE  H20R18616   5.233   5.954   4.334
  165SAPE  H20S18617   5.372   5.957   4.217
  165SAPE  H20T18618   5.406   5.976   4.392
  165SAPE   C3318619   5.933   6.303   5.710
  165SAPE   H3X18620   5.831   6.272   5.744
  165SAPE   H3Y18621   5.989   6.208   5.709
  165SAPE   C3418622   5.922   6.359   5.566
  165SAPE   H4X18623   6.019   6.372   5.514
  165SAPE   H4Y18624   5.880   6.460   5.582
  165SAPE   C3518625   5.826   6.273   5.468
  165SAPE   H5X18626   5.725   6.303   5.505
  165SAPE   H5Y18627   5.838   6.164   5.488
  165SAPE   C3618628   5.852   6.296   5.319
  165SAPE   H6X18629   5.949   6.256   5.282
  165SAPE   H6Y18630   5.855   6.405   5.302
  165SAPE   C3718631   5.729   6.241   5.243
  165SAPE   H7X18632   5.632   6.266   5.292
  165SAPE   H7Y18633   5.743   6.131   5.241
  165SAPE   C3818634   5.726   6.285   5.096
  165SAPE   H8X18635   5.797   6.222   5.038
  165SAPE   H8Y18636   5.756   6.392   5.091
  165SAPE   C3918637   5.594   6.294   5.011
  165SAPE   H9X18638   5.523   6.354   5.071
  165SAPE   H9Y18639   5.550   6.193   4.991
  165SAPE  C31018640   5.606   6.365   4.878
  165SAPE  H10X18641   5.712   6.353   4.847
  165SAPE  H10Y18642   5.594   6.473   4.900
  165SAPE  C31118643   5.504   6.322   4.765
  165SAPE  H11X18644   5.524   6.397   4.685
  165SAPE  H11Y18645   5.402   6.331   4.807
  165SAPE  C31218646   5.518   6.173   4.708
  165SAPE  H12X18647   5.453   6.176   4.618
  165SAPE  H12Y18648   5.486   6.096   4.782
  165SAPE  C31318649   5.659   6.146   4.646
  165SAPE  H13X18650   5.735   6.139   4.727
  165SAPE  H13Y18651   5.689   6.219   4.568
  165SAPE  C31418652   5.665   5.999   4.577
  165SAPE  H14X18653   5.566   5.977   4.532
  165SAPE  H14Y18654   5.677   5.914   4.648
  165SAPE  C31518655   5.778   5.992   4.472
  165SAPE  H15X18656   5.871   6.019   4.527
  165SAPE  H15Y18657   5.761   6.071   4.396
  165SAPE  C31618658   5.798   5.853   4.396
  165SAPE  H16X18659   5.863   5.885   4.312
  165SAPE  H16Y18660   5.698   5.824   4.358
  165SAPE  C31718661   5.864   5.740   4.468
  165SAPE  H17X18662   5.813   5.732   4.566
  165SAPE  H17Y18663   5.971   5.763   4.489
  165SAPE  C31818664   5.859   5.602   4.395
  165SAPE  H18X18665   5.907   5.612   4.296
  165SAPE  H18Y18666   5.753   5.572   4.386
  165SAPE  H18Z18667   5.914   5.522   4.449
  166SAPE     N18668   3.071   1.611   5.928
  166SAPE   HN118669   3.090   1.694   5.869
  166SAPE   HN218670   3.099   1.531   5.867
  166SAPE   HN318671   2.968   1.599   5.937
  166SAPE   C1218672   3.142   1.610   6.055
  166SAPE  H12A18673   3.149   1.718   6.082
  166SAPE  H12B18674   3.246   1.571   6.055
  166SAPE   C1118675   3.049   1.544   6.156
  166SAPE  H11A18676   3.117   1.488   6.224
  166SAPE  H11B18677   2.997   1.457   6.109
  166SAPE     P18678   2.812   1.649   6.175
  166SAPE   O1318679   2.744   1.538   6.244
  166SAPE   O1418680   2.765   1.782   6.211
  166SAPE   O1218681   2.961   1.637   6.212
  166SAPE   O1118682   2.806   1.635   6.018
  166SAPE    C118683   2.676   1.594   5.964
  166SAPE    HA18684   2.672   1.483   5.965
  166SAPE    HB18685   2.590   1.627   6.026
  166SAPE    C218686   2.650   1.650   5.820
  166SAPE    HS18687   2.712   1.590   5.749
  166SAPE   O2118688   2.677   1.789   5.822
  166SAPE   C2118689   2.800   1.827   5.779
  166SAPE   O2218690   2.885   1.747   5.747
  166SAPE   C2218691   2.802   1.979   5.742
  166SAPE   H2R18692   2.742   2.036   5.817
  166SAPE   H2S18693   2.908   2.009   5.752
  166SAPE    C318694   2.504   1.613   5.774
  166SAPE    HX18695   2.444   1.701   5.807
  166SAPE    HY18696   2.486   1.513   5.820
  166SAPE   O3118697   2.512   1.588   5.631
  166SAPE   C3118698   2.467   1.683   5.555
  166SAPE   O3218699   2.414   1.789   5.597
  166SAPE   C3218700   2.463   1.633   5.409
  166SAPE   H2X18701   2.381   1.559   5.397
  166SAPE   H2Y18702   2.559   1.579   5.394
  166SAPE   C2318703   2.735   2.000   5.604
  166SAPE   H3R18704   2.634   1.956   5.594
  166SAPE   H3S18705   2.799   1.940   5.536
  166SAPE   C2418706   2.762   2.140   5.557
  166SAPE   H4R18707   2.714   2.140   5.456
  166SAPE   H4S18708   2.871   2.140   5.536
  166SAPE   C2518709   2.726   2.257   5.641
  166SAPE   H5R18710   2.678   2.231   5.736
  166SAPE   C2618711   2.729   2.390   5.613
  166SAPE   H6R18712   2.718   2.467   5.692
  166SAPE   C2718713   2.766   2.449   5.477
  166SAPE   H7R18714   2.804   2.364   5.417
  166SAPE   H7S18715   2.863   2.502   5.489
  166SAPE   C2818716   2.666   2.518   5.389
  166SAPE   H8R18717   2.586   2.567   5.447
  166SAPE   C2918718   2.674   2.533   5.259
  166SAPE   H9R18719   2.599   2.601   5.215
  166SAPE  C21018720   2.786   2.478   5.174
  166SAPE  H10R18721   2.828   2.380   5.204
  166SAPE  H10S18722   2.871   2.550   5.175
  166SAPE  C21118723   2.750   2.462   5.034
  166SAPE  H11R18724   2.752   2.359   4.994
  166SAPE  C21218725   2.731   2.551   4.937
  166SAPE  H12R18726   2.681   2.531   4.841
  166SAPE  C21318727   2.734   2.695   4.954
  166SAPE  H13R18728   2.818   2.748   4.903
  166SAPE  H13S18729   2.761   2.713   5.061
  166SAPE  C21418730   2.601   2.761   4.913
  166SAPE  H14R18731   2.516   2.731   4.977
  166SAPE  C21518732   2.570   2.846   4.812
  166SAPE  H15R18733   2.464   2.875   4.799
  166SAPE  C21618734   2.664   2.904   4.704
  166SAPE  H16R18735   2.738   2.965   4.761
  166SAPE  H16S18736   2.617   2.989   4.650
  166SAPE  C21718737   2.718   2.793   4.609
  166SAPE  H17R18738   2.635   2.759   4.544
  166SAPE  H17S18739   2.758   2.706   4.665
  166SAPE  C21818740   2.834   2.840   4.518
  166SAPE  H18R18741   2.925   2.832   4.581
  166SAPE  H18S18742   2.815   2.938   4.469
  166SAPE  C21918743   2.852   2.742   4.403
  166SAPE  H19R18744   2.760   2.718   4.345
  166SAPE  H19S18745   2.864   2.646   4.457
  166SAPE  C22018746   2.966   2.754   4.305
  166SAPE  H20R18747   2.956   2.835   4.230
  166SAPE  H20S18748   2.972   2.666   4.238
  166SAPE  H20T18749   3.060   2.762   4.364
  166SAPE   C3318750   2.436   1.753   5.318
  166SAPE   H3X18751   2.337   1.796   5.342
  166SAPE   H3Y18752   2.431   1.716   5.213
  166SAPE   C3418753   2.553   1.854   5.330
  166SAPE   H4X18754   2.651   1.802   5.335
  166SAPE   H4Y18755   2.552   1.908   5.427
  166SAPE   C3518756   2.558   1.968   5.224
  166SAPE   H5X18757   2.563   1.926   5.121
  166SAPE   H5Y18758   2.653   2.022   5.247
  166SAPE   C3618759   2.437   2.059   5.219
  166SAPE   H6X18760   2.440   2.140   5.295
  166SAPE   H6Y18761   2.343   2.004   5.241
  166SAPE   C3718762   2.434   2.133   5.093
  166SAPE   H7X18763   2.429   2.065   5.005
  166SAPE   H7Y18764   2.531   2.182   5.071
  166SAPE   C3818765   2.344   2.252   5.083
  166SAPE   H8X18766   2.362   2.326   5.165
  166SAPE   H8Y18767   2.238   2.231   5.109
  166SAPE   C3918768   2.354   2.328   4.942
  166SAPE   H9X18769   2.301   2.260   4.872
  166SAPE   H9Y18770   2.456   2.357   4.910
  166SAPE  C31018771   2.285   2.464   4.948
  166SAPE  H10X18772   2.347   2.535   5.007
  166SAPE  H10Y18773   2.184   2.465   4.993
  166SAPE  C31118774   2.269   2.532   4.810
  166SAPE  H11X18775   2.366   2.532   4.756
  166SAPE  H11Y18776   2.253   2.641   4.826
  166SAPE  C31218777   2.147   2.470   4.737
  166SAPE  H12X18778   2.066   2.514   4.799
  166SAPE  H12Y18779   2.143   2.360   4.723
  166SAPE  C31318780   2.126   2.526   4.597
  166SAPE  H13X18781   2.024   2.504   4.559
  166SAPE  H13Y18782   2.198   2.483   4.524
  166SAPE  C31418783   2.147   2.679   4.600
  166SAPE  H14X18784   2.252   2.699   4.628
  166SAPE  H14Y18785   2.076   2.725   4.672
  166SAPE  C31518786   2.122   2.741   4.457
  166SAPE  H15X18787   2.013   2.724   4.439
  166SAPE  H15Y18788   2.171   2.688   4.373
  166SAPE  C31618789   2.162   2.888   4.460
  166SAPE  H16X18790   2.271   2.899   4.477
  166SAPE  H16Y18791   2.119   2.934   4.552
  166SAPE  C31718792   2.119   2.955   4.331
  166SAPE  H17X18793   2.009   2.949   4.323
  166SAPE  H17Y18794   2.161   2.900   4.245
  166SAPE  C31818795   2.173   3.100   4.305
  166SAPE  H18X18796   2.283   3.100   4.289
  166SAPE  H18Y18797   2.153   3.165   4.393
  166SAPE  H18Z18798   2.146   3.149   4.209
  167SAPE     N18799   6.953   3.911   6.225
  167SAPE   HN118800   6.934   3.829   6.286
  167SAPE   HN218801   7.046   3.954   6.245
  167SAPE   HN318802   6.874   3.978   6.237
  167SAPE   C1218803   6.950   3.852   6.088
  167SAPE  H12A18804   7.053   3.825   6.057
  167SAPE  H12B18805   6.908   3.937   6.030
  167SAPE   C1118806   6.850   3.734   6.064
  167SAPE  H11A18807   6.867   3.706   5.958
  167SAPE  H11B18808   6.749   3.776   6.086
  167SAPE     P18809   6.800   3.505   6.193
  167SAPE   O1318810   6.893   3.405   6.239
  167SAPE   O1418811   6.691   3.534   6.283
  167SAPE   O1218812   6.886   3.641   6.161
  167SAPE   O1118813   6.745   3.467   6.050
  167SAPE    C118814   6.840   3.416   5.960
  167SAPE    HA18815   6.805   3.450   5.860
  167SAPE    HB18816   6.942   3.458   5.976
  167SAPE    C218817   6.839   3.259   5.970
  167SAPE    HS18818   6.874   3.229   6.071
  167SAPE   O2118819   6.923   3.207   5.867
  167SAPE   C2118820   7.057   3.226   5.883
  167SAPE   O2218821   7.103   3.257   5.990
  167SAPE   C2218822   7.135   3.226   5.754
  167SAPE   H2R18823   7.243   3.231   5.781
  167SAPE   H2S18824   7.120   3.130   5.701
  167SAPE    C318825   6.690   3.213   5.956
  167SAPE    HX18826   6.626   3.253   6.037
  167SAPE    HY18827   6.692   3.104   5.977
  167SAPE   O3118828   6.627   3.253   5.838
  167SAPE   C3118829   6.639   3.185   5.734
  167SAPE   O3218830   6.704   3.079   5.727
  167SAPE   C3218831   6.554   3.238   5.617
  167SAPE   H2X18832   6.528   3.346   5.623
  167SAPE   H2Y18833   6.462   3.178   5.626
  167SAPE   C2318834   7.101   3.342   5.660
  167SAPE   H3R18835   7.100   3.441   5.711
  167SAPE   H3S18836   7.002   3.330   5.611
  167SAPE   C2418837   7.213   3.363   5.549
  167SAPE   H4R18838   7.219   3.271   5.486
  167SAPE   H4S18839   7.315   3.367   5.594
  167SAPE   C2518840   7.202   3.489   5.463
  167SAPE   H5R18841   7.211   3.583   5.518
  167SAPE   C2618842   7.187   3.490   5.330
  167SAPE   H6R18843   7.180   3.589   5.281
  167SAPE   C2718844   7.182   3.376   5.232
  167SAPE   H7R18845   7.231   3.288   5.280
  167SAPE   H7S18846   7.240   3.414   5.145
  167SAPE   C2818847   7.039   3.333   5.200
  167SAPE   H8R18848   6.985   3.286   5.284
  167SAPE   C2918849   6.973   3.337   5.086
  167SAPE   H9R18850   6.869   3.301   5.083
  167SAPE  C21018851   7.019   3.395   4.951
  167SAPE  H10R18852   7.124   3.361   4.939
  167SAPE  H10S18853   7.016   3.506   4.947
  167SAPE  C21118854   6.953   3.331   4.834
  167SAPE  H11R18855   6.960   3.221   4.824
  167SAPE  C21218856   6.891   3.387   4.736
  167SAPE  H12R18857   6.839   3.321   4.666
  167SAPE  C21318858   6.868   3.538   4.712
  167SAPE  H13R18859   6.837   3.590   4.805
  167SAPE  H13S18860   6.796   3.537   4.628
  167SAPE  C21418861   6.992   3.604   4.652
  167SAPE  H14R18862   7.087   3.556   4.681
  167SAPE  C21518863   7.001   3.721   4.580
  167SAPE  H15R18864   7.102   3.762   4.567
  167SAPE  C21618865   6.882   3.814   4.558
  167SAPE  H16R18866   6.914   3.913   4.596
  167SAPE  H16S18867   6.796   3.775   4.617
  167SAPE  C21718868   6.862   3.816   4.406
  167SAPE  H17R18869   6.829   3.717   4.366
  167SAPE  H17S18870   6.955   3.845   4.353
  167SAPE  C21818871   6.738   3.907   4.386
  167SAPE  H18R18872   6.760   4.005   4.433
  167SAPE  H18S18873   6.648   3.864   4.436
  167SAPE  C21918874   6.710   3.919   4.236
  167SAPE  H19R18875   6.685   3.825   4.183
  167SAPE  H19S18876   6.800   3.964   4.189
  167SAPE  C22018877   6.591   4.006   4.210
  167SAPE  H20R18878   6.586   4.015   4.100
  167SAPE  H20S18879   6.603   4.110   4.248
  167SAPE  H20T18880   6.496   3.963   4.249
  167SAPE   C3318881   6.637   3.212   5.487
  167SAPE   H3X18882   6.642   3.102   5.479
  167SAPE   H3Y18883   6.741   3.250   5.480
  167SAPE   C3418884   6.561   3.264   5.364
  167SAPE   H4X18885   6.575   3.373   5.344
  167SAPE   H4Y18886   6.456   3.243   5.394
  167SAPE   C3518887   6.619   3.200   5.237
  167SAPE   H5X18888   6.636   3.090   5.248
  167SAPE   H5Y18889   6.721   3.238   5.215
  167SAPE   C3618890   6.538   3.227   5.113
  167SAPE   H6X18891   6.504   3.332   5.106
  167SAPE   H6Y18892   6.447   3.164   5.124
  167SAPE   C3718893   6.612   3.199   4.986
  167SAPE   H7X18894   6.673   3.112   5.019
  167SAPE   H7Y18895   6.675   3.285   4.954
  167SAPE   C3818896   6.530   3.152   4.871
  167SAPE   H8X18897   6.456   3.227   4.837
  167SAPE   H8Y18898   6.463   3.070   4.904
  167SAPE   C3918899   6.623   3.098   4.761
  167SAPE   H9X18900   6.715   3.058   4.808
  167SAPE   H9Y18901   6.649   3.178   4.689
  167SAPE  C31018902   6.552   2.992   4.680
  167SAPE  H10X18903   6.456   3.039   4.651
  167SAPE  H10Y18904   6.544   2.902   4.744
  167SAPE  C31118905   6.631   2.947   4.548
  167SAPE  H11X18906   6.738   2.940   4.578
  167SAPE  H11Y18907   6.628   3.031   4.476
  167SAPE  C31218908   6.575   2.825   4.473
  167SAPE  H12X18909   6.537   2.743   4.537
  167SAPE  H12Y18910   6.655   2.779   4.411
  167SAPE  C31318911   6.455   2.863   4.376
  167SAPE  H13X18912   6.485   2.945   4.307
  167SAPE  H13Y18913   6.384   2.905   4.451
  167SAPE  C31418914   6.411   2.738   4.307
  167SAPE  H14X18915   6.365   2.669   4.381
  167SAPE  H14Y18916   6.485   2.670   4.260
  167SAPE  C31518917   6.307   2.756   4.192
  167SAPE  H15X18918   6.206   2.779   4.232
  167SAPE  H15Y18919   6.313   2.661   4.135
  167SAPE  C31618920   6.340   2.868   4.091
  167SAPE  H16X18921   6.355   2.967   4.140
  167SAPE  H16Y18922   6.256   2.874   4.020
  167SAPE  C31718923   6.460   2.848   4.006
  167SAPE  H17X18924   6.452   2.763   3.936
  167SAPE  H17Y18925   6.553   2.841   4.066
  167SAPE  C31818926   6.489   2.974   3.915
  167SAPE  H18X18927   6.579   2.950   3.854
  167SAPE  H18Y18928   6.521   3.050   3.989
  167SAPE  H18Z18929   6.408   3.009   3.848
  168SAPE     N18930   0.063   5.574   6.486
  168SAPE   HN118931  -0.039   5.587   6.468
  168SAPE   HN218932   0.078   5.474   6.510
  168SAPE   HN318933   0.090   5.640   6.561
  168SAPE   C1218934   0.135   5.614   6.358
  168SAPE  H12A18935   0.090   5.559   6.272
  168SAPE  H12B18936   0.241   5.594   6.386
  168SAPE   C1118937   0.108   5.764   6.342
  168SAPE  H11A18938   0.003   5.795   6.320
  168SAPE  H11B18939   0.169   5.791   6.253
  168SAPE     P18940   0.234   5.971   6.450
  168SAPE   O1318941   0.201   6.040   6.579
  168SAPE   O1418942   0.373   5.950   6.411
  168SAPE   O1218943   0.152   5.838   6.457
  168SAPE   O1118944   0.167   6.050   6.331
  168SAPE    C118945   0.255   6.147   6.263
  168SAPE    HA18946   0.235   6.241   6.319
  168SAPE    HB18947   0.361   6.115   6.257
  168SAPE    C218948   0.215   6.164   6.116
  168SAPE    HS18949   0.297   6.220   6.065
  168SAPE   O2118950   0.086   6.228   6.110
  168SAPE   C2118951   0.086   6.359   6.118
  168SAPE   O2218952   0.178   6.432   6.133
  168SAPE   C2218953  -0.051   6.412   6.094
  168SAPE   H2R18954  -0.074   6.411   5.985
  168SAPE   H2S18955  -0.121   6.337   6.136
  168SAPE    C318956   0.201   6.035   6.040
  168SAPE    HX18957   0.105   5.997   6.079
  168SAPE    HY18958   0.284   5.967   6.067
  168SAPE   O3118959   0.194   6.063   5.896
  168SAPE   C3118960   0.286   6.000   5.825
  168SAPE   O3218961   0.384   5.941   5.869
  168SAPE   C3218962   0.243   6.013   5.683
  168SAPE   H2X18963   0.217   6.118   5.655
  168SAPE   H2Y18964   0.145   5.960   5.674
  168SAPE   C2318965  -0.083   6.546   6.157
  168SAPE   H3R18966  -0.059   6.554   6.265
  168SAPE   H3S18967  -0.192   6.558   6.139
  168SAPE   C2418968  -0.028   6.673   6.082
  168SAPE   H4R18969  -0.075   6.651   5.984
  168SAPE   H4S18970   0.082   6.666   6.073
  168SAPE   C2518971  -0.064   6.802   6.148
  168SAPE   H5R18972  -0.065   6.807   6.258
  168SAPE   C2618973  -0.128   6.903   6.082
  168SAPE   H6R18974  -0.165   6.990   6.137
  168SAPE   C2718975  -0.159   6.915   5.932
  168SAPE   H7R18976  -0.153   6.824   5.868
  168SAPE   H7S18977  -0.077   6.981   5.896
  168SAPE   C2818978  -0.293   6.983   5.899
  168SAPE   H8R18979  -0.304   7.079   5.951
  168SAPE   C2918980  -0.396   6.934   5.822
  168SAPE   H9R18981  -0.493   6.982   5.842
  168SAPE  C21018982  -0.391   6.792   5.755
  168SAPE  H10R18983  -0.339   6.710   5.810
  168SAPE  H10S18984  -0.324   6.805   5.667
  168SAPE  C21118985  -0.527   6.752   5.707
  168SAPE  H11R18986  -0.596   6.838   5.707
  168SAPE  C21218987  -0.561   6.631   5.654
  168SAPE  H12R18988  -0.665   6.598   5.648
  168SAPE  C21318989  -0.468   6.516   5.628
  168SAPE  H13R18990  -0.368   6.544   5.589
  168SAPE  H13S18991  -0.495   6.448   5.544
  168SAPE  C21418992  -0.457   6.432   5.759
  168SAPE  H14R18993  -0.428   6.492   5.847
  168SAPE  C21518994  -0.488   6.299   5.777
  168SAPE  H15R18995  -0.475   6.254   5.877
  168SAPE  C21618996  -0.554   6.209   5.676
  168SAPE  H16R18997  -0.493   6.116   5.667
  168SAPE  H16S18998  -0.557   6.254   5.574
  168SAPE  C21718999  -0.706   6.180   5.696
  168SAPE  H17R19000  -0.761   6.155   5.603
  168SAPE  H17S19001  -0.748   6.279   5.723
  168SAPE  C21819002  -0.727   6.063   5.798
  168SAPE  H18R19003  -0.832   6.086   5.826
  168SAPE  H18S19004  -0.660   6.072   5.885
  168SAPE  C21919005  -0.706   5.921   5.734
  168SAPE  H19R19006  -0.616   5.926   5.670
  168SAPE  H19S19007  -0.790   5.893   5.666
  168SAPE  C22019008  -0.683   5.812   5.835
  168SAPE  H20R19009  -0.592   5.842   5.891
  168SAPE  H20S19010  -0.678   5.713   5.784
  168SAPE  H20T19011  -0.763   5.812   5.912
  168SAPE   C3319012   0.342   5.945   5.585
  168SAPE   H3X19013   0.355   5.841   5.622
  168SAPE   H3Y19014   0.444   5.987   5.595
  168SAPE   C3419015   0.292   5.944   5.440
  168SAPE   H4X19016   0.203   5.878   5.441
  168SAPE   H4Y19017   0.358   5.897   5.365
  168SAPE   C3519018   0.250   6.085   5.383
  168SAPE   H5X19019   0.337   6.150   5.359
  168SAPE   H5Y19020   0.194   6.144   5.459
  168SAPE   C3619021   0.154   6.081   5.262
  168SAPE   H6X19022   0.086   5.994   5.265
  168SAPE   H6Y19023   0.224   6.064   5.176
  168SAPE   C3719024   0.106   6.223   5.226
  168SAPE   H7X19025   0.168   6.297   5.280
  168SAPE   H7Y19026   0.003   6.234   5.267
  168SAPE   C3819027   0.087   6.232   5.071
  168SAPE   H8X19028   0.015   6.154   5.036
  168SAPE   H8Y19029   0.184   6.231   5.015
  168SAPE   C3919030   0.020   6.361   5.036
  168SAPE   H9X19031   0.087   6.449   5.048
  168SAPE   H9Y19032  -0.066   6.382   5.104
  168SAPE  C31019033  -0.028   6.359   4.887
  168SAPE  H10X19034  -0.091   6.269   4.872
  168SAPE  H10Y19035   0.069   6.350   4.832
  168SAPE  C31119036  -0.095   6.489   4.852
  168SAPE  H11X19037  -0.033   6.581   4.861
  168SAPE  H11Y19038  -0.175   6.497   4.929
  168SAPE  C31219039  -0.149   6.481   4.708
  168SAPE  H12X19040  -0.226   6.559   4.693
  168SAPE  H12Y19041  -0.198   6.382   4.693
  168SAPE  C31319042  -0.042   6.500   4.600
  168SAPE  H13X19043   0.039   6.431   4.632
  168SAPE  H13Y19044  -0.003   6.603   4.591
  168SAPE  C31419045  -0.087   6.468   4.457
  168SAPE  H14X19046  -0.133   6.367   4.465
  168SAPE  H14Y19047   0.008   6.459   4.401
  168SAPE  C31519048  -0.182   6.568   4.401
  168SAPE  H15X19049  -0.166   6.675   4.427
  168SAPE  H15Y19050  -0.282   6.540   4.441
  168SAPE  C31619051  -0.194   6.566   4.249
  168SAPE  H16X19052  -0.256   6.651   4.215
  168SAPE  H16Y19053  -0.235   6.470   4.211
  168SAPE  C31719054  -0.062   6.595   4.176
  168SAPE  H17X19055  -0.078   6.566   4.070
  168SAPE  H17Y19056   0.022   6.534   4.215
  168SAPE  C31819057  -0.027   6.740   4.187
  168SAPE  H18X19058   0.063   6.769   4.129
  168SAPE  H18Y19059   0.006   6.772   4.288
  168SAPE  H18Z19060  -0.117   6.792   4.147
  169SAPE     N19061   5.446   0.512   6.443
  169SAPE   HN119062   5.420   0.499   6.543
  169SAPE   HN219063   5.476   0.611   6.432
  169SAPE   HN319064   5.361   0.495   6.385
  169SAPE   C1219065   5.566   0.425   6.401
  169SAPE  H12A19066   5.618   0.392   6.493
  169SAPE  H12B19067   5.639   0.489   6.348
  169SAPE   C1119068   5.521   0.309   6.310
  169SAPE  H11A19069   5.608   0.253   6.270
  169SAPE  H11B19070   5.466   0.341   6.219
  169SAPE     P19071   5.419   0.066   6.345
  169SAPE   O1319072   5.540  -0.019   6.349
  169SAPE   O1419073   5.306   0.031   6.442
  169SAPE   O1219074   5.453   0.210   6.396
  169SAPE   O1119075   5.371   0.092   6.205
  169SAPE    C119076   5.243   0.052   6.153
  169SAPE    HA19077   5.197  -0.025   6.220
  169SAPE    HB19078   5.175   0.140   6.158
  169SAPE    C219079   5.251   0.002   6.010
  169SAPE    HS19080   5.158  -0.047   5.974
  169SAPE   O2119081   5.363  -0.095   5.996
  169SAPE   C2119082   5.342  -0.213   6.049
  169SAPE   O2219083   5.254  -0.250   6.125
  169SAPE   C2219084   5.463  -0.305   6.019
  169SAPE   H2R19085   5.536  -0.313   6.102
  169SAPE   H2S19086   5.401  -0.393   5.989
  169SAPE    C319087   5.283   0.121   5.919
  169SAPE    HX19088   5.374   0.171   5.957
  169SAPE    HY19089   5.198   0.192   5.909
  169SAPE   O3119090   5.308   0.068   5.789
  169SAPE   C3119091   5.382   0.143   5.707
  169SAPE   O3219092   5.451   0.238   5.748
  169SAPE   C3219093   5.378   0.088   5.561
  169SAPE   H2X19094   5.293   0.016   5.558
  169SAPE   H2Y19095   5.468   0.026   5.546
  169SAPE   C2319096   5.539  -0.250   5.894
  169SAPE   H3R19097   5.598  -0.158   5.920
  169SAPE   H3S19098   5.468  -0.213   5.818
  169SAPE   C2419099   5.647  -0.341   5.833
  169SAPE   H4R19100   5.720  -0.372   5.910
  169SAPE   H4S19101   5.704  -0.282   5.758
  169SAPE   C2519102   5.592  -0.472   5.770
  169SAPE   H5R19103   5.575  -0.551   5.844
  169SAPE   C2619104   5.540  -0.489   5.650
  169SAPE   H6R19105   5.509  -0.592   5.625
  169SAPE   C2719106   5.527  -0.386   5.538
  169SAPE   H7R19107   5.590  -0.299   5.569
  169SAPE   H7S19108   5.426  -0.340   5.535
  169SAPE   C2819109   5.559  -0.437   5.400
  169SAPE   H8R19110   5.606  -0.536   5.393
  169SAPE   C2919111   5.521  -0.391   5.288
  169SAPE   H9R19112   5.556  -0.441   5.197
  169SAPE  C21019113   5.443  -0.257   5.284
  169SAPE  H10R19114   5.465  -0.212   5.185
  169SAPE  H10S19115   5.493  -0.183   5.349
  169SAPE  C21119116   5.288  -0.247   5.310
  169SAPE  H11R19117   5.255  -0.270   5.413
  169SAPE  C21219118   5.193  -0.206   5.221
  169SAPE  H12R19119   5.085  -0.214   5.241
  169SAPE  C21319120   5.228  -0.165   5.079
  169SAPE  H13R19121   5.328  -0.120   5.095
  169SAPE  H13S19122   5.161  -0.079   5.056
  169SAPE  C21419123   5.231  -0.281   4.980
  169SAPE  H14R19124   5.268  -0.377   5.019
  169SAPE  C21519125   5.178  -0.274   4.854
  169SAPE  H15R19126   5.174  -0.364   4.791
  169SAPE  C21619127   5.106  -0.152   4.804
  169SAPE  H16R19128   5.167  -0.063   4.833
  169SAPE  H16S19129   5.001  -0.156   4.841
  169SAPE  C21719130   5.079  -0.161   4.647
  169SAPE  H17R19131   5.006  -0.242   4.624
  169SAPE  H17S19132   5.175  -0.193   4.602
  169SAPE  C21819133   5.024  -0.044   4.572
  169SAPE  H18R19134   5.094   0.039   4.595
  169SAPE  H18S19135   4.926  -0.019   4.619
  169SAPE  C21919136   5.002  -0.070   4.418
  169SAPE  H19R19137   5.003   0.031   4.374
  169SAPE  H19S19138   4.902  -0.117   4.409
  169SAPE  C22019139   5.108  -0.168   4.357
  169SAPE  H20R19140   5.099  -0.190   4.249
  169SAPE  H20S19141   5.095  -0.269   4.402
  169SAPE  H20T19142   5.210  -0.138   4.388
  169SAPE   C3319143   5.377   0.206   5.466
  169SAPE   H3X19144   5.465   0.273   5.481
  169SAPE   H3Y19145   5.291   0.274   5.485
  169SAPE   C3419146   5.368   0.165   5.319
  169SAPE   H4X19147   5.318   0.256   5.279
  169SAPE   H4Y19148   5.305   0.074   5.310
  169SAPE   C3519149   5.507   0.146   5.257
  169SAPE   H5X19150   5.539   0.060   5.319
  169SAPE   H5Y19151   5.566   0.238   5.278
  169SAPE   C3619152   5.521   0.117   5.106
  169SAPE   H6X19153   5.431   0.057   5.081
  169SAPE   H6Y19154   5.614   0.061   5.083
  169SAPE   C3719155   5.512   0.243   5.021
  169SAPE   H7X19156   5.584   0.320   5.056
  169SAPE   H7Y19157   5.416   0.296   5.038
  169SAPE   C3819158   5.533   0.209   4.868
  169SAPE   H8X19159   5.605   0.126   4.847
  169SAPE   H8Y19160   5.584   0.292   4.814
  169SAPE   C3919161   5.399   0.177   4.800
  169SAPE   H9X19162   5.329   0.257   4.833
  169SAPE   H9Y19163   5.360   0.078   4.831
  169SAPE  C31019164   5.405   0.182   4.644
  169SAPE  H10X19165   5.452   0.281   4.620
  169SAPE  H10Y19166   5.305   0.187   4.596
  169SAPE  C31119167   5.503   0.084   4.574
  169SAPE  H11X19168   5.444  -0.010   4.567
  169SAPE  H11Y19169   5.594   0.060   4.632
  169SAPE  C31219170   5.539   0.131   4.436
  169SAPE  H12X19171   5.444   0.165   4.389
  169SAPE  H12Y19172   5.575   0.042   4.380
  169SAPE  C31319173   5.648   0.240   4.421
  169SAPE  H13X19174   5.748   0.195   4.434
  169SAPE  H13Y19175   5.625   0.306   4.506
  169SAPE  C31419176   5.651   0.310   4.288
  169SAPE  H14X19177   5.549   0.349   4.266
  169SAPE  H14Y19178   5.684   0.230   4.219
  169SAPE  C31519179   5.755   0.426   4.298
  169SAPE  H15X19180   5.846   0.383   4.346
  169SAPE  H15Y19181   5.724   0.501   4.374
  169SAPE  C31619182   5.799   0.502   4.166
  169SAPE  H16X19183   5.840   0.423   4.098
  169SAPE  H16Y19184   5.887   0.567   4.185
  169SAPE  C31719185   5.683   0.567   4.090
  169SAPE  H17X19186   5.619   0.620   4.165
  169SAPE  H17Y19187   5.622   0.487   4.043
  169SAPE  C31819188   5.716   0.671   3.982
  169SAPE  H18X19189   5.786   0.749   4.018
  169SAPE  H18Y19190   5.621   0.724   3.958
  169SAPE  H18Z19191   5.743   0.617   3.888
  170SAPE     N19192   0.394   3.655   6.165
  170SAPE   HN119193   0.451   3.581   6.120
  170SAPE   HN219194   0.313   3.611   6.212
  170SAPE   HN319195   0.358   3.716   6.088
  170SAPE   C1219196   0.478   3.739   6.262
  170SAPE  H12A19197   0.550   3.792   6.197
  170SAPE  H12B19198   0.533   3.671   6.330
  170SAPE   C1119199   0.386   3.841   6.339
  170SAPE  H11A19200   0.454   3.890   6.412
  170SAPE  H11B19201   0.296   3.807   6.393
  170SAPE     P19202   0.283   4.074   6.289
  170SAPE   O1319203   0.149   4.087   6.229
  170SAPE   O1419204   0.286   4.080   6.436
  170SAPE   O1219205   0.338   3.932   6.244
  170SAPE   O1119206   0.387   4.172   6.222
  170SAPE    C119207   0.477   4.144   6.114
  170SAPE    HA19208   0.579   4.181   6.137
  170SAPE    HB19209   0.486   4.034   6.095
  170SAPE    C219210   0.443   4.206   5.977
  170SAPE    HS19211   0.439   4.316   5.990
  170SAPE   O2119212   0.321   4.144   5.931
  170SAPE   C2119213   0.220   4.227   5.922
  170SAPE   O2219214   0.221   4.349   5.937
  170SAPE   C2219215   0.103   4.155   5.869
  170SAPE   H2R19216   0.113   4.047   5.891
  170SAPE   H2S19217   0.009   4.189   5.919
  170SAPE    C319218   0.560   4.193   5.871
  170SAPE    HX19219   0.587   4.087   5.853
  170SAPE    HY19220   0.647   4.237   5.922
  170SAPE   O3119221   0.518   4.262   5.752
  170SAPE   C3119222   0.549   4.388   5.736
  170SAPE   O3219223   0.635   4.448   5.803
  170SAPE   C3219224   0.472   4.443   5.616
  170SAPE   H2X19225   0.446   4.361   5.546
  170SAPE   H2Y19226   0.552   4.498   5.563
  170SAPE   C2319227   0.072   4.181   5.721
  170SAPE   H3R19228   0.063   4.291   5.707
  170SAPE   H3S19229  -0.028   4.136   5.703
  170SAPE   C2419230   0.171   4.124   5.617
  170SAPE   H4R19231   0.260   4.188   5.631
  170SAPE   H4S19232   0.120   4.155   5.524
  170SAPE   C2519233   0.196   3.978   5.633
  170SAPE   H5R19234   0.246   3.946   5.725
  170SAPE   C2619235   0.160   3.882   5.547
  170SAPE   H6R19236   0.207   3.784   5.565
  170SAPE   C2719237   0.093   3.896   5.411
  170SAPE   H7R19238  -0.004   3.947   5.432
  170SAPE   H7S19239   0.061   3.799   5.369
  170SAPE   C2819240   0.174   3.975   5.304
  170SAPE   H8R19241   0.282   3.960   5.319
  170SAPE   C2919242   0.135   4.049   5.199
  170SAPE   H9R19243   0.205   4.091   5.125
  170SAPE  C21019244  -0.012   4.072   5.169
  170SAPE  H10R19245  -0.053   4.169   5.205
  170SAPE  H10S19246  -0.068   3.990   5.218
  170SAPE  C21119247  -0.049   4.053   5.026
  170SAPE  H11R19248  -0.051   4.150   4.974
  170SAPE  C21219249  -0.087   3.943   4.966
  170SAPE  H12R19250  -0.130   3.955   4.866
  170SAPE  C21319251  -0.099   3.807   5.015
  170SAPE  H13R19252  -0.067   3.805   5.121
  170SAPE  H13S19253  -0.024   3.749   4.958
  170SAPE  C21419254  -0.239   3.752   4.999
  170SAPE  H14R19255  -0.304   3.787   4.918
  170SAPE  C21519256  -0.281   3.653   5.089
  170SAPE  H15R19257  -0.385   3.626   5.064
  170SAPE  C21619258  -0.214   3.589   5.202
  170SAPE  H16R19259  -0.105   3.605   5.195
  170SAPE  H16S19260  -0.236   3.481   5.203
  170SAPE  C21719261  -0.253   3.637   5.347
  170SAPE  H17R19262  -0.363   3.624   5.358
  170SAPE  H17S19263  -0.228   3.745   5.355
  170SAPE  C21819264  -0.186   3.557   5.451
  170SAPE  H18R19265  -0.077   3.556   5.429
  170SAPE  H18S19266  -0.223   3.453   5.455
  170SAPE  C21919267  -0.198   3.612   5.594
  170SAPE  H19R19268  -0.142   3.708   5.593
  170SAPE  H19S19269  -0.149   3.532   5.654
  170SAPE  C22019270  -0.337   3.642   5.642
  170SAPE  H20R19271  -0.366   3.738   5.595
  170SAPE  H20S19272  -0.328   3.655   5.752
  170SAPE  H20T19273  -0.409   3.561   5.616
  170SAPE   C3319274   0.342   4.524   5.631
  170SAPE   H3X19275   0.359   4.633   5.643
  170SAPE   H3Y19276   0.299   4.502   5.731
  170SAPE   C3419277   0.246   4.511   5.517
  170SAPE   H4X19278   0.161   4.577   5.547
  170SAPE   H4Y19279   0.202   4.409   5.517
  170SAPE   C3519280   0.295   4.568   5.375
  170SAPE   H5X19281   0.252   4.499   5.299
  170SAPE   H5Y19282   0.406   4.572   5.372
  170SAPE   C3619283   0.258   4.716   5.354
  170SAPE   H6X19284   0.300   4.781   5.435
  170SAPE   H6Y19285   0.148   4.717   5.365
  170SAPE   C3719286   0.313   4.760   5.217
  170SAPE   H7X19287   0.284   4.683   5.143
  170SAPE   H7Y19288   0.423   4.772   5.206
  170SAPE   C3819289   0.236   4.882   5.174
  170SAPE   H8X19290   0.258   4.976   5.230
  170SAPE   H8Y19291   0.131   4.860   5.201
  170SAPE   C3919292   0.255   4.907   5.026
  170SAPE   H9X19293   0.201   4.841   4.954
  170SAPE   H9Y19294   0.363   4.887   5.009
  170SAPE  C31019295   0.217   5.053   4.987
  170SAPE  H10X19296   0.281   5.122   5.046
  170SAPE  H10Y19297   0.112   5.081   5.008
  170SAPE  C31119298   0.256   5.081   4.841
  170SAPE  H11X19299   0.202   5.024   4.762
  170SAPE  H11Y19300   0.364   5.057   4.832
  170SAPE  C31219301   0.251   5.230   4.814
  170SAPE  H12X19302   0.301   5.291   4.893
  170SAPE  H12Y19303   0.144   5.255   4.801
  170SAPE  C31319304   0.308   5.262   4.676
  170SAPE  H13X19305   0.241   5.211   4.603
  170SAPE  H13Y19306   0.410   5.223   4.659
  170SAPE  C31419307   0.314   5.413   4.645
  170SAPE  H14X19308   0.383   5.463   4.715
  170SAPE  H14Y19309   0.211   5.455   4.642
  170SAPE  C31519310   0.372   5.434   4.504
  170SAPE  H15X19311   0.332   5.360   4.432
  170SAPE  H15Y19312   0.482   5.420   4.507
  170SAPE  C31619313   0.347   5.575   4.463
  170SAPE  H16X19314   0.396   5.648   4.531
  170SAPE  H16Y19315   0.237   5.589   4.468
  170SAPE  C31719316   0.405   5.595   4.320
  170SAPE  H17X19317   0.437   5.496   4.282
  170SAPE  H17Y19318   0.500   5.652   4.322
  170SAPE  C31819319   0.304   5.667   4.227
  170SAPE  H18X19320   0.337   5.659   4.121
  170SAPE  H18Y19321   0.280   5.773   4.251
  170SAPE  H18Z19322   0.211   5.607   4.233
  171SAPE     N19323   2.680   0.145   6.122
  171SAPE   HN119324   2.724   0.228   6.079
  171SAPE   HN219325   2.646   0.183   6.213
  171SAPE   HN319326   2.752   0.070   6.128
  171SAPE   C1219327   2.559   0.092   6.052
  171SAPE  H12A19328   2.592   0.045   5.957
  171SAPE  H12B19329   2.490   0.175   6.027
  171SAPE   C1119330   2.476  -0.003   6.140
  171SAPE  H11A19331   2.545  -0.084   6.174
  171SAPE  H11B19332   2.397  -0.055   6.081
  171SAPE     P19333   2.288   0.154   6.268
  171SAPE   O1319334   2.230   0.122   6.401
  171SAPE   O1419335   2.313   0.297   6.224
  171SAPE   O1219336   2.422   0.070   6.259
  171SAPE   O1119337   2.194   0.080   6.158
  171SAPE    C119338   2.144   0.153   6.047
  171SAPE    HA19339   2.049   0.201   6.080
  171SAPE    HB19340   2.214   0.231   6.011
  171SAPE    C219341   2.110   0.069   5.914
  171SAPE    HS19342   2.015   0.017   5.936
  171SAPE   O2119343   2.219  -0.024   5.892
  171SAPE   C2119344   2.186  -0.129   5.810
  171SAPE   O2219345   2.080  -0.146   5.755
  171SAPE   C2219346   2.316  -0.202   5.780
  171SAPE   H2R19347   2.342  -0.262   5.870
  171SAPE   H2S19348   2.290  -0.271   5.697
  171SAPE    C319349   2.093   0.164   5.799
  171SAPE    HX19350   2.195   0.201   5.775
  171SAPE    HY19351   2.036   0.253   5.834
  171SAPE   O3119352   2.040   0.107   5.678
  171SAPE   C3119353   1.912   0.080   5.689
  171SAPE   O3219354   1.844   0.092   5.790
  171SAPE   C3219355   1.859   0.018   5.563
  171SAPE   H2X19356   1.937  -0.041   5.509
  171SAPE   H2Y19357   1.823   0.101   5.499
  171SAPE   C2319358   2.435  -0.114   5.730
  171SAPE   H3R19359   2.440  -0.022   5.793
  171SAPE   H3S19360   2.408  -0.083   5.627
  171SAPE   C2419361   2.567  -0.188   5.730
  171SAPE   H4R19362   2.555  -0.269   5.656
  171SAPE   H4S19363   2.570  -0.227   5.834
  171SAPE   C2519364   2.691  -0.107   5.701
  171SAPE   H5R19365   2.732  -0.053   5.788
  171SAPE   C2619366   2.757  -0.083   5.584
  171SAPE   H6R19367   2.836  -0.007   5.581
  171SAPE   C2719368   2.710  -0.153   5.458
  171SAPE   H7R19369   2.599  -0.149   5.443
  171SAPE   H7S19370   2.710  -0.263   5.465
  171SAPE   C2819371   2.785  -0.103   5.335
  171SAPE   H8R19372   2.894  -0.115   5.343
  171SAPE   C2919373   2.732  -0.047   5.220
  171SAPE   H9R19374   2.800  -0.028   5.136
  171SAPE  C21019375   2.585  -0.043   5.194
  171SAPE  H10R19376   2.523  -0.114   5.253
  171SAPE  H10S19377   2.570  -0.082   5.091
  171SAPE  C21119378   2.521   0.096   5.195
  171SAPE  H11R19379   2.561   0.172   5.126
  171SAPE  C21219380   2.403   0.126   5.260
  171SAPE  H12R19381   2.362   0.228   5.249
  171SAPE  C21319382   2.316   0.039   5.346
  171SAPE  H13R19383   2.345   0.063   5.451
  171SAPE  H13S19384   2.336  -0.067   5.322
  171SAPE  C21419385   2.168   0.069   5.332
  171SAPE  H14R19386   2.116   0.075   5.429
  171SAPE  C21519387   2.087   0.068   5.222
  171SAPE  H15R19388   1.981   0.093   5.233
  171SAPE  C21619389   2.133   0.027   5.087
  171SAPE  H16R19390   2.222  -0.034   5.113
  171SAPE  H16S19391   2.170   0.110   5.024
  171SAPE  C21719392   2.043  -0.062   5.001
  171SAPE  H17R19393   1.976   0.007   4.946
  171SAPE  H17S19394   1.987  -0.142   5.054
  171SAPE  C21819395   2.109  -0.145   4.887
  171SAPE  H18R19396   2.186  -0.206   4.939
  171SAPE  H18S19397   2.166  -0.075   4.822
  171SAPE  C21919398   2.014  -0.242   4.816
  171SAPE  H19R19399   1.973  -0.306   4.896
  171SAPE  H19S19400   2.052  -0.301   4.730
  171SAPE  C22019401   1.887  -0.173   4.759
  171SAPE  H20R19402   1.831  -0.121   4.839
  171SAPE  H20S19403   1.905  -0.103   4.674
  171SAPE  H20T19404   1.828  -0.252   4.708
  171SAPE   C3319405   1.751  -0.089   5.578
  171SAPE   H3X19406   1.669  -0.043   5.637
  171SAPE   H3Y19407   1.792  -0.177   5.631
  171SAPE   C3419408   1.694  -0.118   5.435
  171SAPE   H4X19409   1.657  -0.024   5.387
  171SAPE   H4Y19410   1.603  -0.179   5.453
  171SAPE   C3519411   1.782  -0.186   5.331
  171SAPE   H5X19412   1.822  -0.278   5.380
  171SAPE   H5Y19413   1.871  -0.122   5.312
  171SAPE   C3619414   1.716  -0.235   5.197
  171SAPE   H6X19415   1.639  -0.310   5.223
  171SAPE   H6Y19416   1.792  -0.288   5.135
  171SAPE   C3719417   1.644  -0.118   5.117
  171SAPE   H7X19418   1.711  -0.040   5.074
  171SAPE   H7Y19419   1.577  -0.069   5.191
  171SAPE   C3819420   1.565  -0.165   4.994
  171SAPE   H8X19421   1.487  -0.233   5.036
  171SAPE   H8Y19422   1.646  -0.216   4.939
  171SAPE   C3919423   1.504  -0.053   4.911
  171SAPE   H9X19424   1.589   0.018   4.894
  171SAPE   H9Y19425   1.437   0.008   4.975
  171SAPE  C31019426   1.431  -0.092   4.780
  171SAPE  H10X19427   1.326  -0.122   4.801
  171SAPE  H10Y19428   1.469  -0.190   4.744
  171SAPE  C31119429   1.445   0.020   4.667
  171SAPE  H11X19430   1.425   0.115   4.721
  171SAPE  H11Y19431   1.365   0.009   4.591
  171SAPE  C31219432   1.584   0.010   4.597
  171SAPE  H12X19433   1.667   0.002   4.670
  171SAPE  H12Y19434   1.602   0.099   4.533
  171SAPE  C31319435   1.594  -0.100   4.486
  171SAPE  H13X19436   1.523  -0.067   4.407
  171SAPE  H13Y19437   1.559  -0.201   4.517
  171SAPE  C31419438   1.736  -0.114   4.418
  171SAPE  H14X19439   1.817  -0.064   4.474
  171SAPE  H14Y19440   1.734  -0.070   4.316
  171SAPE  C31519441   1.776  -0.268   4.404
  171SAPE  H15X19442   1.779  -0.299   4.511
  171SAPE  H15Y19443   1.878  -0.265   4.359
  171SAPE  C31619444   1.676  -0.351   4.319
  171SAPE  H16X19445   1.672  -0.305   4.218
  171SAPE  H16Y19446   1.574  -0.342   4.362
  171SAPE  C31719447   1.707  -0.505   4.307
  171SAPE  H17X19448   1.714  -0.558   4.404
  171SAPE  H17Y19449   1.813  -0.504   4.274
  171SAPE  C31819450   1.619  -0.588   4.215
  171SAPE  H18X19451   1.667  -0.689   4.213
  171SAPE  H18Y19452   1.610  -0.541   4.115
  171SAPE  H18Z19453   1.516  -0.590   4.257
  172SAPE     N19454   0.385   0.576   6.419
  172SAPE   HN119455   0.413   0.547   6.514
  172SAPE   HN219456   0.401   0.678   6.404
  172SAPE   HN319457   0.287   0.544   6.409
  172SAPE   C1219458   0.454   0.491   6.321
  172SAPE  H12A19459   0.565   0.492   6.332
  172SAPE  H12B19460   0.430   0.543   6.226
  172SAPE   C1119461   0.402   0.348   6.327
  172SAPE  H11A19462   0.470   0.292   6.259
  172SAPE  H11B19463   0.296   0.352   6.293
  172SAPE     P19464   0.465   0.160   6.487
  172SAPE   O1319465   0.609   0.171   6.522
  172SAPE   O1419466   0.374   0.087   6.584
  172SAPE   O1219467   0.400   0.301   6.462
  172SAPE   O1119468   0.439   0.081   6.351
  172SAPE    C119469   0.502  -0.048   6.338
  172SAPE    HA19470   0.595  -0.062   6.398
  172SAPE    HB19471   0.432  -0.126   6.377
  172SAPE    C219472   0.533  -0.091   6.185
  172SAPE    HS19473   0.595  -0.007   6.145
  172SAPE   O2119474   0.404  -0.111   6.115
  172SAPE   C2119475   0.415  -0.076   5.992
  172SAPE   O2219476   0.498  -0.005   5.943
  172SAPE   C2219477   0.299  -0.135   5.926
  172SAPE   H2R19478   0.287  -0.236   5.970
  172SAPE   H2S19479   0.211  -0.076   5.962
  172SAPE    C319480   0.608  -0.226   6.169
  172SAPE    HX19481   0.550  -0.311   6.212
  172SAPE    HY19482   0.705  -0.212   6.222
  172SAPE   O3119483   0.641  -0.260   6.036
  172SAPE   C3119484   0.740  -0.202   5.971
  172SAPE   O3219485   0.821  -0.126   6.024
  172SAPE   C3219486   0.732  -0.226   5.823
  172SAPE   H2X19487   0.653  -0.158   5.784
  172SAPE   H2Y19488   0.704  -0.334   5.815
  172SAPE   C2319489   0.306  -0.139   5.768
  172SAPE   H3R19490   0.308  -0.242   5.725
  172SAPE   H3S19491   0.399  -0.090   5.731
  172SAPE   C2419492   0.184  -0.063   5.702
  172SAPE   H4R19493   0.089  -0.107   5.741
  172SAPE   H4S19494   0.200  -0.079   5.593
  172SAPE   C2519495   0.191   0.079   5.746
  172SAPE   H5R19496   0.207   0.109   5.851
  172SAPE   C2619497   0.187   0.184   5.662
  172SAPE   H6R19498   0.200   0.287   5.699
  172SAPE   C2719499   0.182   0.190   5.510
  172SAPE   H7R19500   0.181   0.086   5.472
  172SAPE   H7S19501   0.280   0.230   5.478
  172SAPE   C2819502   0.057   0.263   5.454
  172SAPE   H8R19503  -0.037   0.257   5.511
  172SAPE   C2919504   0.057   0.351   5.347
  172SAPE   H9R19505  -0.040   0.391   5.313
  172SAPE  C21019506   0.174   0.408   5.269
  172SAPE  H10R19507   0.263   0.370   5.323
  172SAPE  H10S19508   0.175   0.519   5.282
  172SAPE  C21119509   0.188   0.375   5.121
  172SAPE  H11R19510   0.245   0.283   5.102
  172SAPE  C21219511   0.165   0.463   5.020
  172SAPE  H12R19512   0.187   0.424   4.920
  172SAPE  C21319513   0.108   0.601   5.031
  172SAPE  H13R19514   0.072   0.626   5.133
  172SAPE  H13S19515   0.013   0.609   4.975
  172SAPE  C21419516   0.214   0.705   4.983
  172SAPE  H14R19517   0.290   0.739   5.056
  172SAPE  C21519518   0.224   0.770   4.875
  172SAPE  H15R19519   0.301   0.847   4.858
  172SAPE  C21619520   0.130   0.763   4.761
  172SAPE  H16R19521   0.036   0.823   4.773
  172SAPE  H16S19522   0.093   0.660   4.742
  172SAPE  C21719523   0.193   0.822   4.633
  172SAPE  H17R19524   0.124   0.800   4.548
  172SAPE  H17S19525   0.286   0.766   4.609
  172SAPE  C21819526   0.241   0.965   4.633
  172SAPE  H18R19527   0.313   0.981   4.715
  172SAPE  H18S19528   0.158   1.037   4.650
  172SAPE  C21919529   0.298   0.991   4.496
  172SAPE  H19R19530   0.210   0.985   4.428
  172SAPE  H19S19531   0.372   0.913   4.469
  172SAPE  C22019532   0.353   1.137   4.481
  172SAPE  H20R19533   0.436   1.151   4.554
  172SAPE  H20S19534   0.273   1.210   4.503
  172SAPE  H20T19535   0.390   1.159   4.378
  172SAPE   C3319536   0.856  -0.212   5.742
  172SAPE   H3X19537   0.942  -0.252   5.799
  172SAPE   H3Y19538   0.872  -0.103   5.724
  172SAPE   C3419539   0.857  -0.266   5.595
  172SAPE   H4X19540   0.887  -0.373   5.598
  172SAPE   H4Y19541   0.942  -0.214   5.546
  172SAPE   C3519542   0.720  -0.241   5.519
  172SAPE   H5X19543   0.679  -0.142   5.546
  172SAPE   H5Y19544   0.645  -0.316   5.550
  172SAPE   C3619545   0.744  -0.253   5.370
  172SAPE   H6X19546   0.783  -0.353   5.340
  172SAPE   H6Y19547   0.830  -0.191   5.334
  172SAPE   C3719548   0.632  -0.210   5.278
  172SAPE   H7X19549   0.540  -0.261   5.316
  172SAPE   H7Y19550   0.641  -0.228   5.169
  172SAPE   C3819551   0.577  -0.067   5.297
  172SAPE   H8X19552   0.675  -0.019   5.276
  172SAPE   H8Y19553   0.544  -0.044   5.401
  172SAPE   C3919554   0.474  -0.020   5.195
  172SAPE   H9X19555   0.508  -0.039   5.091
  172SAPE   H9Y19556   0.472   0.091   5.200
  172SAPE  C31019557   0.325  -0.075   5.213
  172SAPE  H10X19558   0.294  -0.040   5.314
  172SAPE  H10Y19559   0.338  -0.185   5.226
  172SAPE  C31119560   0.240  -0.022   5.102
  172SAPE  H11X19561   0.278  -0.073   5.011
  172SAPE  H11Y19562   0.259   0.085   5.079
  172SAPE  C31219563   0.086  -0.047   5.123
  172SAPE  H12X19564   0.044   0.024   5.198
  172SAPE  H12Y19565   0.071  -0.146   5.172
  172SAPE  C31319566   0.001  -0.037   4.994
  172SAPE  H13X19567  -0.107  -0.023   5.015
  172SAPE  H13Y19568   0.025  -0.130   4.939
  172SAPE  C31419569   0.043   0.088   4.914
  172SAPE  H14X19570   0.144   0.082   4.868
  172SAPE  H14Y19571   0.052   0.176   4.982
  172SAPE  C31519572  -0.060   0.116   4.800
  172SAPE  H15X19573  -0.038   0.217   4.760
  172SAPE  H15Y19574  -0.158   0.119   4.853
  172SAPE  C31619575  -0.040   0.024   4.675
  172SAPE  H16X19576  -0.038  -0.082   4.709
  172SAPE  H16Y19577   0.056   0.050   4.626
  172SAPE  C31719578  -0.150   0.052   4.566
  172SAPE  H17X19579  -0.093   0.063   4.471
  172SAPE  H17Y19580  -0.204   0.147   4.589
  172SAPE  C31819581  -0.250  -0.059   4.568
  172SAPE  H18X19582  -0.199  -0.154   4.541
  172SAPE  H18Y19583  -0.331  -0.029   4.498
  172SAPE  H18Z19584  -0.287  -0.066   4.673
  173SAPE     N19585   1.403   5.484   6.278
  173SAPE   HN119586   1.439   5.431   6.361
  173SAPE   HN219587   1.299   5.479   6.287
  173SAPE   HN319588   1.419   5.426   6.194
  173SAPE   C1219589   1.454   5.619   6.239
  173SAPE  H12A19590   1.564   5.630   6.251
  173SAPE  H12B19591   1.413   5.697   6.307
  173SAPE   C1119592   1.414   5.665   6.097
  173SAPE  H11A19593   1.480   5.615   6.024
  173SAPE  H11B19594   1.441   5.773   6.086
  173SAPE     P19595   1.210   5.527   5.995
  173SAPE   O1319596   1.296   5.408   6.010
  173SAPE   O1419597   1.068   5.511   6.032
  173SAPE   O1219598   1.277   5.647   6.080
  173SAPE   O1119599   1.228   5.582   5.847
  173SAPE    C119600   1.226   5.720   5.818
  173SAPE    HA19601   1.147   5.772   5.876
  173SAPE    HB19602   1.320   5.769   5.851
  173SAPE    C219603   1.191   5.752   5.668
  173SAPE    HS19604   1.084   5.730   5.650
  173SAPE   O2119605   1.282   5.686   5.578
  173SAPE   C2119606   1.234   5.648   5.460
  173SAPE   O2219607   1.117   5.669   5.431
  173SAPE   C2219608   1.347   5.578   5.382
  173SAPE   H2R19609   1.422   5.660   5.381
  173SAPE   H2S19610   1.388   5.491   5.437
  173SAPE    C319611   1.194   5.909   5.653
  173SAPE    HX19612   1.297   5.945   5.669
  173SAPE    HY19613   1.133   5.944   5.739
  173SAPE   O3119614   1.133   5.958   5.529
  173SAPE   C3119615   1.213   5.992   5.430
  173SAPE   O3219616   1.333   5.968   5.431
  173SAPE   C3219617   1.146   6.060   5.307
  173SAPE   H2X19618   1.230   6.101   5.249
  173SAPE   H2Y19619   1.083   6.143   5.345
  173SAPE   C2319620   1.311   5.556   5.233
  173SAPE   H3R19621   1.255   5.641   5.189
  173SAPE   H3S19622   1.242   5.470   5.215
  173SAPE   C2419623   1.443   5.533   5.156
  173SAPE   H4R19624   1.507   5.624   5.161
  173SAPE   H4S19625   1.413   5.520   5.050
  173SAPE   C2519626   1.526   5.413   5.192
  173SAPE   H5R19627   1.490   5.356   5.279
  173SAPE   C2619628   1.640   5.382   5.131
  173SAPE   H6R19629   1.691   5.291   5.165
  173SAPE   C2719630   1.711   5.450   5.016
  173SAPE   H7R19631   1.812   5.404   5.013
  173SAPE   H7S19632   1.728   5.556   5.044
  173SAPE   C2819633   1.644   5.439   4.879
  173SAPE   H8R19634   1.549   5.385   4.880
  173SAPE   C2919635   1.698   5.490   4.765
  173SAPE   H9R19636   1.644   5.481   4.669
  173SAPE  C21019637   1.832   5.562   4.766
  173SAPE  H10R19638   1.902   5.512   4.836
  173SAPE  H10S19639   1.818   5.661   4.814
  173SAPE  C21119640   1.902   5.573   4.631
  173SAPE  H11R19641   1.971   5.489   4.618
  173SAPE  C21219642   1.884   5.675   4.547
  173SAPE  H12R19643   1.946   5.673   4.456
  173SAPE  C21319644   1.788   5.787   4.545
  173SAPE  H13R19645   1.693   5.748   4.588
  173SAPE  H13S19646   1.773   5.809   4.437
  173SAPE  C21419647   1.826   5.902   4.635
  173SAPE  H14R19648   1.912   5.876   4.698
  173SAPE  C21519649   1.764   6.021   4.643
  173SAPE  H15R19650   1.804   6.099   4.710
  173SAPE  C21619651   1.640   6.069   4.563
  173SAPE  H16R19652   1.607   5.997   4.485
  173SAPE  H16S19653   1.670   6.157   4.503
  173SAPE  C21719654   1.516   6.089   4.648
  173SAPE  H17R19655   1.442   6.143   4.586
  173SAPE  H17S19656   1.545   6.146   4.739
  173SAPE  C21819657   1.456   5.948   4.695
  173SAPE  H18R19658   1.542   5.890   4.733
  173SAPE  H18S19659   1.417   5.899   4.602
  173SAPE  C21919660   1.350   5.959   4.799
  173SAPE  H19R19661   1.286   6.049   4.789
  173SAPE  H19S19662   1.398   5.980   4.897
  173SAPE  C22019663   1.250   5.837   4.809
  173SAPE  H20R19664   1.190   5.832   4.902
  173SAPE  H20S19665   1.307   5.742   4.807
  173SAPE  H20T19666   1.181   5.839   4.721
  173SAPE   C3319667   1.071   5.953   5.226
  173SAPE   H3X19668   1.003   5.898   5.293
  173SAPE   H3Y19669   1.140   5.870   5.199
  173SAPE   C3419670   0.988   6.005   5.111
  173SAPE   H4X19671   0.912   6.080   5.142
  173SAPE   H4Y19672   0.939   5.916   5.065
  173SAPE   C3519673   1.069   6.078   5.010
  173SAPE   H5X19674   1.167   6.027   5.003
  173SAPE   H5Y19675   1.084   6.187   5.027
  173SAPE   C3619676   0.987   6.088   4.875
  173SAPE   H6X19677   1.004   5.994   4.819
  173SAPE   H6Y19678   1.030   6.169   4.812
  173SAPE   C3719679   0.840   6.129   4.888
  173SAPE   H7X19680   0.834   6.202   4.971
  173SAPE   H7Y19681   0.778   6.046   4.928
  173SAPE   C3819682   0.775   6.193   4.765
  173SAPE   H8X19683   0.796   6.121   4.683
  173SAPE   H8Y19684   0.827   6.289   4.744
  173SAPE   C3919685   0.622   6.207   4.762
  173SAPE   H9X19686   0.589   6.275   4.681
  173SAPE   H9Y19687   0.581   6.252   4.855
  173SAPE  C31019688   0.536   6.082   4.734
  173SAPE  H10X19689   0.437   6.090   4.785
  173SAPE  H10Y19690   0.594   6.000   4.781
  173SAPE  C31119691   0.500   6.053   4.580
  173SAPE  H11X19692   0.410   6.114   4.559
  173SAPE  H11Y19693   0.480   5.944   4.575
  173SAPE  C31219694   0.616   6.078   4.481
  173SAPE  H12X19695   0.700   6.014   4.516
  173SAPE  H12Y19696   0.637   6.188   4.481
  173SAPE  C31319697   0.571   6.057   4.334
  173SAPE  H13X19698   0.466   6.089   4.321
  173SAPE  H13Y19699   0.582   5.948   4.312
  173SAPE  C31419700   0.648   6.145   4.234
  173SAPE  H14X19701   0.749   6.117   4.270
  173SAPE  H14Y19702   0.624   6.251   4.257
  173SAPE  C31519703   0.617   6.108   4.090
  173SAPE  H15X19704   0.510   6.120   4.064
  173SAPE  H15Y19705   0.640   6.002   4.066
  173SAPE  C31619706   0.685   6.193   3.981
  173SAPE  H16X19707   0.796   6.191   3.980
  173SAPE  H16Y19708   0.643   6.290   4.018
  173SAPE  C31719709   0.642   6.168   3.834
  173SAPE  H17X19710   0.532   6.162   3.839
  173SAPE  H17Y19711   0.682   6.070   3.798
  173SAPE  C31819712   0.676   6.279   3.738
  173SAPE  H18X19713   0.656   6.379   3.782
  173SAPE  H18Y19714   0.616   6.282   3.644
  173SAPE  H18Z19715   0.785   6.275   3.718
  174SAPE     N19716   0.604   5.951   6.556
  174SAPE   HN119717   0.699   5.928   6.521
  174SAPE   HN219718   0.564   5.872   6.610
  174SAPE   HN319719   0.539   5.975   6.479
  174SAPE   C1219720   0.608   6.072   6.653
  174SAPE  H12A19721   0.688   6.052   6.728
  174SAPE  H12B19722   0.510   6.081   6.705
  174SAPE   C1119723   0.623   6.212   6.594
  174SAPE  H11A19724   0.638   6.291   6.671
  174SAPE  H11B19725   0.523   6.221   6.547
  174SAPE     P19726   0.748   6.348   6.418
  174SAPE   O1319727   0.714   6.470   6.486
  174SAPE   O1419728   0.878   6.339   6.349
  174SAPE   O1219729   0.733   6.222   6.512
  174SAPE   O1119730   0.632   6.326   6.310
  174SAPE    C119731   0.645   6.215   6.215
  174SAPE    HA19732   0.736   6.153   6.230
  174SAPE    HB19733   0.567   6.137   6.227
  174SAPE    C219734   0.657   6.252   6.058
  174SAPE    HS19735   0.757   6.301   6.061
  174SAPE   O2119736   0.543   6.325   6.019
  174SAPE   C2119737   0.571   6.427   5.931
  174SAPE   O2219738   0.678   6.433   5.881
  174SAPE   C2219739   0.461   6.508   5.890
  174SAPE   H2R19740   0.439   6.565   5.983
  174SAPE   H2S19741   0.499   6.589   5.824
  174SAPE    C319742   0.664   6.119   5.969
  174SAPE    HX19743   0.582   6.052   6.003
  174SAPE    HY19744   0.759   6.064   5.985
  174SAPE   O3119745   0.658   6.140   5.826
  174SAPE   C3119746   0.772   6.193   5.782
  174SAPE   O3219747   0.871   6.226   5.848
  174SAPE   C3219748   0.768   6.236   5.633
  174SAPE   H2X19749   0.855   6.302   5.614
  174SAPE   H2Y19750   0.677   6.296   5.612
  174SAPE   C2319751   0.338   6.437   5.841
  174SAPE   H3R19752   0.247   6.497   5.860
  174SAPE   H3S19753   0.331   6.344   5.902
  174SAPE   C2419754   0.355   6.406   5.689
  174SAPE   H4R19755   0.268   6.345   5.658
  174SAPE   H4S19756   0.448   6.346   5.677
  174SAPE   C2519757   0.376   6.522   5.604
  174SAPE   H5R19758   0.467   6.582   5.615
  174SAPE   C2619759   0.288   6.566   5.509
  174SAPE   H6R19760   0.309   6.665   5.466
  174SAPE   C2719761   0.155   6.508   5.483
  174SAPE   H7R19762   0.085   6.525   5.567
  174SAPE   H7S19763   0.182   6.401   5.468
  174SAPE   C2819764   0.099   6.575   5.358
  174SAPE   H8R19765   0.145   6.543   5.264
  174SAPE   C2919766   0.002   6.662   5.347
  174SAPE   H9R19767  -0.013   6.689   5.242
  174SAPE  C21019768  -0.084   6.718   5.457
  174SAPE  H10R19769  -0.032   6.692   5.551
  174SAPE  H10S19770  -0.176   6.655   5.455
  174SAPE  C21119771  -0.123   6.864   5.475
  174SAPE  H11R19772  -0.095   6.914   5.568
  174SAPE  C21219773  -0.203   6.929   5.389
  174SAPE  H12R19774  -0.237   7.032   5.405
  174SAPE  C21319775  -0.262   6.875   5.261
  174SAPE  H13R19776  -0.182   6.821   5.206
  174SAPE  H13S19777  -0.294   6.967   5.206
  174SAPE  C21419778  -0.383   6.792   5.289
  174SAPE  H14R19779  -0.391   6.762   5.394
  174SAPE  C21519780  -0.470   6.748   5.195
  174SAPE  H15R19781  -0.556   6.685   5.221
  174SAPE  C21619782  -0.460   6.778   5.049
  174SAPE  H16R19783  -0.506   6.695   4.992
  174SAPE  H16S19784  -0.356   6.797   5.014
  174SAPE  C21719785  -0.536   6.911   5.017
  174SAPE  H17R19786  -0.491   6.987   5.085
  174SAPE  H17S19787  -0.645   6.903   5.038
  174SAPE  C21819788  -0.506   6.975   4.878
  174SAPE  H18R19789  -0.546   6.910   4.797
  174SAPE  H18S19790  -0.396   6.984   4.870
  174SAPE  C21919791  -0.574   7.112   4.855
  174SAPE  H19R19792  -0.538   7.183   4.932
  174SAPE  H19S19793  -0.685   7.105   4.850
  174SAPE  C22019794  -0.525   7.174   4.728
  174SAPE  H20R19795  -0.541   7.282   4.709
  174SAPE  H20S19796  -0.584   7.131   4.643
  174SAPE  H20T19797  -0.418   7.148   4.713
  174SAPE   C3319798   0.757   6.112   5.540
  174SAPE   H3X19799   0.657   6.068   5.562
  174SAPE   H3Y19800   0.836   6.038   5.567
  174SAPE   C3419801   0.751   6.131   5.391
  174SAPE   H4X19802   0.768   6.037   5.336
  174SAPE   H4Y19803   0.833   6.196   5.356
  174SAPE   C3519804   0.620   6.212   5.358
  174SAPE   H5X19805   0.622   6.317   5.394
  174SAPE   H5Y19806   0.532   6.155   5.393
  174SAPE   C3619807   0.611   6.227   5.202
  174SAPE   H6X19808   0.608   6.126   5.155
  174SAPE   H6Y19809   0.709   6.275   5.183
  174SAPE   C3719810   0.499   6.316   5.148
  174SAPE   H7X19811   0.401   6.280   5.186
  174SAPE   H7Y19812   0.508   6.287   5.041
  174SAPE   C3819813   0.527   6.465   5.173
  174SAPE   H8X19814   0.625   6.496   5.130
  174SAPE   H8Y19815   0.527   6.474   5.284
  174SAPE   C3919816   0.420   6.554   5.103
  174SAPE   H9X19817   0.440   6.661   5.123
  174SAPE   H9Y19818   0.328   6.527   5.159
  174SAPE  C31019819   0.412   6.541   4.954
  174SAPE  H10X19820   0.363   6.445   4.929
  174SAPE  H10Y19821   0.515   6.540   4.913
  174SAPE  C31119822   0.328   6.654   4.893
  174SAPE  H11X19823   0.369   6.753   4.925
  174SAPE  H11Y19824   0.222   6.645   4.927
  174SAPE  C31219825   0.320   6.657   4.742
  174SAPE  H12X19826   0.281   6.559   4.706
  174SAPE  H12Y19827   0.424   6.669   4.706
  174SAPE  C31319828   0.236   6.764   4.679
  174SAPE  H13X19829   0.277   6.860   4.715
  174SAPE  H13Y19830   0.133   6.749   4.719
  174SAPE  C31419831   0.237   6.765   4.528
  174SAPE  H14X19832   0.187   6.856   4.488
  174SAPE  H14Y19833   0.173   6.681   4.494
  174SAPE  C31519834   0.371   6.758   4.448
  174SAPE  H15X19835   0.425   6.661   4.454
  174SAPE  H15Y19836   0.445   6.830   4.491
  174SAPE  C31619837   0.349   6.811   4.304
  174SAPE  H16X19838   0.271   6.743   4.263
  174SAPE  H16Y19839   0.443   6.795   4.247
  174SAPE  C31719840   0.305   6.964   4.290
  174SAPE  H17X19841   0.282   7.011   4.388
  174SAPE  H17Y19842   0.207   6.957   4.237
  174SAPE  C31819843   0.407   7.052   4.227
  174SAPE  H18X19844   0.376   7.158   4.241
  174SAPE  H18Y19845   0.395   7.026   4.120
  174SAPE  H18Z19846   0.507   7.033   4.269
  175SAPE     N19847   3.704   3.982   1.969
  175SAPE   HN119848   3.703   3.884   2.003
  175SAPE   HN219849   3.645   3.993   1.884
  175SAPE   HN319850   3.801   3.996   1.934
  175SAPE   C1219851   3.669   4.072   2.086
  175SAPE  H12A19852   3.691   4.174   2.049
  175SAPE  H12B19853   3.726   4.052   2.179
  175SAPE   C1119854   3.518   4.068   2.119
  175SAPE  H11A19855   3.503   4.128   2.211
  175SAPE  H11B19856   3.493   3.966   2.157
  175SAPE     P19857   3.294   4.067   1.996
  175SAPE   O1319858   3.241   4.129   1.875
  175SAPE   O1419859   3.272   3.920   2.007
  175SAPE   O1219860   3.439   4.104   2.003
  175SAPE   O1119861   3.233   4.139   2.120
  175SAPE    C119862   3.271   4.277   2.140
  175SAPE    HA19863   3.380   4.296   2.136
  175SAPE    HB19864   3.233   4.337   2.055
  175SAPE    C219865   3.230   4.325   2.284
  175SAPE    HS19866   3.119   4.326   2.293
  175SAPE   O2119867   3.279   4.455   2.313
  175SAPE   C2119868   3.219   4.565   2.258
  175SAPE   O2219869   3.112   4.567   2.205
  175SAPE   C2219870   3.302   4.681   2.304
  175SAPE   H2R19871   3.370   4.650   2.387
  175SAPE   H2S19872   3.370   4.712   2.223
  175SAPE    C319873   3.289   4.234   2.393
  175SAPE    HX19874   3.399   4.237   2.377
  175SAPE    HY19875   3.247   4.133   2.378
  175SAPE   O3119876   3.266   4.278   2.532
  175SAPE   C3119877   3.145   4.247   2.572
  175SAPE   O3219878   3.057   4.205   2.504
  175SAPE   C3219879   3.134   4.274   2.725
  175SAPE   H2X19880   3.227   4.239   2.775
  175SAPE   H2Y19881   3.049   4.211   2.759
  175SAPE   C2319882   3.216   4.801   2.358
  175SAPE   H3R19883   3.123   4.818   2.298
  175SAPE   H3S19884   3.274   4.895   2.366
  175SAPE   C2419885   3.168   4.768   2.496
  175SAPE   H4R19886   3.257   4.754   2.561
  175SAPE   H4S19887   3.109   4.675   2.506
  175SAPE   C2519888   3.086   4.882   2.551
  175SAPE   H5R19889   2.990   4.912   2.504
  175SAPE   C2619890   3.107   4.947   2.664
  175SAPE   H6R19891   3.042   5.032   2.694
  175SAPE   C2719892   3.213   4.919   2.768
  175SAPE   H7R19893   3.211   4.808   2.773
  175SAPE   H7S19894   3.183   4.945   2.871
  175SAPE   C2819895   3.352   4.962   2.736
  175SAPE   H8R19896   3.373   4.962   2.628
  175SAPE   C2919897   3.433   5.019   2.825
  175SAPE   H9R19898   3.515   5.079   2.783
  175SAPE  C21019899   3.410   5.046   2.972
  175SAPE  H10R19900   3.481   4.985   3.031
  175SAPE  H10S19901   3.310   5.014   3.007
  175SAPE  C21119902   3.424   5.191   3.010
  175SAPE  H11R19903   3.486   5.259   2.949
  175SAPE  C21219904   3.395   5.250   3.129
  175SAPE  H12R19905   3.407   5.359   3.143
  175SAPE  C21319906   3.329   5.177   3.244
  175SAPE  H13R19907   3.283   5.082   3.212
  175SAPE  H13S19908   3.237   5.228   3.279
  175SAPE  C21419909   3.422   5.141   3.354
  175SAPE  H14R19910   3.479   5.047   3.340
  175SAPE  C21519911   3.461   5.204   3.465
  175SAPE  H15R19912   3.541   5.161   3.526
  175SAPE  C21619913   3.412   5.335   3.515
  175SAPE  H16R19914   3.338   5.378   3.444
  175SAPE  H16S19915   3.495   5.409   3.505
  175SAPE  C21719916   3.359   5.327   3.659
  175SAPE  H17R19917   3.334   5.429   3.696
  175SAPE  H17S19918   3.448   5.303   3.721
  175SAPE  C21819919   3.232   5.249   3.690
  175SAPE  H18R19920   3.265   5.146   3.662
  175SAPE  H18S19921   3.156   5.287   3.619
  175SAPE  C21919922   3.175   5.249   3.833
  175SAPE  H19R19923   3.246   5.212   3.910
  175SAPE  H19S19924   3.086   5.182   3.828
  175SAPE  C22019925   3.112   5.385   3.874
  175SAPE  H20R19926   3.039   5.423   3.799
  175SAPE  H20S19927   3.185   5.467   3.890
  175SAPE  H20T19928   3.060   5.370   3.970
  175SAPE   C3319929   3.111   4.418   2.755
  175SAPE   H3X19930   3.012   4.460   2.727
  175SAPE   H3Y19931   3.191   4.468   2.696
  175SAPE   C3419932   3.137   4.458   2.899
  175SAPE   H4X19933   3.146   4.568   2.895
  175SAPE   H4Y19934   3.236   4.432   2.941
  175SAPE   C3519935   3.051   4.399   3.010
  175SAPE   H5X19936   3.111   4.428   3.099
  175SAPE   H5Y19937   3.059   4.288   3.004
  175SAPE   C3619938   2.914   4.465   3.015
  175SAPE   H6X19939   2.860   4.469   2.918
  175SAPE   H6Y19940   2.930   4.572   3.041
  175SAPE   C3719941   2.822   4.417   3.133
  175SAPE   H7X19942   2.872   4.437   3.230
  175SAPE   H7Y19943   2.801   4.310   3.113
  175SAPE   C3819944   2.693   4.503   3.128
  175SAPE   H8X19945   2.655   4.516   3.024
  175SAPE   H8Y19946   2.724   4.604   3.160
  175SAPE   C3919947   2.586   4.453   3.231
  175SAPE   H9X19948   2.626   4.461   3.334
  175SAPE   H9Y19949   2.566   4.346   3.209
  175SAPE  C31019950   2.449   4.514   3.217
  175SAPE  H10X19951   2.429   4.526   3.109
  175SAPE  H10Y19952   2.446   4.621   3.249
  175SAPE  C31119953   2.341   4.437   3.281
  175SAPE  H11X19954   2.344   4.330   3.251
  175SAPE  H11Y19955   2.236   4.472   3.265
  175SAPE  C31219956   2.352   4.449   3.438
  175SAPE  H12X19957   2.359   4.554   3.471
  175SAPE  H12Y19958   2.453   4.417   3.474
  175SAPE  C31319959   2.247   4.363   3.519
  175SAPE  H13X19960   2.231   4.265   3.470
  175SAPE  H13Y19961   2.146   4.409   3.518
  175SAPE  C31419962   2.280   4.341   3.668
  175SAPE  H14X19963   2.303   4.441   3.711
  175SAPE  H14Y19964   2.379   4.295   3.684
  175SAPE  C31519965   2.160   4.266   3.736
  175SAPE  H15X19966   2.172   4.160   3.705
  175SAPE  H15Y19967   2.060   4.309   3.712
  175SAPE  C31619968   2.160   4.270   3.897
  175SAPE  H16X19969   2.252   4.224   3.940
  175SAPE  H16Y19970   2.088   4.196   3.937
  175SAPE  C31719971   2.150   4.417   3.951
  175SAPE  H17X19972   2.064   4.474   3.909
  175SAPE  H17Y19973   2.242   4.471   3.919
  175SAPE  C31819974   2.150   4.410   4.099
  175SAPE  H18X19975   2.043   4.420   4.128
  175SAPE  H18Y19976   2.196   4.501   4.142
  175SAPE  H18Z19977   2.200   4.319   4.139
  176SAPE     N19978   2.184   2.457   2.061
  176SAPE   HN119979   2.140   2.500   1.978
  176SAPE   HN219980   2.138   2.364   2.068
  176SAPE   HN319981   2.145   2.508   2.143
  176SAPE   C1219982   2.334   2.465   2.039
  176SAPE  H12A19983   2.372   2.361   2.030
  176SAPE  H12B19984   2.373   2.507   2.134
  176SAPE   C1119985   2.376   2.534   1.908
  176SAPE  H11A19986   2.315   2.497   1.823
  176SAPE  H11B19987   2.476   2.493   1.882
  176SAPE     P19988   2.493   2.758   1.973
  176SAPE   O1319989   2.579   2.668   2.052
  176SAPE   O1419990   2.546   2.832   1.860
  176SAPE   O1219991   2.368   2.676   1.921
  176SAPE   O1119992   2.415   2.853   2.084
  176SAPE    C119993   2.494   2.946   2.156
  176SAPE    HA19994   2.576   2.987   2.093
  176SAPE    HB19995   2.431   3.033   2.184
  176SAPE    C219996   2.558   2.894   2.284
  176SAPE    HS19997   2.638   2.832   2.240
  176SAPE   O2119998   2.463   2.823   2.370
  176SAPE   C2119999   2.518   2.709   2.412
  176SAPE   O2220000   2.606   2.643   2.360
  176SAPE   C2220001   2.454   2.661   2.541
  176SAPE   H2R20002   2.364   2.720   2.566
  176SAPE   H2S20003   2.414   2.559   2.524
  176SAPE    C320004   2.628   3.012   2.366
  176SAPE    HX20005   2.544   3.083   2.378
  176SAPE    HY20006   2.705   3.056   2.299
  176SAPE   O3120007   2.692   2.968   2.485
  176SAPE   C3120008   2.680   3.053   2.589
  176SAPE   O3220009   2.643   3.168   2.584
  176SAPE   C3220010   2.732   2.996   2.722
  176SAPE   H2X20011   2.840   3.022   2.716
  176SAPE   H2Y20012   2.737   2.885   2.721
  176SAPE   C2320013   2.566   2.651   2.651
  176SAPE   H3R20014   2.577   2.755   2.688
  176SAPE   H3S20015   2.665   2.620   2.612
  176SAPE   C2420016   2.530   2.572   2.776
  176SAPE   H4R20017   2.618   2.593   2.842
  176SAPE   H4S20018   2.541   2.467   2.742
  176SAPE   C2520019   2.397   2.581   2.850
  176SAPE   H5R20020   2.308   2.532   2.806
  176SAPE   C2620021   2.384   2.645   2.970
  176SAPE   H6R20022   2.290   2.631   3.026
  176SAPE   C2720023   2.501   2.714   3.047
  176SAPE   H7R20024   2.461   2.805   3.097
  176SAPE   H7S20025   2.581   2.750   2.978
  176SAPE   C2820026   2.565   2.623   3.148
  176SAPE   H8R20027   2.565   2.516   3.120
  176SAPE   C2920028   2.637   2.661   3.260
  176SAPE   H9R20029   2.679   2.596   3.338
  176SAPE  C21020030   2.656   2.810   3.279
  176SAPE  H10R20031   2.567   2.835   3.341
  176SAPE  H10S20032   2.650   2.873   3.187
  176SAPE  C21120033   2.782   2.847   3.352
  176SAPE  H11R20034   2.874   2.857   3.293
  176SAPE  C21220035   2.792   2.874   3.482
  176SAPE  H12R20036   2.893   2.891   3.522
  176SAPE  C21320037   2.686   2.856   3.592
  176SAPE  H13R20038   2.585   2.890   3.562
  176SAPE  H13S20039   2.716   2.907   3.687
  176SAPE  C21420040   2.687   2.706   3.634
  176SAPE  H14R20041   2.749   2.636   3.576
  176SAPE  C21520042   2.597   2.663   3.728
  176SAPE  H15R20043   2.583   2.555   3.742
  176SAPE  C21620044   2.494   2.752   3.791
  176SAPE  H16R20045   2.396   2.700   3.777
  176SAPE  H16S20046   2.470   2.841   3.728
  176SAPE  C21720047   2.530   2.774   3.937
  176SAPE  H17R20048   2.556   2.679   3.989
  176SAPE  H17S20049   2.437   2.823   3.971
  176SAPE  C21820050   2.644   2.881   3.948
  176SAPE  H18R20051   2.600   2.970   3.899
  176SAPE  H18S20052   2.738   2.853   3.895
  176SAPE  C21920053   2.684   2.918   4.090
  176SAPE  H19R20054   2.709   2.823   4.142
  176SAPE  H19S20055   2.597   2.952   4.151
  176SAPE  C22020056   2.798   3.011   4.109
  176SAPE  H20R20057   2.890   2.976   4.057
  176SAPE  H20S20058   2.823   3.035   4.215
  176SAPE  H20T20059   2.778   3.112   4.067
  176SAPE   C3320060   2.689   3.070   2.849
  176SAPE   H3X20061   2.590   3.028   2.878
  176SAPE   H3Y20062   2.670   3.175   2.819
  176SAPE   C3420063   2.787   3.059   2.968
  176SAPE   H4X20064   2.886   3.100   2.936
  176SAPE   H4Y20065   2.801   2.952   2.993
  176SAPE   C3520066   2.757   3.142   3.091
  176SAPE   H5X20067   2.670   3.099   3.146
  176SAPE   H5Y20068   2.718   3.242   3.062
  176SAPE   C3620069   2.877   3.150   3.182
  176SAPE   H6X20070   2.965   3.196   3.131
  176SAPE   H6Y20071   2.897   3.043   3.203
  176SAPE   C3720072   2.845   3.212   3.320
  176SAPE   H7X20073   2.747   3.181   3.362
  176SAPE   H7Y20074   2.817   3.314   3.286
  176SAPE   C3820075   2.962   3.208   3.416
  176SAPE   H8X20076   3.052   3.251   3.369
  176SAPE   H8Y20077   2.997   3.105   3.438
  176SAPE   C3920078   2.936   3.269   3.551
  176SAPE   H9X20079   2.840   3.226   3.589
  176SAPE   H9Y20080   2.909   3.377   3.548
  176SAPE  C31020081   3.057   3.239   3.646
  176SAPE  H10X20082   3.133   3.315   3.622
  176SAPE  H10Y20083   3.108   3.142   3.627
  176SAPE  C31120084   3.026   3.237   3.792
  176SAPE  H11X20085   2.993   3.133   3.813
  176SAPE  H11Y20086   2.955   3.318   3.818
  176SAPE  C31220087   3.156   3.261   3.877
  176SAPE  H12X20088   3.182   3.369   3.875
  176SAPE  H12Y20089   3.245   3.208   3.836
  176SAPE  C31320090   3.154   3.224   4.023
  176SAPE  H13X20091   3.205   3.126   4.031
  176SAPE  H13Y20092   3.050   3.205   4.058
  176SAPE  C31420093   3.212   3.330   4.124
  176SAPE  H14X20094   3.153   3.424   4.134
  176SAPE  H14Y20095   3.315   3.360   4.095
  176SAPE  C31520096   3.239   3.276   4.265
  176SAPE  H15X20097   3.305   3.347   4.320
  176SAPE  H15Y20098   3.293   3.179   4.271
  176SAPE  C31620099   3.095   3.270   4.336
  176SAPE  H16X20100   3.045   3.194   4.271
  176SAPE  H16Y20101   3.044   3.368   4.333
  176SAPE  C31720102   3.098   3.212   4.479
  176SAPE  H17X20103   3.135   3.287   4.552
  176SAPE  H17Y20104   3.155   3.118   4.495
  176SAPE  C31820105   2.954   3.180   4.512
  176SAPE  H18X20106   2.915   3.108   4.437
  176SAPE  H18Y20107   2.898   3.275   4.505
  176SAPE  H18Z20108   2.934   3.131   4.609
  177SAPE     N20109   2.749   2.126   1.851
  177SAPE   HN120110   2.681   2.153   1.925
  177SAPE   HN220111   2.707   2.128   1.756
  177SAPE   HN320112   2.773   2.025   1.856
  177SAPE   C1220113   2.882   2.190   1.868
  177SAPE  H12A20114   2.873   2.297   1.841
  177SAPE  H12B20115   2.958   2.148   1.798
  177SAPE   C1120116   2.950   2.155   1.998
  177SAPE  H11A20117   2.877   2.183   2.077
  177SAPE  H11B20118   3.042   2.215   2.014
  177SAPE     P20119   3.105   1.954   1.967
  177SAPE   O1320120   3.114   1.806   1.984
  177SAPE   O1420121   3.147   2.014   1.842
  177SAPE   O1220122   2.962   2.009   2.006
  177SAPE   O1120123   3.203   2.018   2.070
  177SAPE    C120124   3.246   1.941   2.185
  177SAPE    HA20125   3.287   1.843   2.154
  177SAPE    HB20126   3.328   1.994   2.237
  177SAPE    C220127   3.131   1.929   2.290
  177SAPE    HS20128   3.044   1.882   2.240
  177SAPE   O2120129   3.101   2.061   2.340
  177SAPE   C2120130   2.969   2.077   2.364
  177SAPE   O2220131   2.880   1.994   2.347
  177SAPE   C2220132   2.950   2.219   2.420
  177SAPE   H2R20133   3.026   2.237   2.499
  177SAPE   H2S20134   2.992   2.294   2.349
  177SAPE    C320135   3.179   1.827   2.403
  177SAPE    HX20136   3.272   1.871   2.444
  177SAPE    HY20137   3.213   1.728   2.365
  177SAPE   O3120138   3.085   1.818   2.519
  177SAPE   C3120139   2.981   1.732   2.509
  177SAPE   O3220140   2.973   1.640   2.430
  177SAPE   C3220141   2.880   1.768   2.617
  177SAPE   H2X20142   2.830   1.864   2.592
  177SAPE   H2Y20143   2.934   1.772   2.714
  177SAPE   C2320144   2.807   2.250   2.459
  177SAPE   H3R20145   2.746   2.198   2.382
  177SAPE   H3S20146   2.786   2.359   2.451
  177SAPE   C2420147   2.758   2.215   2.602
  177SAPE   H4R20148   2.779   2.106   2.617
  177SAPE   H4S20149   2.650   2.239   2.607
  177SAPE   C2520150   2.821   2.284   2.720
  177SAPE   H5R20151   2.894   2.364   2.699
  177SAPE   C2620152   2.803   2.242   2.844
  177SAPE   H6R20153   2.845   2.303   2.926
  177SAPE   C2720154   2.717   2.121   2.882
  177SAPE   H7R20155   2.640   2.099   2.806
  177SAPE   H7S20156   2.658   2.146   2.973
  177SAPE   C2820157   2.806   2.001   2.890
  177SAPE   H8R20158   2.832   1.954   2.794
  177SAPE   C2920159   2.853   1.952   3.007
  177SAPE   H9R20160   2.926   1.871   3.018
  177SAPE  C21020161   2.812   2.009   3.145
  177SAPE  H10R20162   2.804   2.119   3.129
  177SAPE  H10S20163   2.897   1.982   3.211
  177SAPE  C21120164   2.679   1.961   3.196
  177SAPE  H11R20165   2.585   1.993   3.148
  177SAPE  C21220166   2.660   1.880   3.306
  177SAPE  H12R20167   2.573   1.814   3.323
  177SAPE  C21320168   2.781   1.848   3.393
  177SAPE  H13R20169   2.824   1.946   3.421
  177SAPE  H13S20170   2.848   1.780   3.335
  177SAPE  C21420171   2.748   1.773   3.523
  177SAPE  H14R20172   2.741   1.664   3.513
  177SAPE  C21520173   2.711   1.818   3.637
  177SAPE  H15R20174   2.700   1.748   3.721
  177SAPE  C21620175   2.688   1.961   3.677
  177SAPE  H16R20176   2.582   1.991   3.661
  177SAPE  H16S20177   2.750   2.035   3.622
  177SAPE  C21720178   2.703   1.965   3.836
  177SAPE  H17R20179   2.644   1.895   3.898
  177SAPE  H17S20180   2.664   2.068   3.854
  177SAPE  C21820181   2.848   1.965   3.892
  177SAPE  H18R20182   2.922   2.005   3.819
  177SAPE  H18S20183   2.869   1.858   3.911
  177SAPE  C21920184   2.868   2.046   4.016
  177SAPE  H19R20185   2.812   1.997   4.099
  177SAPE  H19S20186   2.832   2.150   3.997
  177SAPE  C22020187   3.016   2.056   4.062
  177SAPE  H20R20188   3.039   2.125   4.146
  177SAPE  H20S20189   3.092   2.086   3.986
  177SAPE  H20T20190   3.044   1.955   4.099
  177SAPE   C3320191   2.776   1.661   2.621
  177SAPE   H3X20192   2.821   1.562   2.599
  177SAPE   H3Y20193   2.703   1.682   2.539
  177SAPE   C3420194   2.702   1.643   2.757
  177SAPE   H4X20195   2.639   1.733   2.774
  177SAPE   H4Y20196   2.773   1.640   2.843
  177SAPE   C3520197   2.613   1.517   2.764
  177SAPE   H5X20198   2.682   1.430   2.772
  177SAPE   H5Y20199   2.560   1.500   2.668
  177SAPE   C3620200   2.509   1.530   2.876
  177SAPE   H6X20201   2.557   1.552   2.974
  177SAPE   H6Y20202   2.456   1.433   2.892
  177SAPE   C3720203   2.395   1.633   2.858
  177SAPE   H7X20204   2.338   1.613   2.764
  177SAPE   H7Y20205   2.436   1.734   2.838
  177SAPE   C3820206   2.292   1.638   2.969
  177SAPE   H8X20207   2.270   1.539   3.014
  177SAPE   H8Y20208   2.199   1.673   2.920
  177SAPE   C3920209   2.326   1.734   3.086
  177SAPE   H9X20210   2.341   1.836   3.046
  177SAPE   H9Y20211   2.420   1.700   3.134
  177SAPE  C31020212   2.208   1.724   3.193
  177SAPE  H10X20213   2.207   1.620   3.232
  177SAPE  H10Y20214   2.108   1.739   3.148
  177SAPE  C31120215   2.236   1.822   3.309
  177SAPE  H11X20216   2.243   1.923   3.264
  177SAPE  H11Y20217   2.336   1.795   3.349
  177SAPE  C31220218   2.138   1.810   3.424
  177SAPE  H12X20219   2.115   1.702   3.437
  177SAPE  H12Y20220   2.045   1.867   3.404
  177SAPE  C31320221   2.179   1.846   3.564
  177SAPE  H13X20222   2.112   1.802   3.640
  177SAPE  H13Y20223   2.189   1.957   3.571
  177SAPE  C31420224   2.317   1.787   3.604
  177SAPE  H14X20225   2.399   1.835   3.546
  177SAPE  H14Y20226   2.306   1.678   3.581
  177SAPE  C31520227   2.344   1.777   3.758
  177SAPE  H15X20228   2.444   1.735   3.783
  177SAPE  H15Y20229   2.264   1.705   3.787
  177SAPE  C31620230   2.324   1.901   3.844
  177SAPE  H16X20231   2.233   1.951   3.803
  177SAPE  H16Y20232   2.419   1.958   3.834
  177SAPE  C31720233   2.292   1.869   3.987
  177SAPE  H17X20234   2.206   1.799   4.000
  177SAPE  H17Y20235   2.270   1.963   4.042
  177SAPE  C31820236   2.410   1.803   4.056
  177SAPE  H18X20237   2.458   1.724   3.995
  177SAPE  H18Y20238   2.377   1.770   4.157
  177SAPE  H18Z20239   2.482   1.887   4.065
  178SAPE     N20240   2.660   4.454   2.214
  178SAPE   HN120241   2.763   4.444   2.223
  178SAPE   HN220242   2.624   4.461   2.312
  178SAPE   HN320243   2.627   4.366   2.170
  178SAPE   C1220244   2.606   4.573   2.134
  178SAPE  H12A20245   2.669   4.572   2.042
  178SAPE  H12B20246   2.629   4.669   2.185
  178SAPE   C1120247   2.457   4.554   2.091
  178SAPE  H11A20248   2.422   4.655   2.060
  178SAPE  H11B20249   2.393   4.525   2.177
  178SAPE     P20250   2.407   4.321   1.994
  178SAPE   O1320251   2.377   4.259   1.863
  178SAPE   O1420252   2.513   4.263   2.078
  178SAPE   O1220253   2.446   4.471   1.972
  178SAPE   O1120254   2.268   4.339   2.082
  178SAPE    C120255   2.144   4.375   2.013
  178SAPE    HA20256   2.146   4.341   1.907
  178SAPE    HB20257   2.067   4.334   2.081
  178SAPE    C220258   2.104   4.526   2.024
  178SAPE    HS20259   2.180   4.581   1.965
  178SAPE   O2120260   2.119   4.570   2.157
  178SAPE   C2120261   2.128   4.697   2.166
  178SAPE   O2220262   2.147   4.781   2.078
  178SAPE   C2220263   2.123   4.733   2.315
  178SAPE   H2R20264   2.033   4.679   2.352
  178SAPE   H2S20265   2.217   4.695   2.360
  178SAPE    C320266   1.965   4.559   1.960
  178SAPE    HX20267   1.976   4.518   1.858
  178SAPE    HY20268   1.955   4.668   1.942
  178SAPE   O3120269   1.852   4.505   2.033
  178SAPE   C3120270   1.810   4.582   2.133
  178SAPE   O3220271   1.844   4.697   2.150
  178SAPE   C3220272   1.703   4.514   2.220
  178SAPE   H2X20273   1.742   4.412   2.241
  178SAPE   H2Y20274   1.611   4.506   2.158
  178SAPE   C2320275   2.098   4.882   2.334
  178SAPE   H3R20276   2.014   4.910   2.267
  178SAPE   H3S20277   2.194   4.919   2.290
  178SAPE   C2420278   2.109   4.928   2.481
  178SAPE   H4R20279   2.130   5.037   2.484
  178SAPE   H4S20280   2.194   4.882   2.535
  178SAPE   C2520281   1.978   4.900   2.554
  178SAPE   H5R20282   1.890   4.888   2.489
  178SAPE   C2620283   1.955   4.898   2.685
  178SAPE   H6R20284   1.853   4.867   2.715
  178SAPE   C2720285   2.047   4.915   2.802
  178SAPE   H7R20286   2.139   4.950   2.750
  178SAPE   H7S20287   2.076   4.814   2.840
  178SAPE   C2820288   2.019   5.005   2.916
  178SAPE   H8R20289   2.015   5.110   2.884
  178SAPE   C2920290   1.986   4.970   3.043
  178SAPE   H9R20291   1.950   5.045   3.115
  178SAPE  C21020292   1.978   4.830   3.103
  178SAPE  H10R20293   1.939   4.758   3.028
  178SAPE  H10S20294   1.892   4.827   3.172
  178SAPE  C21120295   2.111   4.780   3.157
  178SAPE  H11R20296   2.185   4.737   3.089
  178SAPE  C21220297   2.141   4.770   3.289
  178SAPE  H12R20298   2.246   4.754   3.320
  178SAPE  C21320299   2.052   4.803   3.414
  178SAPE  H13R20300   2.054   4.722   3.489
  178SAPE  H13S20301   1.946   4.806   3.382
  178SAPE  C21420302   2.078   4.928   3.496
  178SAPE  H14R20303   2.042   5.024   3.454
  178SAPE  C21520304   2.170   4.944   3.593
  178SAPE  H15R20305   2.181   5.044   3.637
  178SAPE  C21620306   2.263   4.838   3.658
  178SAPE  H16R20307   2.354   4.884   3.703
  178SAPE  H16S20308   2.310   4.786   3.571
  178SAPE  C21720309   2.190   4.738   3.745
  178SAPE  H17R20310   2.259   4.658   3.778
  178SAPE  H17S20311   2.104   4.691   3.692
  178SAPE  C21820312   2.144   4.811   3.879
  178SAPE  H18R20313   2.079   4.745   3.941
  178SAPE  H18S20314   2.084   4.902   3.856
  178SAPE  C21920315   2.264   4.852   3.962
  178SAPE  H19R20316   2.310   4.945   3.922
  178SAPE  H19S20317   2.341   4.772   3.968
  178SAPE  C22020318   2.216   4.873   4.106
  178SAPE  H20R20319   2.182   4.778   4.153
  178SAPE  H20S20320   2.129   4.942   4.107
  178SAPE  H20T20321   2.299   4.922   4.162
  178SAPE   C3320322   1.682   4.583   2.357
  178SAPE   H3X20323   1.657   4.690   2.337
  178SAPE   H3Y20324   1.773   4.577   2.420
  178SAPE   C3420325   1.569   4.531   2.434
  178SAPE   H4X20326   1.585   4.422   2.454
  178SAPE   H4Y20327   1.477   4.536   2.372
  178SAPE   C3520328   1.561   4.602   2.569
  178SAPE   H5X20329   1.460   4.597   2.615
  178SAPE   H5Y20330   1.586   4.709   2.556
  178SAPE   C3620331   1.660   4.555   2.680
  178SAPE   H6X20332   1.758   4.603   2.660
  178SAPE   H6Y20333   1.669   4.444   2.673
  178SAPE   C3720334   1.607   4.589   2.827
  178SAPE   H7X20335   1.503   4.549   2.832
  178SAPE   H7Y20336   1.596   4.699   2.832
  178SAPE   C3820337   1.699   4.540   2.942
  178SAPE   H8X20338   1.790   4.599   2.920
  178SAPE   H8Y20339   1.713   4.430   2.931
  178SAPE   C3920340   1.654   4.592   3.079
  178SAPE   H9X20341   1.548   4.570   3.103
  178SAPE   H9Y20342   1.669   4.702   3.079
  178SAPE  C31020343   1.742   4.534   3.190
  178SAPE  H10X20344   1.847   4.566   3.173
  178SAPE  H10Y20345   1.740   4.423   3.186
  178SAPE  C31120346   1.700   4.603   3.323
  178SAPE  H11X20347   1.590   4.602   3.335
  178SAPE  H11Y20348   1.731   4.710   3.330
  178SAPE  C31220349   1.754   4.521   3.445
  178SAPE  H12X20350   1.865   4.512   3.438
  178SAPE  H12Y20351   1.723   4.417   3.425
  178SAPE  C31320352   1.701   4.571   3.580
  178SAPE  H13X20353   1.591   4.569   3.587
  178SAPE  H13Y20354   1.730   4.677   3.597
  178SAPE  C31420355   1.757   4.482   3.698
  178SAPE  H14X20356   1.864   4.500   3.722
  178SAPE  H14Y20357   1.747   4.378   3.659
  178SAPE  C31520358   1.687   4.487   3.838
  178SAPE  H15X20359   1.579   4.472   3.819
  178SAPE  H15Y20360   1.699   4.591   3.875
  178SAPE  C31620361   1.755   4.389   3.937
  178SAPE  H16X20362   1.856   4.429   3.962
  178SAPE  H16Y20363   1.757   4.287   3.894
  178SAPE  C31720364   1.665   4.364   4.062
  178SAPE  H17X20365   1.605   4.455   4.081
  178SAPE  H17Y20366   1.730   4.357   4.152
  178SAPE  C31820367   1.575   4.244   4.046
  178SAPE  H18X20368   1.508   4.236   4.134
  178SAPE  H18Y20369   1.635   4.150   4.050
  178SAPE  H18Z20370   1.521   4.227   3.950
  179SAPE     N20371   1.731   1.263   1.593
  179SAPE   HN120372   1.780   1.209   1.519
  179SAPE   HN220373   1.707   1.216   1.682
  179SAPE   HN320374   1.644   1.287   1.542
  179SAPE   C1220375   1.808   1.396   1.610
  179SAPE  H12A20376   1.779   1.464   1.527
  179SAPE  H12B20377   1.913   1.362   1.599
  179SAPE   C1120378   1.779   1.468   1.744
  179SAPE  H11A20379   1.685   1.527   1.734
  179SAPE  H11B20380   1.865   1.538   1.750
  179SAPE     P20381   1.699   1.412   1.994
  179SAPE   O1320382   1.577   1.487   1.976
  179SAPE   O1420383   1.693   1.290   2.074
  179SAPE   O1220384   1.767   1.373   1.851
  179SAPE   O1120385   1.818   1.505   2.049
  179SAPE    C120386   1.924   1.447   2.126
  179SAPE    HA20387   1.950   1.345   2.092
  179SAPE    HB20388   2.010   1.514   2.101
  179SAPE    C220389   1.907   1.456   2.277
  179SAPE    HS20390   1.825   1.385   2.302
  179SAPE   O2120391   1.870   1.591   2.320
  179SAPE   C2120392   1.738   1.609   2.327
  179SAPE   O2220393   1.653   1.525   2.307
  179SAPE   C2220394   1.712   1.756   2.349
  179SAPE   H2R20395   1.750   1.806   2.257
  179SAPE   H2S20396   1.603   1.775   2.357
  179SAPE    C320397   2.040   1.418   2.354
  179SAPE    HX20398   2.119   1.488   2.320
  179SAPE    HY20399   2.087   1.323   2.321
  179SAPE   O3120400   2.036   1.435   2.496
  179SAPE   C3120401   1.989   1.331   2.565
  179SAPE   O3220402   1.958   1.221   2.519
  179SAPE   C3220403   1.985   1.357   2.711
  179SAPE   H2X20404   1.931   1.453   2.717
  179SAPE   H2Y20405   2.091   1.365   2.745
  179SAPE   C2320406   1.783   1.818   2.473
  179SAPE   H3R20407   1.774   1.929   2.480
  179SAPE   H3S20408   1.893   1.816   2.464
  179SAPE   C2420409   1.730   1.760   2.601
  179SAPE   H4R20410   1.800   1.683   2.639
  179SAPE   H4S20411   1.642   1.698   2.573
  179SAPE   C2520412   1.689   1.867   2.696
  179SAPE   H5R20413   1.608   1.930   2.656
  179SAPE   C2620414   1.744   1.894   2.816
  179SAPE   H6R20415   1.714   1.989   2.862
  179SAPE   C2720416   1.863   1.812   2.880
  179SAPE   H7R20417   1.937   1.781   2.804
  179SAPE   H7S20418   1.816   1.723   2.926
  179SAPE   C2820419   1.927   1.882   2.999
  179SAPE   H8R20420   2.032   1.913   2.984
  179SAPE   C2920421   1.874   1.907   3.122
  179SAPE   H9R20422   1.940   1.965   3.188
  179SAPE  C21020423   1.729   1.870   3.166
  179SAPE  H10R20424   1.670   1.840   3.077
  179SAPE  H10S20425   1.680   1.962   3.205
  179SAPE  C21120426   1.717   1.763   3.264
  179SAPE  H11R20427   1.687   1.668   3.216
  179SAPE  C21220428   1.731   1.766   3.396
  179SAPE  H12R20429   1.717   1.674   3.453
  179SAPE  C21320430   1.762   1.888   3.471
  179SAPE  H13R20431   1.840   1.954   3.427
  179SAPE  H13S20432   1.817   1.866   3.565
  179SAPE  C21420433   1.642   1.969   3.517
  179SAPE  H14R20434   1.631   2.059   3.456
  179SAPE  C21520435   1.549   1.944   3.612
  179SAPE  H15R20436   1.468   2.013   3.639
  179SAPE  C21620437   1.557   1.811   3.688
  179SAPE  H16R20438   1.643   1.748   3.658
  179SAPE  H16S20439   1.468   1.748   3.670
  179SAPE  C21720440   1.563   1.838   3.838
  179SAPE  H17R20441   1.652   1.903   3.854
  179SAPE  H17S20442   1.596   1.744   3.888
  179SAPE  C21820443   1.442   1.892   3.905
  179SAPE  H18R20444   1.431   1.998   3.874
  179SAPE  H18S20445   1.454   1.902   4.015
  179SAPE  C21920446   1.304   1.816   3.898
  179SAPE  H19R20447   1.307   1.748   3.985
  179SAPE  H19S20448   1.298   1.762   3.802
  179SAPE  C22020449   1.174   1.902   3.914
  179SAPE  H20R20450   1.090   1.836   3.882
  179SAPE  H20S20451   1.175   1.992   3.850
  179SAPE  H20T20452   1.155   1.935   4.019
  179SAPE   C3320453   1.931   1.233   2.795
  179SAPE   H3X20454   1.993   1.144   2.773
  179SAPE   H3Y20455   1.831   1.200   2.758
  179SAPE   C3420456   1.919   1.263   2.947
  179SAPE   H4X20457   1.848   1.348   2.956
  179SAPE   H4Y20458   2.017   1.308   2.976
  179SAPE   C3520459   1.891   1.150   3.046
  179SAPE   H5X20460   1.980   1.084   3.040
  179SAPE   H5Y20461   1.798   1.100   3.011
  179SAPE   C3620462   1.872   1.193   3.190
  179SAPE   H6X20463   1.807   1.125   3.249
  179SAPE   H6Y20464   1.824   1.294   3.192
  179SAPE   C3720465   2.008   1.187   3.267
  179SAPE   H7X20466   2.060   1.277   3.230
  179SAPE   H7Y20467   2.058   1.092   3.236
  179SAPE   C3820468   1.991   1.212   3.416
  179SAPE   H8X20469   2.093   1.204   3.459
  179SAPE   H8Y20470   1.934   1.132   3.470
  179SAPE   C3920471   1.939   1.351   3.455
  179SAPE   H9X20472   1.829   1.361   3.466
  179SAPE   H9Y20473   1.969   1.426   3.378
  179SAPE  C31020474   2.000   1.390   3.594
  179SAPE  H10X20475   2.102   1.427   3.573
  179SAPE  H10Y20476   2.003   1.309   3.669
  179SAPE  C31120477   1.914   1.505   3.659
  179SAPE  H11X20478   1.813   1.461   3.673
  179SAPE  H11Y20479   1.912   1.590   3.587
  179SAPE  C31220480   1.978   1.550   3.792
  179SAPE  H12X20481   1.950   1.657   3.803
  179SAPE  H12Y20482   2.087   1.547   3.774
  179SAPE  C31320483   1.935   1.467   3.916
  179SAPE  H13X20484   1.982   1.366   3.916
  179SAPE  H13Y20485   1.827   1.443   3.915
  179SAPE  C31420486   1.971   1.535   4.044
  179SAPE  H14X20487   1.914   1.627   4.069
  179SAPE  H14Y20488   2.076   1.572   4.038
  179SAPE  C31520489   1.955   1.439   4.169
  179SAPE  H15X20490   2.027   1.354   4.164
  179SAPE  H15Y20491   1.851   1.400   4.170
  179SAPE  C31620492   1.983   1.503   4.304
  179SAPE  H16X20493   1.921   1.593   4.324
  179SAPE  H16Y20494   2.089   1.538   4.304
  179SAPE  C31720495   1.955   1.408   4.426
  179SAPE  H17X20496   2.015   1.317   4.403
  179SAPE  H17Y20497   1.849   1.375   4.433
  179SAPE  C31820498   1.995   1.458   4.567
  179SAPE  H18X20499   2.060   1.547   4.558
  179SAPE  H18Y20500   2.051   1.386   4.630
  179SAPE  H18Z20501   1.909   1.494   4.627
  180SAPE     N20502   3.107   1.542   1.953
  180SAPE   HN120503   3.211   1.541   1.944
  180SAPE   HN220504   3.083   1.644   1.949
  180SAPE   HN320505   3.094   1.511   2.051
  180SAPE   C1220506   3.028   1.459   1.860
  180SAPE  H12A20507   3.030   1.354   1.896
  180SAPE  H12B20508   3.072   1.469   1.758
  180SAPE   C1120509   2.889   1.511   1.855
  180SAPE  H11A20510   2.846   1.500   1.957
  180SAPE  H11B20511   2.834   1.449   1.781
  180SAPE     P20512   2.752   1.730   1.813
  180SAPE   O1320513   2.772   1.874   1.794
  180SAPE   O1420514   2.669   1.661   1.717
  180SAPE   O1220515   2.887   1.650   1.814
  180SAPE   O1120516   2.697   1.705   1.961
  180SAPE    C120517   2.774   1.756   2.072
  180SAPE    HA20518   2.877   1.714   2.074
  180SAPE    HB20519   2.778   1.867   2.078
  180SAPE    C220520   2.705   1.709   2.207
  180SAPE    HS20521   2.785   1.725   2.283
  180SAPE   O2120522   2.640   1.579   2.220
  180SAPE   C2120523   2.717   1.479   2.214
  180SAPE   O2220524   2.837   1.483   2.202
  180SAPE   C2220525   2.637   1.351   2.227
  180SAPE   H2R20526   2.545   1.366   2.287
  180SAPE   H2S20527   2.623   1.323   2.120
  180SAPE    C320528   2.611   1.828   2.235
  180SAPE    HX20529   2.537   1.814   2.153
  180SAPE    HY20530   2.657   1.928   2.223
  180SAPE   O3120531   2.530   1.816   2.351
  180SAPE   C3120532   2.467   1.922   2.387
  180SAPE   O3220533   2.452   2.017   2.312
  180SAPE   C3220534   2.412   1.911   2.528
  180SAPE   H2X20535   2.499   1.876   2.588
  180SAPE   H2Y20536   2.340   1.827   2.525
  180SAPE   C2320537   2.712   1.237   2.294
  180SAPE   H3R20538   2.812   1.228   2.246
  180SAPE   H3S20539   2.655   1.143   2.275
  180SAPE   C2420540   2.753   1.261   2.443
  180SAPE   H4R20541   2.665   1.270   2.511
  180SAPE   H4S20542   2.799   1.362   2.451
  180SAPE   C2520543   2.856   1.158   2.478
  180SAPE   H5R20544   2.959   1.194   2.462
  180SAPE   C2620545   2.832   1.041   2.531
  180SAPE   H6R20546   2.912   0.969   2.553
  180SAPE   C2720547   2.688   0.992   2.564
  180SAPE   H7R20548   2.608   1.062   2.532
  180SAPE   H7S20549   2.687   0.984   2.675
  180SAPE   C2820550   2.652   0.862   2.506
  180SAPE   H8R20551   2.677   0.849   2.400
  180SAPE   C2920552   2.572   0.773   2.562
  180SAPE   H9R20553   2.543   0.680   2.510
  180SAPE  C21020554   2.504   0.785   2.692
  180SAPE  H10R20555   2.487   0.893   2.713
  180SAPE  H10S20556   2.575   0.748   2.769
  180SAPE  C21120557   2.374   0.712   2.695
  180SAPE  H11R20558   2.303   0.731   2.612
  180SAPE  C21220559   2.331   0.637   2.799
  180SAPE  H12R20560   2.239   0.581   2.777
  180SAPE  C21320561   2.397   0.594   2.923
  180SAPE  H13R20562   2.465   0.672   2.963
  180SAPE  H13S20563   2.469   0.512   2.901
  180SAPE  C21420564   2.306   0.555   3.034
  180SAPE  H14R20565   2.208   0.603   3.043
  180SAPE  C21520566   2.327   0.451   3.118
  180SAPE  H15R20567   2.244   0.429   3.186
  180SAPE  C21620568   2.444   0.350   3.122
  180SAPE  H16R20569   2.526   0.383   3.054
  180SAPE  H16S20570   2.409   0.247   3.100
  180SAPE  C21720571   2.506   0.340   3.260
  180SAPE  H17R20572   2.568   0.429   3.280
  180SAPE  H17S20573   2.572   0.250   3.260
  180SAPE  C21820574   2.399   0.318   3.368
  180SAPE  H18R20575   2.306   0.260   3.347
  180SAPE  H18S20576   2.368   0.421   3.396
  180SAPE  C21920577   2.454   0.253   3.496
  180SAPE  H19R20578   2.538   0.308   3.543
  180SAPE  H19S20579   2.491   0.154   3.462
  180SAPE  C22020580   2.354   0.255   3.611
  180SAPE  H20R20581   2.252   0.219   3.585
  180SAPE  H20S20582   2.342   0.358   3.651
  180SAPE  H20T20583   2.382   0.194   3.699
  180SAPE   C3320584   2.340   2.036   2.578
  180SAPE   H3X20585   2.376   2.129   2.529
  180SAPE   H3Y20586   2.370   2.058   2.682
  180SAPE   C3420587   2.186   2.016   2.582
  180SAPE   H4X20588   2.173   1.926   2.646
  180SAPE   H4Y20589   2.152   1.989   2.480
  180SAPE   C3520590   2.106   2.126   2.651
  180SAPE   H5X20591   2.000   2.111   2.622
  180SAPE   H5Y20592   2.144   2.221   2.607
  180SAPE   C3620593   2.110   2.117   2.803
  180SAPE   H6X20594   2.126   2.009   2.824
  180SAPE   H6Y20595   2.008   2.138   2.841
  180SAPE   C3720596   2.211   2.212   2.871
  180SAPE   H7X20597   2.179   2.318   2.858
  180SAPE   H7Y20598   2.305   2.198   2.813
  180SAPE   C3820599   2.222   2.178   3.019
  180SAPE   H8X20600   2.247   2.071   3.032
  180SAPE   H8Y20601   2.121   2.180   3.067
  180SAPE   C3920602   2.329   2.256   3.101
  180SAPE   H9X20603   2.312   2.365   3.095
  180SAPE   H9Y20604   2.422   2.225   3.050
  180SAPE  C31020605   2.333   2.213   3.254
  180SAPE  H10X20606   2.357   2.106   3.268
  180SAPE  H10Y20607   2.231   2.232   3.292
  180SAPE  C31120608   2.441   2.289   3.330
  180SAPE  H11X20609   2.421   2.398   3.340
  180SAPE  H11Y20610   2.536   2.262   3.280
  180SAPE  C31220611   2.456   2.234   3.471
  180SAPE  H12X20612   2.554   2.267   3.512
  180SAPE  H12Y20613   2.444   2.124   3.485
  180SAPE  C31320614   2.364   2.303   3.566
  180SAPE  H13X20615   2.256   2.286   3.545
  180SAPE  H13Y20616   2.385   2.409   3.538
  180SAPE  C31420617   2.398   2.262   3.713
  180SAPE  H14X20618   2.508   2.264   3.724
  180SAPE  H14Y20619   2.368   2.157   3.729
  180SAPE  C31520620   2.340   2.351   3.819
  180SAPE  H15X20621   2.230   2.361   3.813
  180SAPE  H15Y20622   2.375   2.453   3.791
  180SAPE  C31620623   2.376   2.315   3.962
  180SAPE  H16X20624   2.336   2.215   3.986
  180SAPE  H16Y20625   2.324   2.387   4.029
  180SAPE  C31720626   2.528   2.319   3.999
  180SAPE  H17X20627   2.571   2.419   4.022
  180SAPE  H17Y20628   2.574   2.280   3.905
  180SAPE  C31820629   2.566   2.226   4.114
  180SAPE  H18X20630   2.497   2.248   4.198
  180SAPE  H18Y20631   2.665   2.258   4.152
  180SAPE  H18Z20632   2.569   2.118   4.092
  181SAPE     N20633   4.488   1.493   1.651
  181SAPE   HN120634   4.413   1.437   1.696
  181SAPE   HN220635   4.434   1.565   1.599
  181SAPE   HN320636   4.533   1.421   1.591
  181SAPE   C1220637   4.584   1.551   1.751
  181SAPE  H12A20638   4.674   1.582   1.693
  181SAPE  H12B20639   4.611   1.471   1.823
  181SAPE   C1120640   4.519   1.675   1.825
  181SAPE  H11A20641   4.517   1.761   1.754
  181SAPE  H11B20642   4.578   1.710   1.912
  181SAPE     P20643   4.287   1.754   1.927
  181SAPE   O1320644   4.262   1.855   1.822
  181SAPE   O1420645   4.165   1.684   1.973
  181SAPE   O1220646   4.387   1.643   1.869
  181SAPE   O1120647   4.360   1.822   2.052
  181SAPE    C120648   4.397   1.724   2.150
  181SAPE    HA20649   4.312   1.682   2.208
  181SAPE    HB20650   4.459   1.646   2.102
  181SAPE    C220651   4.499   1.794   2.245
  181SAPE    HS20652   4.554   1.713   2.297
  181SAPE   O2120653   4.432   1.874   2.339
  181SAPE   C2120654   4.366   1.811   2.442
  181SAPE   O2220655   4.373   1.691   2.460
  181SAPE   C2220656   4.282   1.906   2.521
  181SAPE   H2R20657   4.343   1.996   2.543
  181SAPE   H2S20658   4.193   1.932   2.460
  181SAPE    C320659   4.613   1.868   2.173
  181SAPE    HX20660   4.582   1.952   2.107
  181SAPE    HY20661   4.666   1.793   2.110
  181SAPE   O3120662   4.708   1.918   2.267
  181SAPE   C3120663   4.727   2.041   2.291
  181SAPE   O3220664   4.685   2.136   2.230
  181SAPE   C3220665   4.818   2.063   2.419
  181SAPE   H2X20666   4.851   2.169   2.417
  181SAPE   H2Y20667   4.910   2.004   2.399
  181SAPE   C2320668   4.237   1.852   2.656
  181SAPE   H3R20669   4.322   1.805   2.710
  181SAPE   H3S20670   4.175   1.763   2.630
  181SAPE   C2420671   4.140   1.940   2.741
  181SAPE   H4R20672   4.106   1.874   2.823
  181SAPE   H4S20673   4.054   1.958   2.673
  181SAPE   C2520674   4.202   2.065   2.789
  181SAPE   H5R20675   4.224   2.128   2.701
  181SAPE   C2620676   4.214   2.093   2.925
  181SAPE   H6R20677   4.240   2.196   2.956
  181SAPE   C2720678   4.186   2.009   3.044
  181SAPE   H7R20679   4.165   1.906   3.008
  181SAPE   H7S20680   4.087   2.033   3.089
  181SAPE   C2820681   4.294   2.025   3.152
  181SAPE   H8R20682   4.390   1.978   3.126
  181SAPE   C2920683   4.282   2.082   3.277
  181SAPE   H9R20684   4.371   2.079   3.341
  181SAPE  C21020685   4.157   2.145   3.332
  181SAPE  H10R20686   4.104   2.189   3.245
  181SAPE  H10S20687   4.194   2.229   3.395
  181SAPE  C21120688   4.050   2.066   3.406
  181SAPE  H11R20689   3.949   2.080   3.366
  181SAPE  C21220690   4.078   1.980   3.510
  181SAPE  H12R20691   3.999   1.932   3.569
  181SAPE  C21320692   4.214   1.965   3.569
  181SAPE  H13R20693   4.283   2.051   3.552
  181SAPE  H13S20694   4.255   1.873   3.521
  181SAPE  C21420695   4.201   1.936   3.716
  181SAPE  H14R20696   4.188   1.828   3.733
  181SAPE  C21520697   4.175   2.021   3.818
  181SAPE  H15R20698   4.146   1.990   3.920
  181SAPE  C21620699   4.170   2.172   3.804
  181SAPE  H16R20700   4.102   2.212   3.882
  181SAPE  H16S20701   4.133   2.213   3.708
  181SAPE  C21720702   4.310   2.229   3.828
  181SAPE  H17R20703   4.309   2.336   3.800
  181SAPE  H17S20704   4.383   2.186   3.757
  181SAPE  C21820705   4.363   2.215   3.977
  181SAPE  H18R20706   4.474   2.210   3.985
  181SAPE  H18S20707   4.333   2.115   4.016
  181SAPE  C21920708   4.300   2.320   4.069
  181SAPE  H19R20709   4.326   2.312   4.176
  181SAPE  H19S20710   4.189   2.314   4.069
  181SAPE  C22020711   4.324   2.467   4.031
  181SAPE  H20R20712   4.297   2.469   3.923
  181SAPE  H20S20713   4.426   2.487   4.073
  181SAPE  H20T20714   4.248   2.529   4.083
  181SAPE   C3320715   4.754   2.015   2.550
  181SAPE   H3X20716   4.838   1.970   2.607
  181SAPE   H3Y20717   4.679   1.933   2.540
  181SAPE   C3420718   4.671   2.131   2.616
  181SAPE   H4X20719   4.600   2.182   2.547
  181SAPE   H4Y20720   4.739   2.214   2.645
  181SAPE   C3520721   4.605   2.077   2.746
  181SAPE   H5X20722   4.683   2.019   2.802
  181SAPE   H5Y20723   4.526   2.003   2.720
  181SAPE   C3620724   4.539   2.170   2.840
  181SAPE   H6X20725   4.481   2.121   2.921
  181SAPE   H6Y20726   4.461   2.217   2.777
  181SAPE   C3720727   4.614   2.291   2.897
  181SAPE   H7X20728   4.608   2.382   2.833
  181SAPE   H7Y20729   4.724   2.277   2.911
  181SAPE   C3820730   4.562   2.346   3.035
  181SAPE   H8X20731   4.453   2.352   3.055
  181SAPE   H8Y20732   4.587   2.454   3.048
  181SAPE   C3920733   4.615   2.261   3.148
  181SAPE   H9X20734   4.723   2.254   3.125
  181SAPE   H9Y20735   4.574   2.159   3.160
  181SAPE  C31020736   4.583   2.335   3.279
  181SAPE  H10X20737   4.473   2.333   3.295
  181SAPE  H10Y20738   4.616   2.440   3.264
  181SAPE  C31120739   4.667   2.272   3.392
  181SAPE  H11X20740   4.774   2.289   3.369
  181SAPE  H11Y20741   4.649   2.163   3.393
  181SAPE  C31220742   4.641   2.323   3.538
  181SAPE  H12X20743   4.531   2.325   3.556
  181SAPE  H12Y20744   4.671   2.430   3.538
  181SAPE  C31320745   4.714   2.241   3.645
  181SAPE  H13X20746   4.816   2.217   3.608
  181SAPE  H13Y20747   4.658   2.146   3.659
  181SAPE  C31420748   4.725   2.322   3.776
  181SAPE  H14X20749   4.626   2.363   3.803
  181SAPE  H14Y20750   4.790   2.411   3.761
  181SAPE  C31520751   4.764   2.232   3.903
  181SAPE  H15X20752   4.870   2.201   3.893
  181SAPE  H15Y20753   4.703   2.139   3.907
  181SAPE  C31620754   4.733   2.319   4.028
  181SAPE  H16X20755   4.625   2.346   4.037
  181SAPE  H16Y20756   4.792   2.413   4.020
  181SAPE  C31720757   4.780   2.260   4.163
  181SAPE  H17X20758   4.743   2.328   4.243
  181SAPE  H17Y20759   4.890   2.271   4.158
  181SAPE  C31820760   4.736   2.121   4.206
  181SAPE  H18X20761   4.802   2.044   4.160
  181SAPE  H18Y20762   4.632   2.108   4.168
  181SAPE  H18Z20763   4.730   2.112   4.316
  182SAPE     N20764   0.028   2.720   2.192
  182SAPE   HN120765   0.129   2.738   2.212
  182SAPE   HN220766   0.000   2.789   2.120
  182SAPE   HN320767  -0.032   2.739   2.275
  182SAPE   C1220768   0.001   2.578   2.149
  182SAPE  H12A20769   0.092   2.535   2.101
  182SAPE  H12B20770  -0.073   2.575   2.067
  182SAPE   C1120771  -0.039   2.488   2.271
  182SAPE  H11A20772   0.051   2.495   2.334
  182SAPE  H11B20773  -0.040   2.382   2.237
  182SAPE     P20774  -0.298   2.474   2.338
  182SAPE   O1320775  -0.394   2.578   2.313
  182SAPE   O1420776  -0.292   2.355   2.249
  182SAPE   O1220777  -0.153   2.527   2.335
  182SAPE   O1120778  -0.303   2.428   2.485
  182SAPE    C120779  -0.244   2.301   2.521
  182SAPE    HA20780  -0.297   2.220   2.466
  182SAPE    HB20781  -0.137   2.303   2.492
  182SAPE    C220782  -0.247   2.292   2.677
  182SAPE    HS20783  -0.212   2.190   2.702
  182SAPE   O2120784  -0.376   2.317   2.732
  182SAPE   C2120785  -0.480   2.238   2.695
  182SAPE   O2220786  -0.466   2.126   2.652
  182SAPE   C2220787  -0.613   2.302   2.717
  182SAPE   H2R20788  -0.631   2.368   2.630
  182SAPE   H2S20789  -0.694   2.225   2.727
  182SAPE    C320790  -0.146   2.395   2.733
  182SAPE    HX20791  -0.184   2.488   2.685
  182SAPE    HY20792  -0.050   2.392   2.678
  182SAPE   O3120793  -0.124   2.399   2.876
  182SAPE   C3120794  -0.192   2.495   2.935
  182SAPE   O3220795  -0.251   2.586   2.880
  182SAPE   C3220796  -0.180   2.485   3.084
  182SAPE   H2X20797  -0.074   2.501   3.113
  182SAPE   H2Y20798  -0.210   2.385   3.123
  182SAPE   C2320799  -0.622   2.398   2.838
  182SAPE   H3R20800  -0.708   2.466   2.818
  182SAPE   H3S20801  -0.528   2.457   2.839
  182SAPE   C2420802  -0.632   2.319   2.975
  182SAPE   H4R20803  -0.544   2.251   2.976
  182SAPE   H4S20804  -0.722   2.254   2.977
  182SAPE   C2520805  -0.638   2.411   3.093
  182SAPE   H5R20806  -0.681   2.508   3.064
  182SAPE   C2620807  -0.591   2.386   3.218
  182SAPE   H6R20808  -0.611   2.477   3.277
  182SAPE   C2720809  -0.542   2.253   3.270
  182SAPE   H7R20810  -0.437   2.277   3.296
  182SAPE   H7S20811  -0.547   2.176   3.189
  182SAPE   C2820812  -0.629   2.215   3.386
  182SAPE   H8R20813  -0.735   2.217   3.354
  182SAPE   C2920814  -0.586   2.166   3.505
  182SAPE   H9R20815  -0.657   2.118   3.575
  182SAPE  C21020816  -0.440   2.145   3.555
  182SAPE  H10R20817  -0.381   2.094   3.476
  182SAPE  H10S20818  -0.453   2.072   3.638
  182SAPE  C21120819  -0.370   2.268   3.594
  182SAPE  H11R20820  -0.319   2.317   3.509
  182SAPE  C21220821  -0.340   2.321   3.714
  182SAPE  H12R20822  -0.288   2.418   3.714
  182SAPE  C21320823  -0.383   2.260   3.846
  182SAPE  H13R20824  -0.304   2.183   3.859
  182SAPE  H13S20825  -0.476   2.199   3.838
  182SAPE  C21420826  -0.388   2.363   3.957
  182SAPE  H14R20827  -0.490   2.373   3.995
  182SAPE  C21520828  -0.287   2.423   4.020
  182SAPE  H15R20829  -0.306   2.500   4.095
  182SAPE  C21620830  -0.142   2.406   3.993
  182SAPE  H16R20831  -0.122   2.324   3.921
  182SAPE  H16S20832  -0.095   2.367   4.086
  182SAPE  C21720833  -0.056   2.531   3.954
  182SAPE  H17R20834   0.053   2.508   3.949
  182SAPE  H17S20835  -0.075   2.589   4.047
  182SAPE  C21820836  -0.103   2.611   3.831
  182SAPE  H18R20837  -0.214   2.613   3.828
  182SAPE  H18S20838  -0.071   2.561   3.737
  182SAPE  C21920839  -0.060   2.754   3.826
  182SAPE  H19R20840  -0.064   2.782   3.718
  182SAPE  H19S20841   0.048   2.772   3.848
  182SAPE  C22020842  -0.146   2.854   3.913
  182SAPE  H20R20843  -0.135   2.827   4.020
  182SAPE  H20S20844  -0.254   2.852   3.885
  182SAPE  H20T20845  -0.114   2.959   3.896
  182SAPE   C3320846  -0.271   2.584   3.163
  182SAPE   H3X20847  -0.375   2.556   3.134
  182SAPE   H3Y20848  -0.248   2.692   3.151
  182SAPE   C3420849  -0.274   2.547   3.310
  182SAPE   H4X20850  -0.255   2.438   3.320
  182SAPE   H4Y20851  -0.374   2.574   3.350
  182SAPE   C3520852  -0.177   2.626   3.400
  182SAPE   H5X20853  -0.236   2.652   3.491
  182SAPE   H5Y20854  -0.163   2.720   3.344
  182SAPE   C3620855  -0.032   2.567   3.437
  182SAPE   H6X20856   0.001   2.504   3.352
  182SAPE   H6Y20857  -0.048   2.507   3.529
  182SAPE   C3720858   0.069   2.676   3.462
  182SAPE   H7X20859   0.027   2.754   3.528
  182SAPE   H7Y20860   0.089   2.735   3.370
  182SAPE   C3820861   0.200   2.621   3.529
  182SAPE   H8X20862   0.251   2.550   3.461
  182SAPE   H8Y20863   0.158   2.551   3.606
  182SAPE   C3920864   0.296   2.724   3.593
  182SAPE   H9X20865   0.243   2.745   3.689
  182SAPE   H9Y20866   0.301   2.822   3.542
  182SAPE  C31020867   0.433   2.677   3.633
  182SAPE  H10X20868   0.465   2.752   3.709
  182SAPE  H10Y20869   0.512   2.667   3.556
  182SAPE  C31120870   0.432   2.559   3.722
  182SAPE  H11X20871   0.537   2.526   3.731
  182SAPE  H11Y20872   0.373   2.475   3.679
  182SAPE  C31220873   0.366   2.589   3.858
  182SAPE  H12X20874   0.259   2.619   3.858
  182SAPE  H12Y20875   0.416   2.675   3.907
  182SAPE  C31320876   0.383   2.475   3.964
  182SAPE  H13X20877   0.351   2.515   4.063
  182SAPE  H13Y20878   0.490   2.449   3.979
  182SAPE  C31420879   0.317   2.346   3.923
  182SAPE  H14X20880   0.359   2.310   3.826
  182SAPE  H14Y20881   0.208   2.364   3.907
  182SAPE  C31520882   0.343   2.239   4.030
  182SAPE  H15X20883   0.303   2.280   4.125
  182SAPE  H15Y20884   0.452   2.238   4.051
  182SAPE  C31620885   0.301   2.099   3.984
  182SAPE  H16X20886   0.337   2.069   3.883
  182SAPE  H16Y20887   0.192   2.104   3.963
  182SAPE  C31720888   0.322   1.987   4.082
  182SAPE  H17X20889   0.427   1.952   4.092
  182SAPE  H17Y20890   0.266   1.897   4.049
  182SAPE  C31820891   0.280   2.027   4.221
  182SAPE  H18X20892   0.293   1.944   4.294
  182SAPE  H18Y20893   0.177   2.065   4.236
  182SAPE  H18Z20894   0.350   2.109   4.249
  183SAPE     N20895   5.793   2.775   2.094
  183SAPE   HN120896   5.693   2.800   2.106
  183SAPE   HN220897   5.848   2.839   2.155
  183SAPE   HN320898   5.824   2.804   1.999
  183SAPE   C1220899   5.813   2.626   2.112
  183SAPE  H12A20900   5.736   2.571   2.054
  183SAPE  H12B20901   5.797   2.614   2.221
  183SAPE   C1120902   5.956   2.570   2.090
  183SAPE  H11A20903   5.946   2.464   2.123
  183SAPE  H11B20904   6.025   2.612   2.166
  183SAPE     P20905   5.989   2.481   1.850
  183SAPE   O1320906   5.871   2.520   1.768
  183SAPE   O1420907   6.122   2.469   1.782
  183SAPE   O1220908   6.009   2.595   1.961
  183SAPE   O1120909   5.970   2.341   1.918
  183SAPE    C120910   5.841   2.283   1.901
  183SAPE    HA20911   5.767   2.365   1.918
  183SAPE    HB20912   5.828   2.236   1.801
  183SAPE    C220913   5.832   2.178   2.017
  183SAPE    HS20914   5.735   2.128   1.998
  183SAPE   O2120915   5.840   2.238   2.151
  183SAPE   C2120916   5.736   2.205   2.227
  183SAPE   O2220917   5.653   2.114   2.203
  183SAPE   C2220918   5.745   2.288   2.356
  183SAPE   H2R20919   5.802   2.230   2.432
  183SAPE   H2S20920   5.804   2.378   2.329
  183SAPE    C320921   5.941   2.068   1.998
  183SAPE    HX20922   6.035   2.116   1.966
  183SAPE    HY20923   5.909   2.006   1.912
  183SAPE   O3120924   5.957   1.992   2.117
  183SAPE   C3120925   5.853   1.908   2.130
  183SAPE   O3220926   5.768   1.884   2.045
  183SAPE   C3220927   5.876   1.843   2.266
  183SAPE   H2X20928   5.903   1.933   2.327
  183SAPE   H2Y20929   5.963   1.774   2.263
  183SAPE   C2320930   5.602   2.328   2.388
  183SAPE   H3R20931   5.533   2.243   2.411
  183SAPE   H3S20932   5.560   2.382   2.300
  183SAPE   C2420933   5.597   2.419   2.513
  183SAPE   H4R20934   5.667   2.363   2.579
  183SAPE   H4S20935   5.494   2.412   2.554
  183SAPE   C2520936   5.648   2.566   2.498
  183SAPE   H5R20937   5.612   2.638   2.424
  183SAPE   C2620938   5.715   2.631   2.587
  183SAPE   H6R20939   5.749   2.734   2.569
  183SAPE   C2720940   5.766   2.588   2.728
  183SAPE   H7R20941   5.705   2.498   2.752
  183SAPE   H7S20942   5.750   2.671   2.800
  183SAPE   C2820943   5.910   2.545   2.725
  183SAPE   H8R20944   5.960   2.536   2.627
  183SAPE   C2920945   5.979   2.519   2.835
  183SAPE   H9R20946   6.082   2.482   2.823
  183SAPE  C21020947   5.928   2.525   2.977
  183SAPE  H10R20948   5.831   2.580   2.977
  183SAPE  H10S20949   6.003   2.578   3.040
  183SAPE  C21120950   5.891   2.391   3.038
  183SAPE  H11R20951   5.892   2.305   2.970
  183SAPE  C21220952   5.849   2.367   3.164
  183SAPE  H12R20953   5.832   2.263   3.194
  183SAPE  C21320954   5.834   2.471   3.272
  183SAPE  H13R20955   5.738   2.460   3.325
  183SAPE  H13S20956   5.815   2.572   3.230
  183SAPE  C21420957   5.941   2.488   3.375
  183SAPE  H14R20958   6.007   2.400   3.373
  183SAPE  C21520959   5.956   2.579   3.471
  183SAPE  H15R20960   6.047   2.569   3.531
  183SAPE  C21620961   5.863   2.699   3.489
  183SAPE  H16R20962   5.757   2.667   3.497
  183SAPE  H16S20963   5.872   2.771   3.405
  183SAPE  C21720964   5.911   2.777   3.619
  183SAPE  H17R20965   5.862   2.875   3.635
  183SAPE  H17S20966   6.020   2.794   3.605
  183SAPE  C21820967   5.881   2.696   3.751
  183SAPE  H18R20968   5.927   2.596   3.737
  183SAPE  H18S20969   5.770   2.702   3.756
  183SAPE  C21920970   5.941   2.772   3.868
  183SAPE  H19R20971   5.897   2.873   3.886
  183SAPE  H19S20972   6.051   2.788   3.861
  183SAPE  C22020973   5.936   2.695   3.999
  183SAPE  H20R20974   5.831   2.666   4.018
  183SAPE  H20S20975   5.969   2.772   4.073
  183SAPE  H20T20976   6.000   2.605   3.996
  183SAPE   C3320977   5.758   1.759   2.324
  183SAPE   H3X20978   5.803   1.668   2.370
  183SAPE   H3Y20979   5.691   1.717   2.245
  183SAPE   C3420980   5.686   1.842   2.427
  183SAPE   H4X20981   5.583   1.803   2.441
  183SAPE   H4Y20982   5.680   1.947   2.391
  183SAPE   C3520983   5.747   1.831   2.564
  183SAPE   H5X20984   5.858   1.839   2.551
  183SAPE   H5Y20985   5.738   1.730   2.607
  183SAPE   C3620986   5.703   1.937   2.663
  183SAPE   H6X20987   5.594   1.926   2.682
  183SAPE   H6Y20988   5.714   2.038   2.620
  183SAPE   C3720989   5.778   1.932   2.794
  183SAPE   H7X20990   5.880   1.975   2.789
  183SAPE   H7Y20991   5.776   1.826   2.826
  183SAPE   C3820992   5.715   2.020   2.908
  183SAPE   H8X20993   5.699   2.122   2.867
  183SAPE   H8Y20994   5.796   2.024   2.983
  183SAPE   C3920995   5.583   1.962   2.956
  183SAPE   H9X20996   5.554   1.875   2.892
  183SAPE   H9Y20997   5.510   2.042   2.931
  183SAPE  C31020998   5.560   1.948   3.105
  183SAPE  H10X20999   5.454   1.942   3.137
  183SAPE  H10Y21000   5.600   2.038   3.156
  183SAPE  C31121001   5.636   1.826   3.159
  183SAPE  H11X21002   5.729   1.804   3.104
  183SAPE  H11Y21003   5.563   1.743   3.165
  183SAPE  C31221004   5.670   1.830   3.312
  183SAPE  H12X21005   5.751   1.905   3.321
  183SAPE  H12Y21006   5.703   1.731   3.351
  183SAPE  C31321007   5.549   1.880   3.400
  183SAPE  H13X21008   5.476   1.796   3.404
  183SAPE  H13Y21009   5.499   1.972   3.361
  183SAPE  C31421010   5.594   1.910   3.549
  183SAPE  H14X21011   5.660   1.999   3.540
  183SAPE  H14Y21012   5.657   1.826   3.586
  183SAPE  C31521013   5.476   1.923   3.646
  183SAPE  H15X21014   5.415   1.830   3.640
  183SAPE  H15Y21015   5.410   1.998   3.597
  183SAPE  C31621016   5.517   1.949   3.787
  183SAPE  H16X21017   5.577   2.043   3.793
  183SAPE  H16Y21018   5.573   1.864   3.831
  183SAPE  C31721019   5.389   1.962   3.873
  183SAPE  H17X21020   5.335   1.866   3.859
  183SAPE  H17Y21021   5.333   2.052   3.839
  183SAPE  C31821022   5.416   1.980   4.019
  183SAPE  H18X21023   5.443   2.082   4.053
  183SAPE  H18Y21024   5.491   1.903   4.047
  183SAPE  H18Z21025   5.328   1.942   4.076
  184SAPE     N21026   5.087   2.813   2.125
  184SAPE   HN121027   5.126   2.723   2.090
  184SAPE   HN221028   5.164   2.881   2.134
  184SAPE   HN321029   5.056   2.802   2.224
  184SAPE   C1221030   4.974   2.845   2.028
  184SAPE  H12A21031   5.009   2.880   1.929
  184SAPE  H12B21032   4.908   2.923   2.072
  184SAPE   C1121033   4.886   2.722   1.990
  184SAPE  H11A21034   4.941   2.660   1.915
  184SAPE  H11B21035   4.804   2.769   1.932
  184SAPE     P21036   4.700   2.661   2.149
  184SAPE   O1321037   4.689   2.780   2.241
  184SAPE   O1421038   4.614   2.649   2.030
  184SAPE   O1221039   4.851   2.643   2.101
  184SAPE   O1121040   4.659   2.534   2.232
  184SAPE    C121041   4.739   2.499   2.344
  184SAPE    HA21042   4.740   2.388   2.359
  184SAPE    HB21043   4.843   2.536   2.334
  184SAPE    C221044   4.695   2.565   2.474
  184SAPE    HS21045   4.711   2.674   2.478
  184SAPE   O2121046   4.768   2.496   2.574
  184SAPE   C2121047   4.887   2.540   2.606
  184SAPE   O2221048   4.950   2.635   2.562
  184SAPE   C2221049   4.937   2.445   2.713
  184SAPE   H2R21050   4.979   2.510   2.793
  184SAPE   H2S21051   4.865   2.374   2.759
  184SAPE    C321052   4.539   2.551   2.491
  184SAPE    HX21053   4.517   2.447   2.459
  184SAPE    HY21054   4.490   2.612   2.412
  184SAPE   O3121055   4.502   2.578   2.627
  184SAPE   C3121056   4.394   2.520   2.673
  184SAPE   O3221057   4.326   2.437   2.619
  184SAPE   C3221058   4.376   2.582   2.812
  184SAPE   H2X21059   4.349   2.690   2.802
  184SAPE   H2Y21060   4.474   2.566   2.861
  184SAPE   C2321061   5.066   2.356   2.673
  184SAPE   H3R21062   5.030   2.275   2.607
  184SAPE   H3S21063   5.078   2.307   2.771
  184SAPE   C2421064   5.198   2.423   2.615
  184SAPE   H4R21065   5.175   2.461   2.514
  184SAPE   H4S21066   5.275   2.343   2.610
  184SAPE   C2521067   5.240   2.539   2.695
  184SAPE   H5R21068   5.189   2.635   2.676
  184SAPE   C2621069   5.330   2.535   2.799
  184SAPE   H6R21070   5.360   2.632   2.841
  184SAPE   C2721071   5.405   2.417   2.866
  184SAPE   H7R21072   5.507   2.454   2.886
  184SAPE   H7S21073   5.411   2.343   2.783
  184SAPE   C2821074   5.330   2.352   2.977
  184SAPE   H8R21075   5.238   2.301   2.943
  184SAPE   C2921076   5.355   2.355   3.103
  184SAPE   H9R21077   5.279   2.304   3.165
  184SAPE  C21021078   5.470   2.422   3.169
  184SAPE  H10R21079   5.524   2.492   3.102
  184SAPE  H10S21080   5.546   2.342   3.185
  184SAPE  C21121081   5.433   2.502   3.287
  184SAPE  H11R21082   5.383   2.595   3.253
  184SAPE  C21221083   5.440   2.458   3.411
  184SAPE  H12R21084   5.397   2.513   3.496
  184SAPE  C21321085   5.493   2.319   3.447
  184SAPE  H13R21086   5.502   2.242   3.367
  184SAPE  H13S21087   5.419   2.279   3.520
  184SAPE  C21421088   5.621   2.346   3.519
  184SAPE  H14R21089   5.711   2.307   3.469
  184SAPE  C21521090   5.643   2.378   3.652
  184SAPE  H15R21091   5.740   2.420   3.681
  184SAPE  C21621092   5.524   2.402   3.750
  184SAPE  H16R21093   5.522   2.329   3.834
  184SAPE  H16S21094   5.427   2.392   3.696
  184SAPE  C21721095   5.538   2.542   3.821
  184SAPE  H17R21096   5.645   2.561   3.844
  184SAPE  H17S21097   5.488   2.540   3.920
  184SAPE  C21821098   5.487   2.663   3.732
  184SAPE  H18R21099   5.387   2.631   3.694
  184SAPE  H18S21100   5.559   2.665   3.648
  184SAPE  C21921101   5.486   2.792   3.808
  184SAPE  H19R21102   5.451   2.866   3.733
  184SAPE  H19S21103   5.588   2.807   3.851
  184SAPE  C22021104   5.379   2.796   3.921
  184SAPE  H20R21105   5.351   2.897   3.957
  184SAPE  H20S21106   5.413   2.729   4.003
  184SAPE  H20T21107   5.288   2.744   3.883
  184SAPE   C3321108   4.267   2.512   2.898
  184SAPE   H3X21109   4.278   2.543   3.004
  184SAPE   H3Y21110   4.273   2.401   2.894
  184SAPE   C3421111   4.122   2.548   2.852
  184SAPE   H4X21112   4.123   2.515   2.746
  184SAPE   H4Y21113   4.093   2.654   2.835
  184SAPE   C3521114   3.999   2.489   2.932
  184SAPE   H5X21115   4.000   2.379   2.917
  184SAPE   H5Y21116   3.903   2.518   2.885
  184SAPE   C3621117   4.024   2.517   3.078
  184SAPE   H6X21118   4.048   2.625   3.087
  184SAPE   H6Y21119   4.107   2.453   3.113
  184SAPE   C3721120   3.905   2.479   3.165
  184SAPE   H7X21121   3.864   2.381   3.132
  184SAPE   H7Y21122   3.819   2.546   3.147
  184SAPE   C3821123   3.942   2.468   3.310
  184SAPE   H8X21124   3.977   2.560   3.362
  184SAPE   H8Y21125   4.022   2.392   3.319
  184SAPE   C3921126   3.826   2.410   3.383
  184SAPE   H9X21127   3.815   2.308   3.342
  184SAPE   H9Y21128   3.735   2.473   3.374
  184SAPE  C31021129   3.849   2.394   3.529
  184SAPE  H10X21130   3.930   2.321   3.553
  184SAPE  H10Y21131   3.768   2.337   3.579
  184SAPE  C31121132   3.895   2.519   3.605
  184SAPE  H11X21133   3.998   2.549   3.576
  184SAPE  H11Y21134   3.905   2.493   3.712
  184SAPE  C31221135   3.800   2.645   3.595
  184SAPE  H12X21136   3.758   2.646   3.698
  184SAPE  H12Y21137   3.716   2.623   3.525
  184SAPE  C31321138   3.873   2.775   3.545
  184SAPE  H13X21139   3.981   2.749   3.540
  184SAPE  H13Y21140   3.875   2.858   3.619
  184SAPE  C31421141   3.831   2.829   3.406
  184SAPE  H14X21142   3.722   2.845   3.417
  184SAPE  H14Y21143   3.836   2.744   3.334
  184SAPE  C31521144   3.893   2.961   3.367
  184SAPE  H15X21145   3.999   2.934   3.348
  184SAPE  H15Y21146   3.891   3.025   3.458
  184SAPE  C31621147   3.825   3.012   3.232
  184SAPE  H16X21148   3.841   3.122   3.228
  184SAPE  H16Y21149   3.714   3.001   3.238
  184SAPE  C31721150   3.862   2.923   3.110
  184SAPE  H17X21151   3.836   2.816   3.125
  184SAPE  H17Y21152   3.972   2.926   3.092
  184SAPE  C31821153   3.789   2.956   2.980
  184SAPE  H18X21154   3.836   2.885   2.909
  184SAPE  H18Y21155   3.819   3.060   2.953
  184SAPE  H18Z21156   3.678   2.945   2.981
  185SAPE     N21157   2.722   0.429   1.880
  185SAPE   HN121158   2.636   0.485   1.897
  185SAPE   HN221159   2.807   0.488   1.881
  185SAPE   HN321160   2.724   0.392   1.782
  185SAPE   C1221161   2.737   0.330   1.995
  185SAPE  H12A21162   2.663   0.248   1.989
  185SAPE  H12B21163   2.716   0.395   2.084
  185SAPE   C1121164   2.876   0.274   2.018
  185SAPE  H11A21165   2.892   0.223   2.115
  185SAPE  H11B21166   2.933   0.369   2.023
  185SAPE     P21167   2.908   0.039   1.914
  185SAPE   O1321168   2.769  -0.000   1.926
  185SAPE   O1421169   2.985  -0.015   1.801
  185SAPE   O1221170   2.924   0.192   1.911
  185SAPE   O1121171   2.979  -0.001   2.056
  185SAPE    C121172   3.118   0.025   2.059
  185SAPE    HA21173   3.172  -0.035   1.983
  185SAPE    HB21174   3.135   0.132   2.034
  185SAPE    C221175   3.195  -0.009   2.198
  185SAPE    HS21176   3.202  -0.120   2.200
  185SAPE   O2121177   3.122   0.045   2.313
  185SAPE   C2121178   3.009  -0.019   2.347
  185SAPE   O2221179   2.978  -0.134   2.314
  185SAPE   C2221180   2.912   0.071   2.424
  185SAPE   H2R21181   2.901   0.166   2.368
  185SAPE   H2S21182   2.819   0.011   2.426
  185SAPE    C321183   3.334   0.050   2.195
  185SAPE    HX21184   3.323   0.160   2.192
  185SAPE    HY21185   3.373   0.016   2.097
  185SAPE   O3121186   3.416   0.000   2.294
  185SAPE   C3121187   3.437   0.080   2.398
  185SAPE   O3221188   3.389   0.191   2.410
  185SAPE   C3221189   3.535   0.018   2.500
  185SAPE   H2X21190   3.626   0.013   2.437
  185SAPE   H2Y21191   3.506  -0.088   2.513
  185SAPE   C2321192   2.965   0.115   2.560
  185SAPE   H3R21193   2.890   0.162   2.627
  185SAPE   H3S21194   3.042   0.193   2.541
  185SAPE   C2421195   3.034  -0.006   2.640
  185SAPE   H4R21196   3.135  -0.018   2.597
  185SAPE   H4S21197   2.971  -0.097   2.628
  185SAPE   C2521198   3.039   0.021   2.790
  185SAPE   H5R21199   3.034   0.124   2.828
  185SAPE   C2621200   3.006  -0.056   2.895
  185SAPE   H6R21201   3.002  -0.015   2.997
  185SAPE   C2721202   2.971  -0.199   2.889
  185SAPE   H7R21203   3.008  -0.247   2.797
  185SAPE   H7S21204   2.860  -0.201   2.882
  185SAPE   C2821205   3.029  -0.271   3.008
  185SAPE   H8R21206   3.109  -0.340   2.979
  185SAPE   C2921207   2.993  -0.278   3.141
  185SAPE   H9R21208   3.049  -0.345   3.209
  185SAPE  C21021209   2.868  -0.200   3.196
  185SAPE  H10R21210   2.783  -0.267   3.221
  185SAPE  H10S21211   2.831  -0.130   3.118
  185SAPE  C21121212   2.904  -0.117   3.318
  185SAPE  H11R21213   2.972  -0.032   3.307
  185SAPE  C21221214   2.860  -0.141   3.442
  185SAPE  H12R21215   2.887  -0.064   3.516
  185SAPE  C21321216   2.772  -0.255   3.486
  185SAPE  H13R21217   2.769  -0.338   3.411
  185SAPE  H13S21218   2.670  -0.211   3.482
  185SAPE  C21421219   2.777  -0.316   3.622
  185SAPE  H14R21220   2.822  -0.416   3.629
  185SAPE  C21521221   2.722  -0.258   3.733
  185SAPE  H15R21222   2.705  -0.317   3.824
  185SAPE  C21621223   2.640  -0.128   3.737
  185SAPE  H16R21224   2.536  -0.156   3.763
  185SAPE  H16S21225   2.643  -0.068   3.644
  185SAPE  C21721226   2.692  -0.045   3.859
  185SAPE  H17R21227   2.638   0.052   3.850
  185SAPE  H17S21228   2.800  -0.021   3.846
  185SAPE  C21821229   2.665  -0.105   4.003
  185SAPE  H18R21230   2.735  -0.190   4.013
  185SAPE  H18S21231   2.556  -0.127   4.013
  185SAPE  C21921232   2.699  -0.013   4.116
  185SAPE  H19R21233   2.647   0.084   4.102
  185SAPE  H19S21234   2.808   0.003   4.108
  185SAPE  C22021235   2.671  -0.061   4.260
  185SAPE  H20R21236   2.564  -0.088   4.274
  185SAPE  H20S21237   2.688   0.024   4.329
  185SAPE  H20T21238   2.736  -0.145   4.294
  185SAPE   C3321239   3.565   0.107   2.621
  185SAPE   H3X21240   3.581   0.209   2.580
  185SAPE   H3Y21241   3.658   0.074   2.671
  185SAPE   C3421242   3.453   0.109   2.724
  185SAPE   H4X21243   3.419   0.004   2.735
  185SAPE   H4Y21244   3.367   0.166   2.683
  185SAPE   C3521245   3.512   0.161   2.862
  185SAPE   H5X21246   3.543   0.268   2.859
  185SAPE   H5Y21247   3.602   0.098   2.879
  185SAPE   C3621248   3.424   0.145   2.982
  185SAPE   H6X21249   3.340   0.217   2.994
  185SAPE   H6Y21250   3.480   0.164   3.076
  185SAPE   C3721251   3.352   0.017   2.988
  185SAPE   H7X21252   3.418  -0.072   2.978
  185SAPE   H7Y21253   3.267   0.007   2.917
  185SAPE   C3821254   3.278  -0.001   3.122
  185SAPE   H8X21255   3.225  -0.099   3.115
  185SAPE   H8Y21256   3.193   0.070   3.127
  185SAPE   C3921257   3.362   0.001   3.241
  185SAPE   H9X21258   3.430   0.087   3.254
  185SAPE   H9Y21259   3.427  -0.089   3.252
  185SAPE  C31021260   3.277   0.015   3.369
  185SAPE  H10X21261   3.205  -0.069   3.359
  185SAPE  H10Y21262   3.212   0.105   3.366
  185SAPE  C31121263   3.353   0.011   3.504
  185SAPE  H11X21264   3.417   0.102   3.509
  185SAPE  H11Y21265   3.423  -0.075   3.507
  185SAPE  C31221266   3.251   0.002   3.621
  185SAPE  H12X21267   3.185  -0.087   3.623
  185SAPE  H12Y21268   3.189   0.094   3.612
  185SAPE  C31321269   3.328   0.006   3.752
  185SAPE  H13X21270   3.410   0.080   3.765
  185SAPE  H13Y21271   3.388  -0.087   3.761
  185SAPE  C31421272   3.233   0.011   3.881
  185SAPE  H14X21273   3.149  -0.055   3.850
  185SAPE  H14Y21274   3.194   0.113   3.900
  185SAPE  C31521275   3.316  -0.039   3.999
  185SAPE  H15X21276   3.394   0.038   4.016
  185SAPE  H15Y21277   3.369  -0.134   3.977
  185SAPE  C31621278   3.230  -0.048   4.122
  185SAPE  H16X21279   3.184   0.053   4.132
  185SAPE  H16Y21280   3.305  -0.059   4.202
  185SAPE  C31721281   3.124  -0.158   4.125
  185SAPE  H17X21282   3.029  -0.127   4.076
  185SAPE  H17Y21283   3.097  -0.173   4.232
  185SAPE  C31821284   3.179  -0.299   4.080
  185SAPE  H18X21285   3.278  -0.317   4.127
  185SAPE  H18Y21286   3.187  -0.298   3.969
  185SAPE  H18Z21287   3.113  -0.385   4.105
  186SAPE     N21288   6.425   2.720   2.460
  186SAPE   HN121289   6.482   2.699   2.545
  186SAPE   HN221290   6.334   2.671   2.464
  186SAPE   HN321291   6.485   2.672   2.391
  186SAPE   C1221292   6.410   2.869   2.433
  186SAPE  H12A21293   6.497   2.937   2.436
  186SAPE  H12B21294   6.350   2.915   2.515
  186SAPE   C1121295   6.356   2.885   2.297
  186SAPE  H11A21296   6.408   2.822   2.222
  186SAPE  H11B21297   6.363   2.985   2.249
  186SAPE     P21298   6.093   2.926   2.349
  186SAPE   O1321299   6.133   3.068   2.377
  186SAPE   O1421300   5.984   2.896   2.253
  186SAPE   O1221301   6.216   2.834   2.294
  186SAPE   O1121302   6.066   2.856   2.492
  186SAPE    C121303   5.996   2.932   2.597
  186SAPE    HA21304   5.920   3.003   2.557
  186SAPE    HB21305   5.936   2.857   2.653
  186SAPE    C221306   6.094   3.007   2.693
  186SAPE    HS21307   6.156   3.077   2.632
  186SAPE   O2121308   6.188   2.909   2.748
  186SAPE   C2121309   6.289   2.961   2.808
  186SAPE   O2221310   6.315   3.077   2.815
  186SAPE   C2221311   6.382   2.850   2.867
  186SAPE   H2R21312   6.318   2.762   2.888
  186SAPE   H2S21313   6.454   2.821   2.788
  186SAPE    C321314   6.023   3.076   2.816
  186SAPE    HX21315   5.959   3.157   2.774
  186SAPE    HY21316   6.094   3.136   2.876
  186SAPE   O3121317   5.945   2.977   2.898
  186SAPE   C3121318   5.818   2.981   2.887
  186SAPE   O3221319   5.752   3.041   2.798
  186SAPE   C3221320   5.760   2.900   2.998
  186SAPE   H2X21321   5.767   2.967   3.087
  186SAPE   H2Y21322   5.823   2.812   3.023
  186SAPE   C2321323   6.465   2.899   2.995
  186SAPE   H3R21324   6.521   2.992   2.966
  186SAPE   H3S21325   6.533   2.815   3.021
  186SAPE   C2421326   6.386   2.935   3.117
  186SAPE   H4R21327   6.322   3.025   3.112
  186SAPE   H4S21328   6.457   2.972   3.193
  186SAPE   C2521329   6.324   2.812   3.172
  186SAPE   H5R21330   6.400   2.733   3.178
  186SAPE   C2621331   6.198   2.792   3.217
  186SAPE   H6R21332   6.164   2.689   3.233
  186SAPE   C2721333   6.092   2.903   3.209
  186SAPE   H7R21334   5.992   2.859   3.190
  186SAPE   H7S21335   6.120   2.968   3.124
  186SAPE   C2821336   6.085   2.982   3.341
  186SAPE   H8R21337   6.142   2.932   3.420
  186SAPE   C2921338   6.027   3.104   3.364
  186SAPE   H9R21339   6.030   3.146   3.465
  186SAPE  C21021340   5.959   3.187   3.253
  186SAPE  H10R21341   5.893   3.258   3.307
  186SAPE  H10S21342   5.889   3.118   3.202
  186SAPE  C21121343   6.039   3.252   3.146
  186SAPE  H11R21344   6.132   3.203   3.116
  186SAPE  C21221345   5.994   3.360   3.079
  186SAPE  H12R21346   6.055   3.398   2.996
  186SAPE  C21321347   5.862   3.437   3.090
  186SAPE  H13R21348   5.870   3.546   3.071
  186SAPE  H13S21349   5.820   3.426   3.192
  186SAPE  C21421350   5.764   3.377   2.997
  186SAPE  H14R21351   5.792   3.371   2.890
  186SAPE  C21521352   5.638   3.347   3.026
  186SAPE  H15R21353   5.565   3.317   2.950
  186SAPE  C21621354   5.568   3.349   3.157
  186SAPE  H16R21355   5.646   3.351   3.237
  186SAPE  H16S21356   5.512   3.255   3.171
  186SAPE  C21721357   5.468   3.459   3.175
  186SAPE  H17R21358   5.405   3.455   3.083
  186SAPE  H17S21359   5.519   3.558   3.176
  186SAPE  C21821360   5.381   3.454   3.299
  186SAPE  H18R21361   5.447   3.457   3.388
  186SAPE  H18S21362   5.331   3.355   3.298
  186SAPE  C21921363   5.275   3.563   3.310
  186SAPE  H19R21364   5.203   3.534   3.390
  186SAPE  H19S21365   5.211   3.574   3.220
  186SAPE  C22021366   5.329   3.699   3.348
  186SAPE  H20R21367   5.244   3.769   3.363
  186SAPE  H20S21368   5.392   3.735   3.263
  186SAPE  H20T21369   5.396   3.700   3.437
  186SAPE   C3321370   5.608   2.879   2.967
  186SAPE   H3X21371   5.600   2.812   2.879
  186SAPE   H3Y21372   5.559   2.977   2.946
  186SAPE   C3421373   5.533   2.803   3.075
  186SAPE   H4X21374   5.601   2.729   3.123
  186SAPE   H4Y21375   5.444   2.757   3.026
  186SAPE   C3521376   5.478   2.896   3.190
  186SAPE   H5X21377   5.394   2.840   3.238
  186SAPE   H5Y21378   5.443   2.989   3.140
  186SAPE   C3621379   5.590   2.923   3.301
  186SAPE   H6X21380   5.669   2.985   3.255
  186SAPE   H6Y21381   5.636   2.828   3.334
  186SAPE   C3721382   5.537   3.008   3.414
  186SAPE   H7X21383   5.463   2.949   3.472
  186SAPE   H7Y21384   5.485   3.093   3.364
  186SAPE   C3821385   5.647   3.049   3.513
  186SAPE   H8X21386   5.718   3.112   3.453
  186SAPE   H8Y21387   5.697   2.964   3.564
  186SAPE   C3921388   5.600   3.153   3.622
  186SAPE   H9X21389   5.529   3.109   3.696
  186SAPE   H9Y21390   5.544   3.232   3.567
  186SAPE  C31021391   5.721   3.205   3.694
  186SAPE  H10X21392   5.785   3.258   3.620
  186SAPE  H10Y21393   5.775   3.118   3.737
  186SAPE  C31121394   5.684   3.295   3.811
  186SAPE  H11X21395   5.602   3.358   3.773
  186SAPE  H11Y21396   5.767   3.365   3.834
  186SAPE  C31221397   5.650   3.232   3.949
  186SAPE  H12X21398   5.659   3.309   4.028
  186SAPE  H12Y21399   5.736   3.165   3.968
  186SAPE  C31321400   5.511   3.174   3.957
  186SAPE  H13X21401   5.512   3.091   3.884
  186SAPE  H13Y21402   5.436   3.251   3.929
  186SAPE  C31421403   5.479   3.122   4.105
  186SAPE  H14X21404   5.558   3.045   4.119
  186SAPE  H14Y21405   5.388   3.059   4.112
  186SAPE  C31521406   5.469   3.228   4.217
  186SAPE  H15X21407   5.539   3.310   4.188
  186SAPE  H15Y21408   5.509   3.179   4.308
  186SAPE  C31621409   5.324   3.275   4.256
  186SAPE  H16X21410   5.273   3.187   4.300
  186SAPE  H16Y21411   5.272   3.318   4.168
  186SAPE  C31721412   5.325   3.379   4.375
  186SAPE  H17X21413   5.401   3.455   4.347
  186SAPE  H17Y21414   5.371   3.310   4.448
  186SAPE  C31821415   5.183   3.430   4.410
  186SAPE  H18X21416   5.181   3.469   4.514
  186SAPE  H18Y21417   5.114   3.343   4.409
  186SAPE  H18Z21418   5.145   3.498   4.331
  187SAPE     N21419   6.678   6.972   1.957
  187SAPE   HN121420   6.780   6.984   1.975
  187SAPE   HN221421   6.653   6.871   1.959
  187SAPE   HN321422   6.649   7.005   1.862
  187SAPE   C1221423   6.588   7.032   2.054
  187SAPE  H12A21424   6.614   7.140   2.062
  187SAPE  H12B21425   6.597   6.989   2.156
  187SAPE   C1121426   6.447   7.015   2.005
  187SAPE  H11A21427   6.439   7.074   1.912
  187SAPE  H11B21428   6.369   7.049   2.077
  187SAPE     P21429   6.284   6.827   1.937
  187SAPE   O1321430   6.226   6.926   1.844
  187SAPE   O1421431   6.289   6.688   1.889
  187SAPE   O1221432   6.426   6.877   1.975
  187SAPE   O1121433   6.205   6.839   2.075
  187SAPE    C121434   6.107   6.944   2.098
  187SAPE    HA21435   6.155   7.044   2.096
  187SAPE    HB21436   6.024   6.944   2.025
  187SAPE    C221437   6.053   6.924   2.242
  187SAPE    HS21438   6.007   7.022   2.268
  187SAPE   O2121439   6.151   6.871   2.329
  187SAPE   C2121440   6.243   6.957   2.365
  187SAPE   O2221441   6.226   7.084   2.362
  187SAPE   C2221442   6.372   6.887   2.390
  187SAPE   H2R21443   6.349   6.798   2.453
  187SAPE   H2S21444   6.400   6.844   2.291
  187SAPE    C321445   5.937   6.827   2.223
  187SAPE    HX21446   5.988   6.743   2.170
  187SAPE    HY21447   5.864   6.869   2.150
  187SAPE   O3121448   5.889   6.777   2.346
  187SAPE   C3121449   5.782   6.841   2.391
  187SAPE   O3221450   5.729   6.939   2.339
  187SAPE   C3221451   5.731   6.770   2.519
  187SAPE   H2X21452   5.735   6.659   2.508
  187SAPE   H2Y21453   5.632   6.814   2.544
  187SAPE   C2321454   6.471   6.980   2.460
  187SAPE   H3R21455   6.495   7.073   2.403
  187SAPE   H3S21456   6.570   6.933   2.471
  187SAPE   C2421457   6.426   7.029   2.602
  187SAPE   H4R21458   6.329   7.081   2.591
  187SAPE   H4S21459   6.494   7.107   2.643
  187SAPE   C2521460   6.406   6.913   2.695
  187SAPE   H5R21461   6.358   6.826   2.648
  187SAPE   C2621462   6.450   6.904   2.824
  187SAPE   H6R21463   6.438   6.805   2.871
  187SAPE   C2721464   6.538   7.002   2.900
  187SAPE   H7R21465   6.562   7.093   2.842
  187SAPE   H7S21466   6.635   6.950   2.912
  187SAPE   C2821467   6.492   7.037   3.046
  187SAPE   H8R21468   6.409   7.109   3.055
  187SAPE   C2921469   6.521   6.971   3.157
  187SAPE   H9R21470   6.469   7.001   3.249
  187SAPE  C21021471   6.602   6.845   3.162
  187SAPE  H10R21472   6.674   6.856   3.246
  187SAPE  H10S21473   6.673   6.829   3.078
  187SAPE  C21121474   6.540   6.708   3.174
  187SAPE  H11R21475   6.441   6.709   3.126
  187SAPE  C21221476   6.599   6.587   3.206
  187SAPE  H12R21477   6.543   6.493   3.215
  187SAPE  C21321478   6.746   6.573   3.241
  187SAPE  H13R21479   6.815   6.644   3.191
  187SAPE  H13S21480   6.775   6.474   3.197
  187SAPE  C21421481   6.770   6.565   3.390
  187SAPE  H14R21482   6.730   6.647   3.451
  187SAPE  C21521483   6.840   6.470   3.453
  187SAPE  H15R21484   6.869   6.494   3.556
  187SAPE  C21621485   6.900   6.339   3.393
  187SAPE  H16R21486   6.938   6.347   3.289
  187SAPE  H16S21487   6.826   6.256   3.395
  187SAPE  C21721488   7.033   6.297   3.469
  187SAPE  H17R21489   7.102   6.384   3.471
  187SAPE  H17S21490   7.080   6.209   3.419
  187SAPE  C21821491   6.989   6.255   3.613
  187SAPE  H18R21492   6.903   6.185   3.607
  187SAPE  H18S21493   6.965   6.345   3.675
  187SAPE  C21921494   7.108   6.174   3.676
  187SAPE  H19R21495   7.116   6.086   3.608
  187SAPE  H19S21496   7.087   6.127   3.774
  187SAPE  C22021497   7.242   6.253   3.677
  187SAPE  H20R21498   7.270   6.305   3.583
  187SAPE  H20S21499   7.325   6.190   3.715
  187SAPE  H20T21500   7.234   6.329   3.758
  187SAPE   C3321501   5.821   6.779   2.649
  187SAPE   H3X21502   5.892   6.694   2.652
  187SAPE   H3Y21503   5.752   6.758   2.734
  187SAPE   C3421504   5.885   6.916   2.657
  187SAPE   H4X21505   5.809   6.986   2.700
  187SAPE   H4Y21506   5.929   6.951   2.562
  187SAPE   C3521507   6.012   6.923   2.754
  187SAPE   H5X21508   6.061   7.020   2.734
  187SAPE   H5Y21509   6.076   6.832   2.742
  187SAPE   C3621510   5.955   6.925   2.902
  187SAPE   H6X21511   5.896   6.832   2.918
  187SAPE   H6Y21512   5.891   7.016   2.909
  187SAPE   C3721513   6.069   6.933   3.011
  187SAPE   H7X21514   6.108   7.037   3.013
  187SAPE   H7Y21515   6.156   6.868   2.986
  187SAPE   C3821516   6.012   6.886   3.147
  187SAPE   H8X21517   5.963   6.791   3.117
  187SAPE   H8Y21518   5.924   6.946   3.180
  187SAPE   C3921519   6.125   6.878   3.247
  187SAPE   H9X21520   6.206   6.951   3.225
  187SAPE   H9Y21521   6.170   6.776   3.244
  187SAPE  C31021522   6.067   6.899   3.392
  187SAPE  H10X21523   5.959   6.875   3.394
  187SAPE  H10Y21524   6.064   7.010   3.404
  187SAPE  C31121525   6.136   6.818   3.495
  187SAPE  H11X21526   6.116   6.718   3.452
  187SAPE  H11Y21527   6.082   6.838   3.590
  187SAPE  C31221528   6.279   6.858   3.512
  187SAPE  H12X21529   6.278   6.968   3.526
  187SAPE  H12Y21530   6.341   6.828   3.425
  187SAPE  C31321531   6.358   6.774   3.620
  187SAPE  H13X21532   6.464   6.803   3.608
  187SAPE  H13Y21533   6.344   6.664   3.607
  187SAPE  C31421534   6.321   6.794   3.765
  187SAPE  H14X21535   6.238   6.865   3.783
  187SAPE  H14Y21536   6.410   6.824   3.825
  187SAPE  C31521537   6.270   6.663   3.824
  187SAPE  H15X21538   6.359   6.596   3.829
  187SAPE  H15Y21539   6.203   6.616   3.749
  187SAPE  C31621540   6.219   6.660   3.965
  187SAPE  H16X21541   6.302   6.709   4.021
  187SAPE  H16Y21542   6.215   6.554   3.999
  187SAPE  C31721543   6.080   6.718   3.990
  187SAPE  H17X21544   6.073   6.822   3.952
  187SAPE  H17Y21545   6.067   6.729   4.100
  187SAPE  C31821546   5.963   6.643   3.922
  187SAPE  H18X21547   5.986   6.627   3.815
  187SAPE  H18Y21548   5.867   6.697   3.931
  187SAPE  H18Z21549   5.947   6.539   3.960
  188SAPE     N21550   6.141   0.098   1.666
  188SAPE   HN121551   6.052   0.100   1.720
  188SAPE   HN221552   6.113   0.111   1.567
  188SAPE   HN321553   6.193   0.009   1.678
  188SAPE   C1221554   6.229   0.211   1.715
  188SAPE  H12A21555   6.217   0.294   1.642
  188SAPE  H12B21556   6.332   0.170   1.703
  188SAPE   C1121557   6.202   0.250   1.861
  188SAPE  H11A21558   6.283   0.325   1.877
  188SAPE  H11B21559   6.214   0.175   1.942
  188SAPE     P21560   6.050   0.461   1.875
  188SAPE   O1321561   6.152   0.517   1.961
  188SAPE   O1421562   6.058   0.512   1.734
  188SAPE   O1221563   6.067   0.305   1.872
  188SAPE   O1121564   5.907   0.488   1.933
  188SAPE    C121565   5.828   0.397   2.006
  188SAPE    HA21566   5.724   0.435   2.001
  188SAPE    HB21567   5.838   0.297   1.958
  188SAPE    C221568   5.852   0.392   2.162
  188SAPE    HS21569   5.754   0.363   2.208
  188SAPE   O2121570   5.896   0.525   2.207
  188SAPE   C2121571   5.807   0.621   2.188
  188SAPE   O2221572   5.692   0.609   2.147
  188SAPE   C2221573   5.872   0.742   2.259
  188SAPE   H2R21574   5.979   0.720   2.278
  188SAPE   H2S21575   5.864   0.821   2.181
  188SAPE    C321576   5.963   0.290   2.192
  188SAPE    HX21577   6.059   0.316   2.143
  188SAPE    HY21578   5.935   0.196   2.141
  188SAPE   O3121579   5.966   0.259   2.331
  188SAPE   C3121580   6.055   0.332   2.394
  188SAPE   O3221581   6.125   0.418   2.346
  188SAPE   C3221582   6.062   0.291   2.541
  188SAPE   H2X21583   6.095   0.185   2.547
  188SAPE   H2Y21584   5.959   0.291   2.581
  188SAPE   C2321585   5.778   0.794   2.377
  188SAPE   H3R21586   5.684   0.837   2.335
  188SAPE   H3S21587   5.838   0.877   2.420
  188SAPE   C2421588   5.732   0.690   2.478
  188SAPE   H4R21589   5.682   0.606   2.423
  188SAPE   H4S21590   5.655   0.732   2.546
  188SAPE   C2521591   5.856   0.643   2.553
  188SAPE   H5R21592   5.931   0.600   2.485
  188SAPE   C2621593   5.881   0.641   2.683
  188SAPE   H6R21594   5.971   0.582   2.707
  188SAPE   C2721595   5.790   0.674   2.797
  188SAPE   H7R21596   5.794   0.604   2.883
  188SAPE   H7S21597   5.684   0.667   2.764
  188SAPE   C2821598   5.816   0.809   2.849
  188SAPE   H8R21599   5.863   0.876   2.776
  188SAPE   C2921600   5.800   0.869   2.970
  188SAPE   H9R21601   5.845   0.969   2.978
  188SAPE  C21021602   5.754   0.814   3.098
  188SAPE  H10R21603   5.765   0.703   3.101
  188SAPE  H10S21604   5.645   0.829   3.107
  188SAPE  C21121605   5.815   0.876   3.228
  188SAPE  H11R21606   5.786   0.982   3.233
  188SAPE  C21221607   5.870   0.817   3.334
  188SAPE  H12R21608   5.909   0.882   3.414
  188SAPE  C21321609   5.894   0.667   3.351
  188SAPE  H13R21610   5.842   0.604   3.275
  188SAPE  H13S21611   5.857   0.640   3.452
  188SAPE  C21421612   6.043   0.639   3.352
  188SAPE  H14R21613   6.092   0.647   3.254
  188SAPE  C21521614   6.129   0.649   3.457
  188SAPE  H15R21615   6.234   0.624   3.441
  188SAPE  C21621616   6.104   0.677   3.602
  188SAPE  H16R21617   6.000   0.710   3.618
  188SAPE  H16S21618   6.171   0.763   3.624
  188SAPE  C21721619   6.132   0.561   3.697
  188SAPE  H17R21620   6.241   0.540   3.703
  188SAPE  H17S21621   6.072   0.474   3.663
  188SAPE  C21821622   6.101   0.590   3.840
  188SAPE  H18R21623   6.144   0.504   3.897
  188SAPE  H18S21624   5.994   0.585   3.867
  188SAPE  C21921625   6.169   0.725   3.882
  188SAPE  H19R21626   6.119   0.814   3.839
  188SAPE  H19S21627   6.279   0.727   3.864
  188SAPE  C22021628   6.155   0.742   4.040
  188SAPE  H20R21629   6.049   0.742   4.074
  188SAPE  H20S21630   6.223   0.817   4.084
  188SAPE  H20T21631   6.201   0.650   4.084
  188SAPE   C3321632   6.148   0.376   2.639
  188SAPE   H3X21633   6.133   0.485   2.624
  188SAPE   H3Y21634   6.251   0.349   2.608
  188SAPE   C3421635   6.121   0.346   2.789
  188SAPE   H4X21636   6.109   0.236   2.800
  188SAPE   H4Y21637   6.024   0.388   2.822
  188SAPE   C3521638   6.232   0.382   2.879
  188SAPE   H5X21639   6.239   0.492   2.887
  188SAPE   H5Y21640   6.328   0.331   2.860
  188SAPE   C3621641   6.203   0.335   3.025
  188SAPE   H6X21642   6.185   0.227   3.041
  188SAPE   H6Y21643   6.110   0.384   3.062
  188SAPE   C3721644   6.313   0.382   3.128
  188SAPE   H7X21645   6.331   0.492   3.129
  188SAPE   H7Y21646   6.404   0.328   3.094
  188SAPE   C3821647   6.267   0.335   3.266
  188SAPE   H8X21648   6.203   0.245   3.249
  188SAPE   H8Y21649   6.206   0.419   3.303
  188SAPE   C3921650   6.373   0.314   3.370
  188SAPE   H9X21651   6.436   0.405   3.385
  188SAPE   H9Y21652   6.446   0.237   3.338
  188SAPE  C31021653   6.322   0.262   3.510
  188SAPE  H10X21654   6.262   0.171   3.488
  188SAPE  H10Y21655   6.263   0.341   3.561
  188SAPE  C31121656   6.435   0.223   3.596
  188SAPE  H11X21657   6.512   0.302   3.586
  188SAPE  H11Y21658   6.486   0.126   3.578
  188SAPE  C31221659   6.393   0.213   3.746
  188SAPE  H12X21660   6.290   0.172   3.754
  188SAPE  H12Y21661   6.389   0.319   3.779
  188SAPE  C31321662   6.503   0.141   3.828
  188SAPE  H13X21663   6.592   0.207   3.831
  188SAPE  H13Y21664   6.521   0.048   3.770
  188SAPE  C31421665   6.460   0.106   3.973
  188SAPE  H14X21666   6.531   0.026   4.003
  188SAPE  H14Y21667   6.360   0.058   3.970
  188SAPE  C31521668   6.452   0.226   4.072
  188SAPE  H15X21669   6.438   0.315   4.007
  188SAPE  H15Y21670   6.553   0.236   4.115
  188SAPE  C31621671   6.349   0.204   4.196
  188SAPE  H16X21672   6.376   0.107   4.243
  188SAPE  H16Y21673   6.247   0.189   4.153
  188SAPE  C31721674   6.360   0.307   4.310
  188SAPE  H17X21675   6.272   0.295   4.376
  188SAPE  H17Y21676   6.357   0.406   4.260
  188SAPE  C31821677   6.495   0.282   4.384
  188SAPE  H18X21678   6.581   0.308   4.318
  188SAPE  H18Y21679   6.508   0.173   4.398
  188SAPE  H18Z21680   6.511   0.334   4.481
  189SAPI   C1221681   5.911   2.916   6.274
  189SAPI    H221682   5.917   2.952   6.169
  189SAPI    O221683   6.045   2.887   6.327
  189SAPI   HO221684   6.052   2.796   6.296
  189SAPI   C1321685   5.843   3.019   6.357
  189SAPI    H321686   5.743   3.034   6.311
  189SAPI    O321687   5.913   3.148   6.345
  189SAPI   HO321688   5.995   3.132   6.391
  189SAPI   C1421689   5.811   2.976   6.499
  189SAPI    H421690   5.910   2.957   6.545
  189SAPI    O421691   5.752   3.075   6.580
  189SAPI   HO421692   5.675   3.112   6.536
  189SAPI   C1521693   5.746   2.842   6.502
  189SAPI    H521694   5.641   2.854   6.466
  189SAPI    O521695   5.728   2.800   6.639
  189SAPI   HO521696   5.706   2.871   6.700
  189SAPI   C1621697   5.807   2.735   6.417
  189SAPI    H621698   5.897   2.701   6.472
  189SAPI    O621699   5.728   2.618   6.408
  189SAPI   HO621700   5.727   2.598   6.314
  189SAPI   C1121701   5.830   2.784   6.275
  189SAPI    H121702   5.733   2.815   6.231
  189SAPI     P21703   5.856   2.610   6.076
  189SAPI   O1321704   5.972   2.531   6.028
  189SAPI   O1421705   5.804   2.708   5.982
  189SAPI   O1221706   5.911   2.693   6.204
  189SAPI   O1121707   5.741   2.527   6.144
  189SAPI    C121708   5.711   2.397   6.105
  189SAPI    HA21709   5.668   2.390   6.002
  189SAPI    HB21710   5.801   2.332   6.108
  189SAPI    C221711   5.591   2.349   6.199
  189SAPI    HS21712   5.631   2.331   6.302
  189SAPI   O2121713   5.533   2.225   6.150
  189SAPI   C2121714   5.613   2.119   6.126
  189SAPI   O2221715   5.732   2.113   6.149
  189SAPI   C2221716   5.533   2.007   6.055
  189SAPI   H2R21717   5.521   1.929   6.133
  189SAPI   H2S21718   5.435   2.045   6.020
  189SAPI    C321719   5.483   2.460   6.216
  189SAPI    HX21720   5.530   2.555   6.250
  189SAPI    HY21721   5.404   2.431   6.288
  189SAPI   O3121722   5.418   2.473   6.081
  189SAPI   C3121723   5.309   2.404   6.067
  189SAPI   O3221724   5.254   2.338   6.153
  189SAPI   C3221725   5.257   2.426   5.933
  189SAPI   H2X21726   5.323   2.375   5.860
  189SAPI   H2Y21727   5.251   2.534   5.909
  189SAPI   C2321728   5.607   1.933   5.942
  189SAPI   H3R21729   5.553   1.837   5.922
  189SAPI   H3S21730   5.707   1.906   5.983
  189SAPI   C2421731   5.631   2.007   5.811
  189SAPI   H4R21732   5.685   1.928   5.755
  189SAPI   H4S21733   5.711   2.082   5.829
  189SAPI   C2521734   5.502   2.047   5.741
  189SAPI   H5R21735   5.452   2.140   5.773
  189SAPI   C2621736   5.452   1.990   5.629
  189SAPI   H6R21737   5.362   2.031   5.582
  189SAPI   C2721738   5.501   1.875   5.549
  189SAPI   H7R21739   5.408   1.820   5.524
  189SAPI   H7S21740   5.563   1.804   5.607
  189SAPI   C2821741   5.565   1.916   5.424
  189SAPI   H8R21742   5.675   1.924   5.429
  189SAPI   C2921743   5.499   1.947   5.306
  189SAPI   H9R21744   5.560   1.972   5.218
  189SAPI  C21021745   5.347   1.948   5.292
  189SAPI  H10R21746   5.318   2.036   5.230
  189SAPI  H10S21747   5.297   1.961   5.390
  189SAPI  C21121748   5.286   1.822   5.225
  189SAPI  H11R21749   5.256   1.736   5.287
  189SAPI  C21221750   5.252   1.817   5.092
  189SAPI  H12R21751   5.220   1.723   5.044
  189SAPI  C21321752   5.268   1.933   4.992
  189SAPI  H13R21753   5.313   1.880   4.905
  189SAPI  H13S21754   5.342   2.007   5.031
  189SAPI  C21421755   5.138   2.003   4.957
  189SAPI  H14R21756   5.090   2.044   5.046
  189SAPI  C21521757   5.077   2.008   4.834
  189SAPI  H15R21758   4.986   2.070   4.837
  189SAPI  C21621759   5.133   1.955   4.699
  189SAPI  H16R21760   5.092   1.853   4.682
  189SAPI  H16S21761   5.239   1.926   4.687
  189SAPI  C21721762   5.088   2.042   4.584
  189SAPI  H17R21763   4.978   2.052   4.589
  189SAPI  H17S21764   5.098   1.991   4.486
  189SAPI  C21821765   5.152   2.182   4.571
  189SAPI  H18R21766   5.263   2.180   4.573
  189SAPI  H18S21767   5.118   2.229   4.666
  189SAPI  C21921768   5.105   2.248   4.439
  189SAPI  H19R21769   4.995   2.242   4.423
  189SAPI  H19S21770   5.151   2.201   4.349
  189SAPI  C22021771   5.136   2.403   4.436
  189SAPI  H20R21772   5.073   2.451   4.358
  189SAPI  H20S21773   5.245   2.421   4.427
  189SAPI  H20T21774   5.107   2.455   4.530
  189SAPI   C3321775   5.122   2.365   5.901
  189SAPI   H3X21776   5.049   2.418   5.966
  189SAPI   H3Y21777   5.108   2.258   5.928
  189SAPI   C3421778   5.078   2.392   5.756
  189SAPI   H4X21779   5.083   2.499   5.725
  189SAPI   H4Y21780   4.972   2.358   5.749
  189SAPI   C3521781   5.160   2.315   5.649
  189SAPI   H5X21782   5.162   2.208   5.680
  189SAPI   H5Y21783   5.265   2.352   5.646
  189SAPI   C3621784   5.104   2.333   5.507
  189SAPI   H6X21785   5.098   2.442   5.490
  189SAPI   H6Y21786   5.001   2.292   5.498
  189SAPI   C3721787   5.192   2.259   5.411
  189SAPI   H7X21788   5.156   2.155   5.393
  189SAPI   H7Y21789   5.293   2.242   5.452
  189SAPI   C3821790   5.230   2.334   5.283
  189SAPI   H8X21791   5.315   2.286   5.230
  189SAPI   H8Y21792   5.273   2.431   5.313
  189SAPI   C3921793   5.116   2.359   5.186
  189SAPI   H9X21794   5.028   2.387   5.248
  189SAPI   H9Y21795   5.100   2.262   5.135
  189SAPI  C31021796   5.160   2.459   5.075
  189SAPI  H10X21797   5.091   2.463   4.988
  189SAPI  H10Y21798   5.261   2.422   5.046
  189SAPI  C31121799   5.174   2.603   5.123
  189SAPI  H11X21800   5.234   2.607   5.217
  189SAPI  H11Y21801   5.073   2.640   5.151
  189SAPI  C31221802   5.225   2.694   5.011
  189SAPI  H12X21803   5.312   2.640   4.968
  189SAPI  H12Y21804   5.263   2.789   5.053
  189SAPI  C31321805   5.130   2.730   4.896
  189SAPI  H13X21806   5.030   2.737   4.945
  189SAPI  H13Y21807   5.107   2.636   4.841
  189SAPI  C31421808   5.167   2.857   4.815
  189SAPI  H14X21809   5.276   2.874   4.807
  189SAPI  H14Y21810   5.141   2.943   4.880
  189SAPI  C31521811   5.091   2.870   4.682
  189SAPI  H15X21812   5.090   2.976   4.647
  189SAPI  H15Y21813   4.985   2.839   4.690
  189SAPI  C31621814   5.162   2.786   4.576
  189SAPI  H16X21815   5.090   2.721   4.521
  189SAPI  H16Y21816   5.235   2.724   4.632
  189SAPI  C31721817   5.232   2.870   4.470
  189SAPI  H17X21818   5.329   2.907   4.510
  189SAPI  H17Y21819   5.177   2.958   4.430
  189SAPI  C31821820   5.280   2.783   4.353
  189SAPI  H18X21821   5.200   2.763   4.279
  189SAPI  H18Y21822   5.327   2.690   4.394
  189SAPI  H18Z21823   5.365   2.835   4.304
  190SAPI   C1221824   6.141   5.827   6.317
  190SAPI    H221825   6.073   5.774   6.387
  190SAPI    O221826   6.099   5.784   6.188
  190SAPI   HO221827   6.003   5.792   6.184
  190SAPI   C1321828   6.121   5.978   6.333
  190SAPI    H321829   6.161   6.008   6.432
  190SAPI    O321830   5.977   6.020   6.320
  190SAPI   HO321831   5.936   5.967   6.251
  190SAPI   C1421832   6.212   6.052   6.231
  190SAPI    H421833   6.170   6.030   6.131
  190SAPI    O421834   6.196   6.193   6.254
  190SAPI   HO421835   6.137   6.229   6.186
  190SAPI   C1521836   6.358   6.014   6.254
  190SAPI    H521837   6.376   6.054   6.356
  190SAPI    O521838   6.434   6.085   6.152
  190SAPI   HO521839   6.529   6.073   6.160
  190SAPI   C1621840   6.379   5.863   6.244
  190SAPI    H621841   6.354   5.824   6.143
  190SAPI    O621842   6.515   5.843   6.286
  190SAPI   HO621843   6.529   5.750   6.306
  190SAPI   C1121844   6.286   5.793   6.345
  190SAPI    H121845   6.307   5.837   6.445
  190SAPI     P21846   6.400   5.569   6.443
  190SAPI   O1321847   6.342   5.432   6.448
  190SAPI   O1421848   6.409   5.649   6.566
  190SAPI   O1221849   6.302   5.650   6.337
  190SAPI   O1121850   6.546   5.563   6.376
  190SAPI    C121851   6.567   5.464   6.271
  190SAPI    HA21852   6.569   5.359   6.307
  190SAPI    HB21853   6.477   5.468   6.205
  190SAPI    C221854   6.685   5.492   6.174
  190SAPI    HS21855   6.781   5.501   6.229
  190SAPI   O2121856   6.642   5.613   6.103
  190SAPI   C2121857   6.746   5.687   6.057
  190SAPI   O2221858   6.862   5.659   6.078
  190SAPI   C2221859   6.696   5.816   5.988
  190SAPI   H2R21860   6.635   5.781   5.902
  190SAPI   H2S21861   6.627   5.870   6.057
  190SAPI    C321862   6.691   5.368   6.082
  190SAPI    HX21863   6.587   5.357   6.046
  190SAPI    HY21864   6.714   5.274   6.137
  190SAPI   O3121865   6.781   5.375   5.971
  190SAPI   C3121866   6.912   5.351   5.997
  190SAPI   O3221867   6.962   5.343   6.107
  190SAPI   C3221868   6.975   5.311   5.865
  190SAPI   H2X21869   6.907   5.244   5.808
  190SAPI   H2Y21870   7.065   5.247   5.874
  190SAPI   C2321871   6.815   5.910   5.958
  190SAPI   H3R21872   6.898   5.869   5.896
  190SAPI   H3S21873   6.866   5.928   6.055
  190SAPI   C2421874   6.772   6.042   5.891
  190SAPI   H4R21875   6.704   6.102   5.955
  190SAPI   H4S21876   6.703   6.018   5.808
  190SAPI   C2521877   6.893   6.128   5.861
  190SAPI   H5R21878   6.960   6.133   5.948
  190SAPI   C2621879   6.933   6.186   5.745
  190SAPI   H6R21880   7.027   6.243   5.743
  190SAPI   C2721881   6.860   6.169   5.615
  190SAPI   H7R21882   6.766   6.112   5.628
  190SAPI   H7S21883   6.922   6.099   5.553
  190SAPI   C2821884   6.840   6.292   5.539
  190SAPI   H8R21885   6.889   6.385   5.573
  190SAPI   C2921886   6.772   6.301   5.422
  190SAPI   H9R21887   6.764   6.402   5.381
  190SAPI  C21021888   6.710   6.190   5.349
  190SAPI  H10R21889   6.645   6.130   5.416
  190SAPI  H10S21890   6.788   6.114   5.330
  190SAPI  C21121891   6.643   6.227   5.220
  190SAPI  H11R21892   6.683   6.321   5.180
  190SAPI  C21221893   6.542   6.171   5.157
  190SAPI  H12R21894   6.511   6.212   5.060
  190SAPI  C21321895   6.479   6.041   5.197
  190SAPI  H13R21896   6.559   5.995   5.260
  190SAPI  H13S21897   6.462   5.971   5.113
  190SAPI  C21421898   6.358   6.062   5.288
  190SAPI  H14R21899   6.369   6.135   5.370
  190SAPI  C21521900   6.245   5.990   5.293
  190SAPI  H15R21901   6.180   6.012   5.378
  190SAPI  C21621902   6.208   5.873   5.207
  190SAPI  H16R21903   6.150   5.796   5.262
  190SAPI  H16S21904   6.304   5.833   5.167
  190SAPI  C21721905   6.127   5.906   5.077
  190SAPI  H17R21906   6.124   5.806   5.029
  190SAPI  H17S21907   6.182   5.969   5.004
  190SAPI  C21821908   5.980   5.963   5.088
  190SAPI  H18R21909   5.992   6.072   5.108
  190SAPI  H18S21910   5.926   5.912   5.171
  190SAPI  C21921911   5.903   5.930   4.963
  190SAPI  H19R21912   5.796   5.954   4.984
  190SAPI  H19S21913   5.933   5.824   4.953
  190SAPI  C22021914   5.961   6.008   4.851
  190SAPI  H20R21915   5.956   6.116   4.875
  190SAPI  H20S21916   5.901   6.002   4.758
  190SAPI  H20T21917   6.063   5.971   4.829
  190SAPI   C3321918   7.017   5.441   5.782
  190SAPI   H3X21919   7.082   5.421   5.693
  190SAPI   H3Y21920   7.075   5.512   5.845
  190SAPI   C3421921   6.893   5.509   5.723
  190SAPI   H4X21922   6.823   5.547   5.800
  190SAPI   H4Y21923   6.833   5.444   5.656
  190SAPI   C3521924   6.924   5.633   5.634
  190SAPI   H5X21925   6.980   5.600   5.543
  190SAPI   H5Y21926   6.999   5.690   5.693
  190SAPI   C3621927   6.820   5.736   5.610
  190SAPI   H6X21928   6.810   5.811   5.691
  190SAPI   H6Y21929   6.720   5.688   5.602
  190SAPI   C3721930   6.839   5.820   5.479
  190SAPI   H7X21931   6.942   5.860   5.483
  190SAPI   H7Y21932   6.755   5.892   5.470
  190SAPI   C3821933   6.814   5.732   5.359
  190SAPI   H8X21934   6.717   5.679   5.368
  190SAPI   H8Y21935   6.885   5.647   5.355
  190SAPI   C3921936   6.816   5.811   5.228
  190SAPI   H9X21937   6.921   5.832   5.199
  190SAPI   H9Y21938   6.773   5.913   5.236
  190SAPI  C31021939   6.744   5.731   5.115
  190SAPI  H10X21940   6.636   5.730   5.141
  190SAPI  H10Y21941   6.774   5.624   5.113
  190SAPI  C31121942   6.757   5.800   4.982
  190SAPI  H11X21943   6.855   5.760   4.947
  190SAPI  H11Y21944   6.762   5.908   5.008
  190SAPI  C31221945   6.659   5.762   4.868
  190SAPI  H12X21946   6.644   5.652   4.868
  190SAPI  H12Y21947   6.712   5.801   4.778
  190SAPI  C31321948   6.523   5.823   4.883
  190SAPI  H13X21949   6.526   5.924   4.930
  190SAPI  H13Y21950   6.471   5.760   4.958
  190SAPI  C31421951   6.444   5.830   4.755
  190SAPI  H14X21952   6.498   5.902   4.690
  190SAPI  H14Y21953   6.340   5.865   4.774
  190SAPI  C31521954   6.444   5.694   4.689
  190SAPI  H15X21955   6.416   5.615   4.763
  190SAPI  H15Y21956   6.546   5.664   4.658
  190SAPI  C31621957   6.344   5.688   4.566
  190SAPI  H16X21958   6.336   5.777   4.499
  190SAPI  H16Y21959   6.243   5.673   4.610
  190SAPI  C31721960   6.365   5.569   4.467
  190SAPI  H17X21961   6.356   5.479   4.532
  190SAPI  H17Y21962   6.464   5.587   4.422
  190SAPI  C31821963   6.252   5.563   4.359
  190SAPI  H18X21964   6.152   5.582   4.405
  190SAPI  H18Y21965   6.246   5.470   4.298
  190SAPI  H18Z21966   6.254   5.647   4.287
  191SAPI   C1221967   0.734   3.099   2.157
  191SAPI    H221968   0.736   3.059   2.261
  191SAPI    O221969   0.607   3.123   2.120
  191SAPI   HO221970   0.562   3.039   2.109
  191SAPI   C1321971   0.815   3.232   2.158
  191SAPI    H321972   0.918   3.216   2.195
  191SAPI    O321973   0.760   3.326   2.254
  191SAPI   HO321974   0.667   3.326   2.229
  191SAPI   C1421975   0.827   3.289   2.018
  191SAPI    H421976   0.728   3.307   1.969
  191SAPI    O421977   0.896   3.418   2.011
  191SAPI   HO421978   0.978   3.416   2.062
  191SAPI   C1521979   0.883   3.186   1.921
  191SAPI    H521980   0.988   3.170   1.957
  191SAPI    O521981   0.884   3.235   1.784
  191SAPI   HO521982   0.978   3.234   1.766
  191SAPI   C1621983   0.803   3.057   1.921
  191SAPI    H621984   0.700   3.069   1.881
  191SAPI    O621985   0.871   2.960   1.839
  191SAPI   HO621986   0.819   2.881   1.852
  191SAPI   C1121987   0.805   3.002   2.064
  191SAPI    H121988   0.913   2.988   2.084
  191SAPI     P21989   0.788   2.754   2.157
  191SAPI   O1321990   0.930   2.732   2.124
  191SAPI   O1421991   0.695   2.640   2.145
  191SAPI   O1221992   0.735   2.873   2.064
  191SAPI   O1121993   0.787   2.819   2.297
  191SAPI    C121994   0.738   2.742   2.410
  191SAPI    HA21995   0.630   2.761   2.428
  191SAPI    HB21996   0.741   2.632   2.395
  191SAPI    C221997   0.825   2.784   2.531
  191SAPI    HS21998   0.921   2.731   2.518
  191SAPI   O2121999   0.756   2.747   2.656
  191SAPI   C2122000   0.765   2.618   2.677
  191SAPI   O2222001   0.816   2.534   2.610
  191SAPI   C2222002   0.693   2.585   2.810
  191SAPI   H2R22003   0.751   2.638   2.889
  191SAPI   H2S22004   0.585   2.604   2.796
  191SAPI    C322005   0.857   2.931   2.533
  191SAPI    HX22006   0.758   2.979   2.516
  191SAPI    HY22007   0.915   2.960   2.443
  191SAPI   O3122008   0.931   2.971   2.646
  191SAPI   C3122009   0.859   3.028   2.738
  191SAPI   O3222010   0.746   3.066   2.736
  191SAPI   C3222011   0.956   3.046   2.859
  191SAPI   H2X22012   0.947   3.152   2.893
  191SAPI   H2Y22013   1.061   3.034   2.827
  191SAPI   C2322014   0.711   2.437   2.843
  191SAPI   H3R22015   0.704   2.426   2.954
  191SAPI   H3S22016   0.812   2.400   2.816
  191SAPI   C2422017   0.611   2.341   2.774
  191SAPI   H4R22018   0.606   2.359   2.664
  191SAPI   H4S22019   0.508   2.367   2.808
  191SAPI   C2522020   0.644   2.194   2.794
  191SAPI   H5R22021   0.637   2.143   2.697
  191SAPI   C2622022   0.662   2.128   2.906
  191SAPI   H6R22023   0.695   2.025   2.886
  191SAPI   C2722024   0.646   2.169   3.057
  191SAPI   H7R22025   0.556   2.233   3.064
  191SAPI   H7S22026   0.733   2.231   3.087
  191SAPI   C2822027   0.602   2.052   3.146
  191SAPI   H8R22028   0.537   1.977   3.098
  191SAPI   C2922029   0.619   2.038   3.276
  191SAPI   H9R22030   0.559   1.963   3.329
  191SAPI  C21022031   0.675   2.140   3.375
  191SAPI  H10R22032   0.769   2.184   3.338
  191SAPI  H10S22033   0.706   2.088   3.469
  191SAPI  C21122034   0.577   2.251   3.402
  191SAPI  H11R22035   0.473   2.222   3.426
  191SAPI  C21222036   0.598   2.386   3.407
  191SAPI  H12R22037   0.511   2.449   3.429
  191SAPI  C21322038   0.735   2.440   3.390
  191SAPI  H13R22039   0.776   2.404   3.293
  191SAPI  H13S22040   0.797   2.399   3.472
  191SAPI  C21422041   0.720   2.594   3.398
  191SAPI  H14R22042   0.748   2.645   3.491
  191SAPI  C21522043   0.653   2.673   3.309
  191SAPI  H15R22044   0.630   2.779   3.322
  191SAPI  C21622045   0.583   2.620   3.183
  191SAPI  H16R22046   0.620   2.517   3.164
  191SAPI  H16S22047   0.613   2.689   3.102
  191SAPI  C21722048   0.430   2.628   3.195
  191SAPI  H17R22049   0.400   2.731   3.223
  191SAPI  H17S22050   0.393   2.570   3.282
  191SAPI  C21822051   0.365   2.576   3.067
  191SAPI  H18R22052   0.395   2.472   3.040
  191SAPI  H18S22053   0.392   2.632   2.975
  191SAPI  C21922054   0.212   2.570   3.087
  191SAPI  H19R22055   0.193   2.532   3.189
  191SAPI  H19S22056   0.167   2.511   3.005
  191SAPI  C22022057   0.153   2.709   3.069
  191SAPI  H20R22058   0.208   2.779   3.134
  191SAPI  H20S22059   0.047   2.718   3.101
  191SAPI  H20T22060   0.168   2.741   2.964
  191SAPI   C3322061   0.921   2.946   2.974
  191SAPI   H3X22062   0.948   2.840   2.956
  191SAPI   H3Y22063   0.811   2.950   2.989
  191SAPI   C3422064   0.986   2.983   3.108
  191SAPI   H4X22065   0.945   3.081   3.140
  191SAPI   H4Y22066   1.095   2.983   3.092
  191SAPI   C3522067   0.953   2.884   3.220
  191SAPI   H5X22068   0.983   2.781   3.193
  191SAPI   H5Y22069   0.845   2.880   3.246
  191SAPI   C3622070   1.036   2.911   3.355
  191SAPI   H6X22071   1.016   3.018   3.376
  191SAPI   H6Y22072   1.144   2.899   3.333
  191SAPI   C3722073   1.003   2.818   3.469
  191SAPI   H7X22074   1.015   2.717   3.424
  191SAPI   H7Y22075   0.892   2.811   3.482
  191SAPI   C3822076   1.078   2.853   3.604
  191SAPI   H8X22077   1.030   2.951   3.626
  191SAPI   H8Y22078   1.185   2.863   3.576
  191SAPI   C3922079   1.042   2.754   3.717
  191SAPI   H9X22080   1.119   2.767   3.795
  191SAPI   H9Y22081   1.041   2.655   3.667
  191SAPI  C31022082   0.903   2.778   3.776
  191SAPI  H10X22083   0.835   2.740   3.697
  191SAPI  H10Y22084   0.886   2.884   3.802
  191SAPI  C31122085   0.885   2.693   3.902
  191SAPI  H11X22086   0.961   2.734   3.973
  191SAPI  H11Y22087   0.903   2.587   3.873
  191SAPI  C31222088   0.741   2.693   3.963
  191SAPI  H12X22089   0.677   2.657   3.880
  191SAPI  H12Y22090   0.711   2.796   3.990
  191SAPI  C31322091   0.740   2.605   4.086
  191SAPI  H13X22092   0.838   2.612   4.139
  191SAPI  H13Y22093   0.735   2.509   4.031
  191SAPI  C31422094   0.616   2.632   4.174
  191SAPI  H14X22095   0.527   2.608   4.112
  191SAPI  H14Y22096   0.614   2.734   4.217
  191SAPI  C31522097   0.596   2.526   4.293
  191SAPI  H15X22098   0.684   2.537   4.360
  191SAPI  H15Y22099   0.579   2.427   4.247
  191SAPI  C31622100   0.481   2.553   4.385
  191SAPI  H16X22101   0.386   2.554   4.328
  191SAPI  H16Y22102   0.497   2.650   4.436
  191SAPI  C31722103   0.483   2.440   4.489
  191SAPI  H17X22104   0.585   2.411   4.524
  191SAPI  H17Y22105   0.451   2.347   4.440
  191SAPI  C31822106   0.393   2.471   4.604
  191SAPI  H18X22107   0.415   2.388   4.675
  191SAPI  H18Y22108   0.286   2.463   4.576
  191SAPI  H18Z22109   0.416   2.571   4.646
  192SAPI   C1222110   6.352   1.540   1.774
  192SAPI    H222111   6.332   1.434   1.802
  192SAPI    O222112   6.490   1.572   1.789
  192SAPI   HO222113   6.493   1.582   1.885
  192SAPI   C1322114   6.296   1.548   1.632
  192SAPI    H322115   6.187   1.527   1.642
  192SAPI    O322116   6.350   1.449   1.548
  192SAPI   HO322117   6.446   1.448   1.552
  192SAPI   C1422118   6.326   1.690   1.585
  192SAPI    H422119   6.435   1.713   1.583
  192SAPI    O422120   6.276   1.704   1.452
  192SAPI   HO422121   6.356   1.713   1.399
  192SAPI   C1522122   6.265   1.787   1.684
  192SAPI    H522123   6.154   1.785   1.677
  192SAPI    O522124   6.287   1.928   1.644
  192SAPI   HO522125   6.362   1.962   1.693
  192SAPI   C1622126   6.289   1.769   1.832
  192SAPI    H622127   6.393   1.795   1.861
  192SAPI    O622128   6.206   1.860   1.914
  192SAPI   HO622129   6.127   1.813   1.940
  192SAPI   C1122130   6.263   1.624   1.870
  192SAPI    H122131   6.163   1.589   1.837
  192SAPI     P22132   6.161   1.589   2.110
  192SAPI   O1322133   6.122   1.451   2.132
  192SAPI   O1422134   6.052   1.674   2.043
  192SAPI   O1222135   6.290   1.592   2.005
  192SAPI   O1122136   6.212   1.653   2.242
  192SAPI    C122137   6.245   1.793   2.252
  192SAPI    HA22138   6.319   1.824   2.175
  192SAPI    HB22139   6.160   1.864   2.241
  192SAPI    C222140   6.306   1.819   2.392
  192SAPI    HS22141   6.290   1.925   2.421
  192SAPI   O2122142   6.441   1.782   2.393
  192SAPI   C2122143   6.534   1.877   2.395
  192SAPI   O2222144   6.516   2.000   2.398
  192SAPI   C2222145   6.671   1.819   2.387
  192SAPI   H2R22146   6.654   1.710   2.397
  192SAPI   H2S22147   6.709   1.854   2.288
  192SAPI    C322148   6.234   1.730   2.484
  192SAPI    HX22149   6.262   1.626   2.454
  192SAPI    HY22150   6.126   1.748   2.465
  192SAPI   O3122151   6.261   1.743   2.620
  192SAPI   C3122152   6.227   1.862   2.679
  192SAPI   O3222153   6.139   1.936   2.639
  192SAPI   C3222154   6.316   1.886   2.799
  192SAPI   H2X22155   6.408   1.936   2.760
  192SAPI   H2Y22156   6.348   1.788   2.839
  192SAPI   C2322157   6.760   1.860   2.501
  192SAPI   H3R22158   6.776   1.970   2.503
  192SAPI   H3S22159   6.856   1.807   2.484
  192SAPI   C2422160   6.705   1.820   2.643
  192SAPI   H4R22161   6.639   1.731   2.628
  192SAPI   H4S22162   6.636   1.902   2.673
  192SAPI   C2522163   6.811   1.805   2.750
  192SAPI   H5R22164   6.900   1.741   2.734
  192SAPI   C2622165   6.803   1.862   2.872
  192SAPI   H6R22166   6.893   1.861   2.934
  192SAPI   C2722167   6.689   1.944   2.929
  192SAPI   H7R22168   6.611   1.876   2.969
  192SAPI   H7S22169   6.642   2.007   2.851
  192SAPI   C2822170   6.745   2.033   3.034
  192SAPI   H8R22171   6.804   2.112   2.985
  192SAPI   C2922172   6.728   2.027   3.169
  192SAPI   H9R22173   6.784   2.098   3.233
  192SAPI  C21022174   6.662   1.919   3.247
  192SAPI  H10R22175   6.681   1.944   3.354
  192SAPI  H10S22176   6.713   1.822   3.227
  192SAPI  C21122177   6.515   1.899   3.220
  192SAPI  H11R22178   6.471   1.958   3.138
  192SAPI  C21222179   6.429   1.835   3.302
  192SAPI  H12R22180   6.320   1.839   3.288
  192SAPI  C21322181   6.471   1.762   3.430
  192SAPI  H13R22182   6.481   1.837   3.511
  192SAPI  H13S22183   6.568   1.710   3.414
  192SAPI  C21422184   6.381   1.648   3.468
  192SAPI  H14R22185   6.374   1.572   3.389
  192SAPI  C21522186   6.347   1.616   3.592
  192SAPI  H15R22187   6.277   1.530   3.594
  192SAPI  C21622188   6.383   1.689   3.717
  192SAPI  H16R22189   6.484   1.734   3.722
  192SAPI  H16S22190   6.374   1.629   3.810
  192SAPI  C21722191   6.288   1.808   3.752
  192SAPI  H17R22192   6.188   1.785   3.710
  192SAPI  H17S22193   6.326   1.887   3.684
  192SAPI  C21822194   6.284   1.862   3.893
  192SAPI  H18R22195   6.293   1.778   3.965
  192SAPI  H18S22196   6.188   1.910   3.921
  192SAPI  C21922197   6.402   1.957   3.914
  192SAPI  H19R22198   6.379   2.048   3.854
  192SAPI  H19S22199   6.497   1.910   3.882
  192SAPI  C22022200   6.425   2.014   4.054
  192SAPI  H20R22201   6.503   2.092   4.048
  192SAPI  H20S22202   6.454   1.934   4.126
  192SAPI  H20T22203   6.333   2.057   4.099
  192SAPI   C3322204   6.255   1.976   2.909
  192SAPI   H3X22205   6.187   2.049   2.860
  192SAPI   H3Y22206   6.329   2.037   2.964
  192SAPI   C3422207   6.166   1.906   3.008
  192SAPI   H4X22208   6.232   1.839   3.066
  192SAPI   H4Y22209   6.090   1.848   2.951
  192SAPI   C3522210   6.109   2.003   3.108
  192SAPI   H5X22211   6.053   2.091   3.069
  192SAPI   H5Y22212   6.183   2.052   3.175
  192SAPI   C3622213   5.997   1.954   3.206
  192SAPI   H6X22214   5.931   1.899   3.136
  192SAPI   H6Y22215   5.944   2.036   3.260
  192SAPI   C3722216   6.025   1.844   3.315
  192SAPI   H7X22217   6.095   1.770   3.271
  192SAPI   H7Y22218   5.928   1.794   3.334
  192SAPI   C3822219   6.085   1.904   3.447
  192SAPI   H8X22220   6.171   1.967   3.415
  192SAPI   H8Y22221   6.123   1.826   3.516
  192SAPI   C3922222   5.995   2.008   3.514
  192SAPI   H9X22223   5.897   1.956   3.505
  192SAPI   H9Y22224   5.984   2.106   3.464
  192SAPI  C31022225   6.024   2.022   3.663
  192SAPI  H10X22226   6.128   2.058   3.680
  192SAPI  H10Y22227   6.015   1.917   3.697
  192SAPI  C31122228   5.909   2.093   3.737
  192SAPI  H11X22229   5.826   2.019   3.731
  192SAPI  H11Y22230   5.870   2.180   3.679
  192SAPI  C31222231   5.946   2.137   3.880
  192SAPI  H12X22232   6.038   2.199   3.882
  192SAPI  H12Y22233   5.975   2.046   3.937
  192SAPI  C31322234   5.819   2.204   3.949
  192SAPI  H13X22235   5.752   2.121   3.981
  192SAPI  H13Y22236   5.758   2.278   3.894
  192SAPI  C31422237   5.877   2.265   4.081
  192SAPI  H14X22238   5.975   2.309   4.053
  192SAPI  H14Y22239   5.901   2.186   4.156
  192SAPI  C31522240   5.766   2.363   4.141
  192SAPI  H15X22241   5.681   2.301   4.175
  192SAPI  H15Y22242   5.724   2.428   4.062
  192SAPI  C31622243   5.832   2.447   4.252
  192SAPI  H16X22244   5.915   2.507   4.206
  192SAPI  H16Y22245   5.878   2.381   4.328
  192SAPI  C31722246   5.729   2.526   4.331
  192SAPI  H17X22247   5.788   2.587   4.402
  192SAPI  H17Y22248   5.667   2.446   4.378
  192SAPI  C31822249   5.639   2.622   4.255
  192SAPI  H18X22250   5.560   2.581   4.189
  192SAPI  H18Y22251   5.708   2.691   4.201
  192SAPI  H18Z22252   5.582   2.672   4.337
  193POT    POT22253   4.074   0.034   7.668
  194POT    POT22254   4.205   6.267   0.156
  195POT    POT22255   2.559   3.391   8.201
  196POT    POT22256   3.769   6.543   6.248
  197POT    POT22257   4.410   1.570   0.500
  198POT    POT22258   0.269   2.122   0.368
  199POT    POT22259   3.568   2.559   7.545
  200POT    POT22260   1.260   4.221   6.744
  201POT    POT22261   2.069   3.359   1.781
  202POT    POT22262   0.664   1.724   8.267
  203POT    POT22263   5.949   6.294   1.998
  204POT    POT22264   3.239   6.767   1.458
  205POT    POT22265   0.089   6.705   6.824
  206POT    POT22266   6.350   5.187   6.571
  207POT    POT22267   2.534   0.593   7.521
  208POT    POT22268   1.300   1.720   0.717
  209POT    POT22269   1.226   6.198   6.906
  210POT    POT22270   5.784   2.696   7.936
  211POT    POT22271   1.994   6.337   2.225
  212POT    POT22272   4.414   0.183   6.990
  213POT    POT22273   0.649   5.776   6.001
  214POT    POT22274   3.113   6.542   1.090
  215POT    POT22275   1.211   2.564   8.219
  216POT    POT22276   3.501   3.391   1.296
  217POT    POT22277   0.408   3.328   7.626
  218POT    POT22278   2.518   1.454   1.616
  219POT    POT22279   0.553   0.247   0.570
  220POT    POT22280   4.792   6.399   8.132
  221POT    POT22281   1.334   4.761   1.641
  222POT    POT22282   3.167   4.342   1.247
  223POT    POT22283   5.277   1.860   1.954
  224POT    POT22284   0.391   5.996   7.998
  225POT    POT22285   6.180   4.734   6.604
  226POT    POT22286   6.390   3.745   7.912
  227POT    POT22287   5.128   6.629   7.076
  228POT    POT22288   6.948   4.986   0.408
  229POT    POT22289   4.702   5.038   0.438
  230POT    POT22290   2.274   2.449   7.002
  231POT    POT22291   0.898   6.527   2.199
  232POT    POT22292   6.729   2.160   1.333
  233CLA    CLA22293   0.607   6.024   7.752
  234CLA    CLA22294   1.004   1.693   1.263
  235CLA    CLA22295   5.021   6.360   0.236
  236CLA    CLA22296   5.835   4.551   8.244
  237CLA    CLA22297   3.458   0.944   7.798
  238CLA    CLA22298   0.045   3.912   1.285
  239CLA    CLA22299   5.797   6.106   0.340
  240CLA    CLA22300   3.031   6.351   8.302
  241CLA    CLA22301   0.976   4.393   0.011
  242CLA    CLA22302   4.967   1.796   1.421
  243CLA    CLA22303   6.181   1.219   8.175
  244CLA    CLA22304   2.048   0.928   7.168
  245CLA    CLA22305   2.896   2.574   0.952
  246CLA    CLA22306   5.546   3.707   7.820
  247CLA    CLA22307   5.399   5.933   7.321
  248CLA    CLA22308   3.477   6.751   8.266
  249TIP3   OH222309   4.155   2.644   6.565
  249TIP3    H122310   4.202   2.580   6.511
  249TIP3    H222311   4.063   2.618   6.558
  250TIP3   OH222312   5.386   4.354   0.620
  250TIP3    H122313   5.363   4.407   0.696
  250TIP3    H222314   5.308   4.357   0.564
  251TIP3   OH222315   6.053   2.260   0.440
  251TIP3    H122316   6.113   2.194   0.473
  251TIP3    H222317   5.984   2.265   0.507
  252TIP3   OH222318   3.528   3.824   0.841
  252TIP3    H122319   3.609   3.802   0.796
  252TIP3    H222320   3.476   3.744   0.838
  253TIP3   OH222321   6.683   4.670   7.668
  253TIP3    H122322   6.654   4.621   7.745
  253TIP3    H222323   6.744   4.735   7.702
  254TIP3   OH222324   4.149   3.592   6.732
  254TIP3    H122325   4.057   3.580   6.711
  254TIP3    H222326   4.194   3.592   6.647
  255TIP3   OH222327   3.377   2.118   7.183
  255TIP3    H122328   3.299   2.173   7.178
  255TIP3    H222329   3.343   2.029   7.181
  256TIP3   OH222330   2.984   1.504   6.916
  256TIP3    H122331   2.943   1.478   6.833
  256TIP3    H222332   2.915   1.551   6.963
  257TIP3   OH222333   6.031   3.158   1.065
  257TIP3    H122334   5.958   3.140   1.005
  257TIP3    H222335   5.996   3.140   1.152
  258TIP3   OH222336   0.255   0.262   7.052
  258TIP3    H122337   0.294   0.178   7.028
  258TIP3    H222338   0.298   0.286   7.133
  259TIP3   OH222339   3.382   1.010   1.627
  259TIP3    H122340   3.353   0.987   1.716
  259TIP3    H222341   3.478   1.003   1.631
  260TIP3   OH222342   2.519   4.121   0.395
  260TIP3    H122343   2.586   4.153   0.455
  260TIP3    H222344   2.443   4.176   0.412
  261TIP3   OH222345   3.813   5.305   0.531
  261TIP3    H122346   3.787   5.288   0.441
  261TIP3    H222347   3.842   5.396   0.531
  262TIP3   OH222348   2.540   2.903   0.801
  262TIP3    H122349   2.586   2.905   0.884
  262TIP3    H222350   2.549   2.812   0.771
  263TIP3   OH222351   0.236   4.222   1.467
  263TIP3    H122352   0.328   4.195   1.463
  263TIP3    H222353   0.195   4.180   1.392
  264TIP3   OH222354   5.432   1.894   1.104
  264TIP3    H122355   5.401   1.958   1.040
  264TIP3    H222356   5.458   1.946   1.180
  265TIP3   OH222357   4.233   4.925   1.812
  265TIP3    H122358   4.138   4.933   1.812
  265TIP3    H222359   4.253   4.880   1.730
  266TIP3   OH222360   1.865   5.382   7.358
  266TIP3    H122361   1.925   5.452   7.329
  266TIP3    H222362   1.912   5.301   7.338
  267TIP3   OH222363   3.830   5.744   8.065
  267TIP3    H122364   3.767   5.799   8.020
  267TIP3    H222365   3.895   5.805   8.100
  268TIP3   OH222366   5.751   4.705   0.270
  268TIP3    H122367   5.748   4.712   0.365
  268TIP3    H222368   5.759   4.796   0.240
  269TIP3   OH222369   3.335   1.489   7.441
  269TIP3    H122370   3.361   1.404   7.404
  269TIP3    H222371   3.406   1.549   7.418
  270TIP3   OH222372   6.008   5.835   1.325
  270TIP3    H122373   5.978   5.826   1.415
  270TIP3    H222374   6.072   5.765   1.314
  271TIP3   OH222375   4.492   2.804   1.424
  271TIP3    H122376   4.468   2.897   1.424
  271TIP3    H222377   4.581   2.803   1.388
  272TIP3   OH222378   6.313   2.237   1.530
  272TIP3    H122379   6.340   2.150   1.501
  272TIP3    H222380   6.266   2.221   1.612
  273TIP3   OH222381   1.683   1.321   8.310
  273TIP3    H122382   1.681   1.254   8.379
  273TIP3    H222383   1.772   1.357   8.314
  274TIP3   OH222384   6.919   0.967   0.530
  274TIP3    H122385   6.997   1.018   0.508
  274TIP3    H222386   6.873   0.956   0.446
  275TIP3   OH222387   4.836   2.450   6.791
  275TIP3    H122388   4.830   2.495   6.707
  275TIP3    H222389   4.850   2.358   6.767
  276TIP3   OH222390   3.892   4.501   1.045
  276TIP3    H122391   3.914   4.491   0.952
  276TIP3    H222392   3.904   4.414   1.082
  277TIP3   OH222393   2.472   0.759   0.413
  277TIP3    H122394   2.525   0.680   0.398
  277TIP3    H222395   2.534   0.831   0.405
  278TIP3   OH222396   3.746   5.620   7.330
  278TIP3    H122397   3.771   5.528   7.318
  278TIP3    H222398   3.705   5.622   7.417
  279TIP3   OH222399   2.166   3.371   7.143
  279TIP3    H122400   2.103   3.443   7.149
  279TIP3    H222401   2.212   3.385   7.061
  280TIP3   OH222402   4.992   6.671   0.898
  280TIP3    H122403   4.916   6.617   0.876
  280TIP3    H222404   4.993   6.674   0.993
  281TIP3   OH222405   0.074   4.257   6.635
  281TIP3    H122406  -0.015   4.220   6.637
  281TIP3    H222407   0.067   4.332   6.576
  282TIP3   OH222408   4.059   5.009   6.413
  282TIP3    H122409   4.069   4.918   6.441
  282TIP3    H222410   4.109   5.059   6.479
  283TIP3   OH222411   2.689   5.508   8.010
  283TIP3    H122412   2.610   5.559   7.992
  283TIP3    H222413   2.743   5.566   8.064
  284TIP3   OH222414   1.877   0.791   0.779
  284TIP3    H122415   1.960   0.751   0.805
  284TIP3    H222416   1.846   0.737   0.706
  285TIP3   OH222417   2.533   3.343   1.584
  285TIP3    H122418   2.463   3.307   1.638
  285TIP3    H222419   2.597   3.376   1.647
  286TIP3   OH222420   1.321   3.937   7.781
  286TIP3    H122421   1.283   3.905   7.698
  286TIP3    H222422   1.346   3.857   7.827
  287TIP3   OH222423   4.086   0.571   6.590
  287TIP3    H122424   4.137   0.637   6.636
  287TIP3    H222425   4.150   0.509   6.556
  288TIP3   OH222426   1.777   5.929   6.656
  288TIP3    H122427   1.701   5.967   6.701
  288TIP3    H222428   1.783   5.977   6.574
  289TIP3   OH222429   4.664   4.710   7.141
  289TIP3    H122430   4.591   4.736   7.085
  289TIP3    H222431   4.637   4.734   7.230
  290TIP3   OH222432   6.314   4.806   6.376
  290TIP3    H122433   6.316   4.817   6.281
  290TIP3    H222434   6.406   4.800   6.401
  291TIP3   OH222435   1.880   0.770   8.281
  291TIP3    H122436   1.807   0.829   8.264
  291TIP3    H222437   1.884   0.714   8.204
  292TIP3   OH222438   4.823   6.432   1.239
  292TIP3    H122439   4.772   6.369   1.291
  292TIP3    H222440   4.906   6.387   1.223
  293TIP3   OH222441   3.218   3.931   0.964
  293TIP3    H122442   3.312   3.933   0.984
  293TIP3    H222443   3.177   3.965   1.043
  294TIP3   OH222444   1.576   6.119   6.517
  294TIP3    H122445   1.634   6.115   6.441
  294TIP3    H222446   1.492   6.150   6.481
  295TIP3   OH222447   4.223   6.040   1.093
  295TIP3    H122448   4.293   6.016   1.155
  295TIP3    H222449   4.243   6.131   1.070
  296TIP3   OH222450   1.149   0.200   0.467
  296TIP3    H122451   1.073   0.142   0.468
  296TIP3    H222452   1.208   0.161   0.402
  297TIP3   OH222453   2.349   1.999   7.614
  297TIP3    H122454   2.405   1.924   7.597
  297TIP3    H222455   2.260   1.966   7.596
  298TIP3   OH222456   2.211   3.152   2.187
  298TIP3    H122457   2.260   3.176   2.266
  298TIP3    H222458   2.122   3.139   2.218
  299TIP3   OH222459   2.995   5.678   6.987
  299TIP3    H122460   3.068   5.616   6.986
  299TIP3    H222461   2.987   5.704   7.079
  300TIP3   OH222462   0.655   0.883   6.604
  300TIP3    H122463   0.724   0.878   6.539
  300TIP3    H222464   0.594   0.948   6.570
  301TIP3   OH222465   2.273   6.196   0.908
  301TIP3    H122466   2.280   6.230   0.819
  301TIP3    H222467   2.246   6.273   0.960
  302TIP3   OH222468   5.749   5.447   1.271
  302TIP3    H122469   5.775   5.450   1.363
  302TIP3    H222470   5.831   5.441   1.223
  303TIP3   OH222471   4.519   2.222   6.739
  303TIP3    H122472   4.451   2.154   6.746
  303TIP3    H222473   4.584   2.185   6.679
  304TIP3   OH222474   4.471   4.172   6.979
  304TIP3    H122475   4.489   4.263   6.957
  304TIP3    H222476   4.535   4.122   6.929
  305TIP3   OH222477   5.301   6.263   2.053
  305TIP3    H122478   5.291   6.245   1.960
  305TIP3    H222479   5.383   6.220   2.077
  306TIP3   OH222480   6.191   1.535   0.542
  306TIP3    H122481   6.195   1.461   0.603
  306TIP3    H222482   6.255   1.515   0.474
  307TIP3   OH222483   6.584   5.929   7.439
  307TIP3    H122484   6.627   5.994   7.384
  307TIP3    H222485   6.498   5.917   7.401
  308TIP3   OH222486   4.337   1.335   8.350
  308TIP3    H122487   4.298   1.249   8.366
  308TIP3    H222488   4.375   1.328   8.262
  309TIP3   OH222489   6.409   1.320   7.785
  309TIP3    H122490   6.317   1.314   7.760
  309TIP3    H222491   6.458   1.313   7.703
  310TIP3   OH222492   3.171   6.998   6.965
  310TIP3    H122493   3.231   6.929   6.995
  310TIP3    H222494   3.213   7.080   6.992
  311TIP3   OH222495   3.242   3.606   6.748
  311TIP3    H122496   3.232   3.700   6.762
  311TIP3    H222497   3.306   3.599   6.677
  312TIP3   OH222498   1.223   3.806   6.166
  312TIP3    H122499   1.157   3.811   6.236
  312TIP3    H222500   1.282   3.880   6.185
  313TIP3   OH222501   4.487   4.116   0.991
  313TIP3    H122502   4.524   4.204   0.995
  313TIP3    H222503   4.533   4.073   0.919
  314TIP3   OH222504   5.276   1.919   6.355
  314TIP3    H122505   5.258   2.010   6.377
  314TIP3    H222506   5.209   1.896   6.290
  315TIP3   OH222507   2.378   4.637   6.714
  315TIP3    H122508   2.312   4.661   6.650
  315TIP3    H222509   2.367   4.542   6.726
  316TIP3   OH222510   6.118   3.688   8.385
  316TIP3    H122511   6.095   3.727   8.300
  316TIP3    H222512   6.050   3.621   8.399
  317TIP3   OH222513   1.830   2.109   7.340
  317TIP3    H122514   1.834   2.114   7.244
  317TIP3    H222515   1.918   2.132   7.369
  318TIP3   OH222516   5.196   1.135   7.582
  318TIP3    H122517   5.271   1.171   7.629
  318TIP3    H222518   5.223   1.047   7.558
  319TIP3   OH222519   0.954   3.643   1.322
  319TIP3    H122520   0.860   3.649   1.302
  319TIP3    H222521   0.996   3.642   1.236
  320TIP3   OH222522   0.731   4.648   6.330
  320TIP3    H122523   0.688   4.702   6.264
  320TIP3    H222524   0.732   4.560   6.292
  321TIP3   OH222525   2.195   5.760   1.063
  321TIP3    H122526   2.178   5.708   1.142
  321TIP3    H222527   2.151   5.712   0.993
  322TIP3   OH222528   6.956   4.461   1.610
  322TIP3    H122529   6.953   4.366   1.595
  322TIP3    H222530   6.875   4.481   1.656
  323TIP3   OH222531   3.800   2.157   7.923
  323TIP3    H122532   3.803   2.239   7.873
  323TIP3    H222533   3.716   2.119   7.902
  324TIP3   OH222534   6.724   4.023   6.391
  324TIP3    H122535   6.646   4.078   6.385
  324TIP3    H222536   6.721   3.989   6.481
  325TIP3   OH222537   1.351   6.722   8.093
  325TIP3    H122538   1.423   6.690   8.039
  325TIP3    H222539   1.286   6.753   8.030
  326TIP3   OH222540   6.163   1.051   0.628
  326TIP3    H122541   6.102   1.003   0.684
  326TIP3    H222542   6.249   1.034   0.667
  327TIP3   OH222543   2.034   0.596   7.713
  327TIP3    H122544   2.095   0.666   7.693
  327TIP3    H222545   2.047   0.578   7.806
  328TIP3   OH222546   6.369   3.192   2.415
  328TIP3    H122547   6.280   3.157   2.411
  328TIP3    H222548   6.363   3.276   2.369
  329TIP3   OH222549   2.965   4.029   7.859
  329TIP3    H122550   3.060   4.038   7.868
  329TIP3    H222551   2.948   4.047   7.767
  330TIP3   OH222552   5.966   5.729   0.222
  330TIP3    H122553   5.873   5.703   0.227
  330TIP3    H222554   6.009   5.674   0.288
  331TIP3   OH222555   0.965   3.130   0.637
  331TIP3    H122556   0.895   3.111   0.699
  331TIP3    H222557   1.022   3.192   0.682
  332TIP3   OH222558   3.778   3.778   0.738
  332TIP3    H122559   3.772   3.873   0.749
  332TIP3    H222560   3.837   3.766   0.664
  333TIP3   OH222561   6.971   3.226   7.891
  333TIP3    H122562   6.943   3.172   7.965
  333TIP3    H222563   6.892   3.273   7.864
  334TIP3   OH222564   0.322   5.660   6.938
  334TIP3    H122565   0.332   5.578   6.988
  334TIP3    H222566   0.234   5.690   6.960
  335TIP3   OH222567   2.540   1.371   6.140
  335TIP3    H122568   2.496   1.363   6.225
  335TIP3    H222569   2.630   1.395   6.161
  336TIP3   OH222570   0.729   3.672   0.267
  336TIP3    H122571   0.739   3.577   0.276
  336TIP3    H222572   0.819   3.705   0.260
  337TIP3   OH222573   4.246   5.735   0.707
  337TIP3    H122574   4.176   5.776   0.759
  337TIP3    H222575   4.325   5.781   0.734
  338TIP3   OH222576   2.991   5.325   0.028
  338TIP3    H122577   2.997   5.230   0.024
  338TIP3    H222578   2.898   5.344   0.016
  339TIP3   OH222579   0.828   4.014   7.979
  339TIP3    H122580   0.919   4.039   7.966
  339TIP3    H222581   0.810   4.034   8.071
  340TIP3   OH222582   5.659   1.209   1.473
  340TIP3    H122583   5.620   1.250   1.551
  340TIP3    H222584   5.710   1.279   1.433
  341TIP3   OH222585   2.403   2.602   8.336
  341TIP3    H122586   2.476   2.647   8.295
  341TIP3    H222587   2.343   2.672   8.363
  342TIP3   OH222588   3.692   2.429   2.319
  342TIP3    H122589   3.698   2.337   2.345
  342TIP3    H222590   3.624   2.430   2.252
  343TIP3   OH222591   5.763   6.944   6.844
  343TIP3    H122592   5.669   6.946   6.830
  343TIP3    H222593   5.793   6.865   6.798
  344TIP3   OH222594   6.395   3.520   1.426
  344TIP3    H122595   6.433   3.480   1.504
  344TIP3    H222596   6.339   3.451   1.389
  345TIP3   OH222597   2.135   2.484   1.640
  345TIP3    H122598   2.087   2.522   1.567
  345TIP3    H222599   2.131   2.549   1.709
  346TIP3   OH222600   5.672   2.893   8.328
  346TIP3    H122601   5.652   2.984   8.306
  346TIP3    H222602   5.762   2.881   8.296
  347TIP3   OH222603   5.072   6.620   1.732
  347TIP3    H122604   5.149   6.676   1.720
  347TIP3    H222605   5.097   6.558   1.801
  348TIP3   OH222606   6.990   6.645   2.023
  348TIP3    H122607   7.021   6.555   2.035
  348TIP3    H222608   6.898   6.642   2.051
  349TIP3   OH222609   0.543   6.054   7.210
  349TIP3    H122610   0.451   6.029   7.219
  349TIP3    H222611   0.564   6.097   7.293
  350TIP3   OH222612   1.042   5.328   7.890
  350TIP3    H122613   1.106   5.347   7.958
  350TIP3    H222614   1.075   5.373   7.812
  351TIP3   OH222615   6.173   2.146   6.145
  351TIP3    H122616   6.255   2.096   6.148
  351TIP3    H222617   6.126   2.110   6.070
  352TIP3   OH222618   5.620   6.482   7.290
  352TIP3    H122619   5.609   6.573   7.315
  352TIP3    H222620   5.708   6.478   7.252
  353TIP3   OH222621   2.782   6.136   0.359
  353TIP3    H122622   2.718   6.175   0.419
  353TIP3    H222623   2.847   6.205   0.345
  354TIP3   OH222624   6.591   5.936   0.449
  354TIP3    H122625   6.498   5.915   0.441
  354TIP3    H222626   6.631   5.854   0.479
  355TIP3   OH222627   1.835   2.733   1.638
  355TIP3    H122628   1.902   2.802   1.648
  355TIP3    H222629   1.823   2.726   1.543
  356TIP3   OH222630   6.431   0.223   0.307
  356TIP3    H122631   6.519   0.213   0.271
  356TIP3    H222632   6.373   0.203   0.234
  357TIP3   OH222633   6.131   2.620   6.497
  357TIP3    H122634   6.227   2.621   6.496
  357TIP3    H222635   6.107   2.676   6.571
  358TIP3   OH222636   6.838   3.957   7.173
  358TIP3    H122637   6.849   3.991   7.261
  358TIP3    H222638   6.875   3.869   7.176
  359TIP3   OH222639   0.505   5.202   6.935
  359TIP3    H122640   0.562   5.166   6.867
  359TIP3    H222641   0.549   5.180   7.017
  360TIP3   OH222642   0.118   2.409   1.785
  360TIP3    H122643   0.028   2.437   1.767
  360TIP3    H222644   0.153   2.475   1.843
  361TIP3   OH222645   3.041   5.027   1.038
  361TIP3    H122646   2.997   5.061   0.960
  361TIP3    H222647   3.121   5.078   1.045
  362TIP3   OH222648   3.805   5.469   8.091
  362TIP3    H122649   3.837   5.559   8.087
  362TIP3    H222650   3.753   5.458   8.012
  363TIP3   OH222651   3.839   6.247   6.579
  363TIP3    H122652   3.806   6.322   6.529
  363TIP3    H222653   3.829   6.172   6.521
  364TIP3   OH222654   4.456   6.698   1.493
  364TIP3    H122655   4.513   6.639   1.543
  364TIP3    H222656   4.514   6.737   1.428
  365TIP3   OH222657   1.135   0.217   7.556
  365TIP3    H122658   1.191   0.294   7.560
  365TIP3    H222659   1.195   0.143   7.569
  366TIP3   OH222660   2.603   0.122   7.933
  366TIP3    H122661   2.582   0.029   7.920
  366TIP3    H222662   2.614   0.131   8.028
  367TIP3   OH222663   0.784   0.175   8.056
  367TIP3    H122664   0.771   0.112   8.128
  367TIP3    H222665   0.724   0.145   7.988
  368TIP3   OH222666   1.019   3.685   7.072
  368TIP3    H122667   1.038   3.756   7.011
  368TIP3    H222668   0.975   3.727   7.146
  369TIP3   OH222669   4.157   3.250   7.726
  369TIP3    H122670   4.152   3.334   7.681
  369TIP3    H222671   4.071   3.210   7.712
  370TIP3   OH222672   4.779   2.598   6.583
  370TIP3    H122673   4.851   2.645   6.539
  370TIP3    H222674   4.702   2.618   6.529
  371TIP3   OH222675   4.386   5.457   2.190
  371TIP3    H122676   4.433   5.523   2.139
  371TIP3    H222677   4.421   5.465   2.278
  372TIP3   OH222678   4.215   0.102   7.199
  372TIP3    H122679   4.154   0.176   7.199
  372TIP3    H222680   4.161   0.026   7.177
  373TIP3   OH222681   5.561   2.577   6.967
  373TIP3    H122682   5.488   2.624   7.005
  373TIP3    H222683   5.637   2.634   6.980
  374TIP3   OH222684   5.239   6.608   0.214
  374TIP3    H122685   5.297   6.576   0.283
  374TIP3    H222686   5.161   6.552   0.221
  375TIP3   OH222687   4.030   5.190   7.678
  375TIP3    H122688   4.043   5.158   7.767
  375TIP3    H222689   3.941   5.162   7.656
  376TIP3   OH222690   1.142   2.888   1.797
  376TIP3    H122691   1.137   2.812   1.855
  376TIP3    H222692   1.060   2.935   1.812
  377TIP3   OH222693   0.162   0.978   1.247
  377TIP3    H122694   0.250   0.941   1.258
  377TIP3    H222695   0.177   1.064   1.209
  378TIP3   OH222696   1.766   1.877   7.454
  378TIP3    H122697   1.672   1.862   7.449
  378TIP3    H222698   1.781   1.957   7.403
  379TIP3   OH222699   5.819   6.324   8.323
  379TIP3    H122700   5.808   6.239   8.282
  379TIP3    H222701   5.730   6.359   8.331
  380TIP3   OH222702   0.205   0.678   7.361
  380TIP3    H122703   0.242   0.755   7.405
  380TIP3    H222704   0.200   0.612   7.430
  381TIP3   OH222705   3.849   1.360   6.063
  381TIP3    H122706   3.872   1.268   6.050
  381TIP3    H222707   3.754   1.362   6.056
  382TIP3   OH222708   2.469   3.723   2.058
  382TIP3    H122709   2.525   3.763   2.123
  382TIP3    H222710   2.462   3.632   2.085
  383TIP3   OH222711   2.055   0.522   0.422
  383TIP3    H122712   2.092   0.556   0.341
  383TIP3    H222713   2.063   0.595   0.484
  384TIP3   OH222714   3.536   2.852   0.729
  384TIP3    H122715   3.531   2.948   0.724
  384TIP3    H222716   3.622   2.831   0.691
  385TIP3   OH222717   0.310   4.286   6.783
  385TIP3    H122718   0.343   4.315   6.868
  385TIP3    H222719   0.216   4.307   6.786
  386TIP3   OH222720   5.673   5.779   8.174
  386TIP3    H122721   5.642   5.689   8.177
  386TIP3    H222722   5.742   5.779   8.107
  387TIP3   OH222723   5.249   4.456   7.539
  387TIP3    H122724   5.178   4.482   7.597
  387TIP3    H222725   5.321   4.433   7.598
  388TIP3   OH222726   4.243   3.395   8.018
  388TIP3    H122727   4.237   3.489   8.001
  388TIP3    H222728   4.336   3.375   8.012
  389TIP3   OH222729   6.062   5.207   6.227
  389TIP3    H122730   6.139   5.230   6.175
  389TIP3    H222731   5.995   5.185   6.163
  390TIP3   OH222732   0.835   1.179   6.641
  390TIP3    H122733   0.770   1.191   6.572
  390TIP3    H222734   0.915   1.220   6.607
  391TIP3   OH222735   1.409   3.540   6.983
  391TIP3    H122736   1.486   3.553   7.038
  391TIP3    H222737   1.350   3.487   7.036
  392TIP3   OH222738   6.883   1.860   6.528
  392TIP3    H122739   6.935   1.916   6.469
  392TIP3    H222740   6.844   1.795   6.470
  393TIP3   OH222741   0.451   2.996   1.508
  393TIP3    H122742   0.522   3.043   1.551
  393TIP3    H222743   0.419   2.934   1.574
  394TIP3   OH222744   4.372   5.445   7.583
  394TIP3    H122745   4.412   5.507   7.523
  394TIP3    H222746   4.283   5.434   7.551
  395TIP3   OH222747   5.303   5.937   1.136
  395TIP3    H122748   5.225   5.959   1.085
  395TIP3    H222749   5.362   5.894   1.074
  396TIP3   OH222750   0.359   6.417   7.407
  396TIP3    H122751   0.267   6.389   7.403
  396TIP3    H222752   0.361   6.499   7.358
  397TIP3   OH222753   5.316   0.736   0.143
  397TIP3    H122754   5.255   0.663   0.130
  397TIP3    H222755   5.396   0.695   0.177
  398TIP3   OH222756   2.333   5.324   0.752
  398TIP3    H122757   2.351   5.280   0.669
  398TIP3    H222758   2.243   5.299   0.773
  399TIP3   OH222759   5.460   3.444   7.095
  399TIP3    H122760   5.486   3.403   7.177
  399TIP3    H222761   5.503   3.392   7.026
  400TIP3   OH222762   5.858   1.144   1.928
  400TIP3    H122763   5.940   1.125   1.883
  400TIP3    H222764   5.880   1.139   2.021
  401TIP3   OH222765   6.057   5.561   0.780
  401TIP3    H122766   6.005   5.513   0.845
  401TIP3    H222767   6.137   5.586   0.827
  402TIP3   OH222768   5.514   6.645   0.122
  402TIP3    H122769   5.463   6.692   0.187
  402TIP3    H222770   5.604   6.647   0.156
  403TIP3   OH222771   0.334   4.881   7.447
  403TIP3    H122772   0.401   4.893   7.380
  403TIP3    H222773   0.380   4.897   7.529
  404TIP3   OH222774   4.990   5.306   7.548
  404TIP3    H122775   5.025   5.393   7.566
  404TIP3    H222776   4.899   5.322   7.521
  405TIP3   OH222777   0.969   4.418   6.918
  405TIP3    H122778   1.033   4.409   6.847
  405TIP3    H222779   0.983   4.507   6.951
  406TIP3   OH222780   3.938   5.746   1.314
  406TIP3    H122781   3.930   5.745   1.409
  406TIP3    H222782   4.032   5.748   1.298
  407TIP3   OH222783   0.093   1.664   0.299
  407TIP3    H122784   0.019   1.613   0.267
  407TIP3    H222785   0.094   1.649   0.394
  408TIP3   OH222786   0.035   6.262   6.974
  408TIP3    H122787   0.105   6.307   7.022
  408TIP3    H222788   0.081   6.208   6.910
  409TIP3   OH222789   4.078   5.112   6.866
  409TIP3    H122790   4.031   5.047   6.918
  409TIP3    H222791   4.040   5.196   6.892
  410TIP3   OH222792   4.307   2.899   2.370
  410TIP3    H122793   4.321   2.807   2.350
  410TIP3    H222794   4.372   2.945   2.316
  411TIP3   OH222795   0.514   2.275   1.248
  411TIP3    H122796   0.522   2.188   1.285
  411TIP3    H222797   0.448   2.318   1.303
  412TIP3   OH222798   4.574   2.057   7.265
  412TIP3    H122799   4.613   2.085   7.182
  412TIP3    H222800   4.489   2.102   7.268
  413TIP3   OH222801   5.485   5.365   1.499
  413TIP3    H122802   5.441   5.318   1.429
  413TIP3    H222803   5.578   5.342   1.488
  414TIP3   OH222804   3.915   4.636   7.304
  414TIP3    H122805   3.940   4.547   7.328
  414TIP3    H222806   3.822   4.641   7.325
  415TIP3   OH222807   4.301   2.578   0.293
  415TIP3    H122808   4.217   2.534   0.308
  415TIP3    H222809   4.366   2.509   0.304
  416TIP3   OH222810   3.916   4.640   1.737
  416TIP3    H122811   3.825   4.670   1.739
  416TIP3    H222812   3.916   4.570   1.672
  417TIP3   OH222813   5.157   1.423   6.890
  417TIP3    H122814   5.142   1.391   6.801
  417TIP3    H222815   5.094   1.376   6.944
  418TIP3   OH222816   5.914   1.682   1.027
  418TIP3    H122817   5.997   1.701   1.071
  418TIP3    H222818   5.939   1.637   0.947
  419TIP3   OH222819   3.409   3.008   1.637
  419TIP3    H122820   3.480   2.976   1.693
  419TIP3    H222821   3.454   3.059   1.569
  420TIP3   OH222822   0.030   0.800   0.188
  420TIP3    H122823   0.095   0.732   0.171
  420TIP3    H222824   0.076   0.865   0.241
  421TIP3   OH222825   0.690   5.631   2.022
  421TIP3    H122826   0.784   5.648   2.015
  421TIP3    H222827   0.663   5.681   2.099
  422TIP3   OH222828   6.309   2.981   1.901
  422TIP3    H122829   6.399   3.009   1.885
  422TIP3    H222830   6.272   2.967   1.814
  423TIP3   OH222831   0.050   0.550   8.260
  423TIP3    H122832   0.114   0.498   8.210
  423TIP3    H222833   0.097   0.575   8.339
  424TIP3   OH222834   0.183   0.656   6.839
  424TIP3    H122835   0.255   0.594   6.856
  424TIP3    H222836   0.205   0.696   6.755
  425TIP3   OH222837   5.133   3.353   1.918
  425TIP3    H122838   5.133   3.414   1.992
  425TIP3    H222839   5.105   3.269   1.956
  426TIP3   OH222840   4.964   3.378   8.051
  426TIP3    H122841   5.052   3.416   8.056
  426TIP3    H222842   4.959   3.341   7.963
  427TIP3   OH222843   6.654   5.747   7.616
  427TIP3    H122844   6.637   5.791   7.533
  427TIP3    H222845   6.577   5.693   7.631
  428TIP3   OH222846   6.855   6.797   1.240
  428TIP3    H122847   6.854   6.796   1.336
  428TIP3    H222848   6.896   6.880   1.218
  429TIP3   OH222849   2.001   1.947   0.303
  429TIP3    H122850   1.985   1.873   0.361
  429TIP3    H222851   1.934   1.941   0.235
  430TIP3   OH222852   3.838   2.070   0.483
  430TIP3    H122853   3.806   2.000   0.540
  430TIP3    H222854   3.805   2.151   0.523
  431TIP3   OH222855   3.665   2.593   8.255
  431TIP3    H122856   3.635   2.529   8.319
  431TIP3    H222857   3.759   2.578   8.248
  432TIP3   OH222858   6.051   4.859   0.035
  432TIP3    H122859   6.133   4.813   0.019
  432TIP3    H222860   6.028   4.836   0.125
  433TIP3   OH222861   5.982   0.913   0.772
  433TIP3    H122862   5.906   0.932   0.828
  433TIP3    H222863   5.992   0.818   0.777
  434TIP3   OH222864   5.881   4.316   6.321
  434TIP3    H122865   5.851   4.335   6.232
  434TIP3    H222866   5.801   4.316   6.374
  435TIP3   OH222867   0.635   2.980   0.563
  435TIP3    H122868   0.629   2.935   0.479
  435TIP3    H222869   0.671   3.066   0.541
  436TIP3   OH222870   1.203   5.418   6.898
  436TIP3    H122871   1.156   5.499   6.878
  436TIP3    H222872   1.227   5.427   6.991
  437TIP3   OH222873   4.050   2.498   1.595
  437TIP3    H122874   4.001   2.445   1.658
  437TIP3    H222875   4.141   2.467   1.603
  438TIP3   OH222876   2.736   2.260   0.504
  438TIP3    H122877   2.806   2.243   0.568
  438TIP3    H222878   2.746   2.353   0.482
  439TIP3   OH222879   0.508   4.458   1.310
  439TIP3    H122880   0.592   4.414   1.320
  439TIP3    H222881   0.454   4.398   1.259
  440TIP3   OH222882   4.288   1.651   0.052
  440TIP3    H122883   4.269   1.690  -0.034
  440TIP3    H222884   4.381   1.667   0.065
  441TIP3   OH222885   5.400   6.239   1.547
  441TIP3    H122886   5.349   6.293   1.487
  441TIP3    H222887   5.430   6.165   1.494
  442TIP3   OH222888   5.848   3.532   0.771
  442TIP3    H122889   5.866   3.440   0.790
  442TIP3    H222890   5.895   3.550   0.690
  443TIP3   OH222891   4.968   5.362   8.211
  443TIP3    H122892   4.936   5.316   8.133
  443TIP3    H222893   4.912   5.439   8.218
  444TIP3   OH222894   5.207   0.338   7.267
  444TIP3    H122895   5.214   0.381   7.181
  444TIP3    H222896   5.137   0.386   7.311
  445TIP3   OH222897   6.540   6.249   1.792
  445TIP3    H122898   6.447   6.225   1.793
  445TIP3    H222899   6.586   6.166   1.805
  446TIP3   OH222900   2.928   5.488   7.362
  446TIP3    H122901   2.876   5.482   7.442
  446TIP3    H222902   3.005   5.434   7.379
  447TIP3   OH222903   5.091   2.190   6.820
  447TIP3    H122904   5.139   2.267   6.850
  447TIP3    H222905   5.028   2.223   6.757
  448TIP3   OH222906   2.684   2.368   7.342
  448TIP3    H122907   2.707   2.432   7.275
  448TIP3    H222908   2.590   2.355   7.331
  449TIP3   OH222909   3.205   1.554   1.462
  449TIP3    H122910   3.144   1.596   1.523
  449TIP3    H222911   3.287   1.549   1.510
  450TIP3   OH222912   3.359   1.858   1.449
  450TIP3    H122913   3.273   1.899   1.453
  450TIP3    H222914   3.372   1.822   1.536
  451TIP3   OH222915   0.702   4.899   6.157
  451TIP3    H122916   0.637   4.857   6.100
  451TIP3    H222917   0.783   4.896   6.107
  452TIP3   OH222918   1.396   0.789   6.942
  452TIP3    H122919   1.368   0.855   7.005
  452TIP3    H222920   1.359   0.707   6.975
  453TIP3   OH222921   3.285   1.989   0.774
  453TIP3    H122922   3.237   2.069   0.754
  453TIP3    H222923   3.248   1.959   0.858
  454TIP3   OH222924   1.350   6.757   7.486
  454TIP3    H122925   1.260   6.746   7.516
  454TIP3    H222926   1.345   6.756   7.391
  455TIP3   OH222927   2.258   0.707   1.819
  455TIP3    H122928   2.319   0.633   1.817
  455TIP3    H222929   2.172   0.667   1.812
  456TIP3   OH222930   4.045   0.642   7.582
  456TIP3    H122931   4.047   0.714   7.645
  456TIP3    H222932   3.985   0.673   7.513
  457TIP3   OH222933   5.863   1.538   7.776
  457TIP3    H122934   5.779   1.567   7.812
  457TIP3    H222935   5.904   1.490   7.848
  458TIP3   OH222936   0.842   2.275   2.514
  458TIP3    H122937   0.750   2.274   2.485
  458TIP3    H222938   0.852   2.360   2.556
  459TIP3   OH222939   3.129   1.876   7.467
  459TIP3    H122940   3.141   1.850   7.376
  459TIP3    H222941   3.171   1.806   7.518
  460TIP3   OH222942   5.824   1.822   8.005
  460TIP3    H122943   5.826   1.872   8.087
  460TIP3    H222944   5.731   1.812   7.985
  461TIP3   OH222945   3.804   6.973   7.625
  461TIP3    H122946   3.741   6.901   7.628
  461TIP3    H222947   3.774   7.034   7.692
  462TIP3   OH222948   2.077   6.406   7.472
  462TIP3    H122949   2.134   6.358   7.531
  462TIP3    H222950   2.103   6.378   7.384
  463TIP3   OH222951   4.624   4.964   0.001
  463TIP3    H122952   4.702   4.908  -0.007
  463TIP3    H222953   4.551   4.902  -0.001
  464TIP3   OH222954   3.127   1.111   0.385
  464TIP3    H122955   3.070   1.079   0.314
  464TIP3    H222956   3.175   1.184   0.346
  465TIP3   OH222957   5.458   3.834   1.624
  465TIP3    H122958   5.539   3.841   1.573
  465TIP3    H222959   5.468   3.901   1.692
  466TIP3   OH222960   4.261   3.810   1.150
  466TIP3    H122961   4.232   3.893   1.111
  466TIP3    H222962   4.352   3.825   1.173
  467TIP3   OH222963   0.246   6.691   8.132
  467TIP3    H122964   0.156   6.667   8.152
  467TIP3    H222965   0.291   6.687   8.217
  468TIP3   OH222966   5.859   5.131   7.396
  468TIP3    H122967   5.870   5.042   7.363
  468TIP3    H222968   5.804   5.122   7.474
  469TIP3   OH222969   2.046   6.221   1.217
  469TIP3    H122970   2.082   6.225   1.128
  469TIP3    H222971   1.952   6.228   1.206
  470TIP3   OH222972   6.845   6.065   7.036
  470TIP3    H122973   6.891   6.137   6.994
  470TIP3    H222974   6.800   6.020   6.964
  471TIP3   OH222975   2.126   0.855   8.187
  471TIP3    H122976   2.175   0.898   8.258
  471TIP3    H222977   2.047   0.822   8.229
  472TIP3   OH222978   6.591   4.690   6.116
  472TIP3    H122979   6.546   4.646   6.044
  472TIP3    H222980   6.665   4.633   6.137
  473TIP3   OH222981   6.824   0.429   1.682
  473TIP3    H122982   6.822   0.423   1.586
  473TIP3    H222983   6.737   0.459   1.706
  474TIP3   OH222984   0.716   6.945   6.840
  474TIP3    H122985   0.660   6.878   6.800
  474TIP3    H222986   0.752   6.993   6.766
  475TIP3   OH222987   3.910   5.079   6.183
  475TIP3    H122988   3.911   5.174   6.196
  475TIP3    H222989   3.962   5.045   6.256
  476TIP3   OH222990   2.073   2.332   6.266
  476TIP3    H122991   2.007   2.304   6.329
  476TIP3    H222992   2.055   2.281   6.187
  477TIP3   OH222993   2.316   1.059   0.269
  477TIP3    H122994   2.392   1.082   0.323
  477TIP3    H222995   2.277   0.983   0.313
  478TIP3   OH222996   6.563   0.013   1.682
  478TIP3    H122997   6.600   0.100   1.691
  478TIP3    H222998   6.522   0.013   1.596
  479TIP3   OH222999   5.907   3.573   7.059
  479TIP3    H123000   5.919   3.625   7.139
  479TIP3    H223001   5.991   3.528   7.047
  480TIP3   OH223002   5.181   5.942   7.094
  480TIP3    H123003   5.248   5.985   7.147
  480TIP3    H223004   5.180   5.852   7.125
  481TIP3   OH223005   5.784   6.464   6.539
  481TIP3    H123006   5.831   6.381   6.548
  481TIP3    H223007   5.704   6.441   6.491
  482TIP3   OH223008   6.279   2.823   0.010
  482TIP3    H123009   6.273   2.741   0.059
  482TIP3    H223010   6.274   2.795  -0.082
  483TIP3   OH223011   3.559   1.332   1.779
  483TIP3    H123012   3.596   1.264   1.724
  483TIP3    H223013   3.635   1.378   1.814
  484TIP3   OH223014   4.200   3.674   7.976
  484TIP3    H123015   4.223   3.753   7.928
  484TIP3    H223016   4.125   3.699   8.031
  485TIP3   OH223017   1.283   1.521   6.106
  485TIP3    H123018   1.303   1.594   6.164
  485TIP3    H223019   1.363   1.468   6.105
  486TIP3   OH223020   5.114   4.925   0.278
  486TIP3    H123021   5.121   4.946   0.185
  486TIP3    H223022   5.021   4.910   0.292
  487TIP3   OH223023   2.458   3.923   8.300
  487TIP3    H123024   2.388   3.955   8.244
  487TIP3    H223025   2.434   3.953   8.388
  488TIP3   OH223026   1.279   3.193   1.009
  488TIP3    H123027   1.279   3.185   1.105
  488TIP3    H223028   1.188   3.177   0.983
  489TIP3   OH223029   0.718   5.906   6.909
  489TIP3    H123030   0.682   5.880   6.994
  489TIP3    H223031   0.778   5.977   6.929
  490TIP3   OH223032   5.534   5.691   6.937
  490TIP3    H123033   5.542   5.786   6.941
  490TIP3    H223034   5.538   5.662   7.028
  491TIP3   OH223035   6.766   5.186   8.199
  491TIP3    H123036   6.817   5.190   8.118
  491TIP3    H223037   6.772   5.274   8.235
  492TIP3   OH223038   3.961   1.787   1.158
  492TIP3    H123039   3.931   1.840   1.232
  492TIP3    H223040   3.932   1.698   1.179
  493TIP3   OH223041   6.395   0.525   6.041
  493TIP3    H123042   6.381   0.592   6.108
  493TIP3    H223043   6.317   0.470   6.046
  494TIP3   OH223044   5.022   3.541   1.433
  494TIP3    H123045   5.027   3.554   1.528
  494TIP3    H223046   4.953   3.476   1.421
  495TIP3   OH223047   2.043   3.174   6.657
  495TIP3    H123048   2.116   3.154   6.716
  495TIP3    H223049   2.079   3.237   6.595
  496TIP3   OH223050   6.062   4.509   7.466
  496TIP3    H123051   6.074   4.450   7.540
  496TIP3    H223052   5.971   4.539   7.474
  497TIP3   OH223053   6.833   6.238   0.779
  497TIP3    H123054   6.784   6.158   0.793
  497TIP3    H223055   6.882   6.222   0.698
  498TIP3   OH223056   3.952   2.670   8.380
  498TIP3    H123057   3.961   2.589   8.330
  498TIP3    H223058   4.040   2.685   8.416
  499TIP3   OH223059   6.605   2.060   8.204
  499TIP3    H123060   6.695   2.082   8.180
  499TIP3    H223061   6.553   2.083   8.127
  500TIP3   OH223062   5.683   1.531   6.962
  500TIP3    H123063   5.587   1.526   6.955
  500TIP3    H223064   5.709   1.588   6.890
  501TIP3   OH223065   5.493   5.267   6.068
  501TIP3    H123066   5.418   5.276   6.010
  501TIP3    H223067   5.470   5.319   6.145
  502TIP3   OH223068   6.147   0.358   7.670
  502TIP3    H123069   6.062   0.316   7.662
  502TIP3    H223070   6.185   0.353   7.582
  503TIP3   OH223071   3.659   0.138   0.770
  503TIP3    H123072   3.599   0.101   0.705
  503TIP3    H223073   3.671   0.229   0.743
  504TIP3   OH223074   4.628   5.526   1.697
  504TIP3    H123075   4.690   5.560   1.762
  504TIP3    H223076   4.645   5.432   1.693
  505TIP3   OH223077   5.827   0.700   1.074
  505TIP3    H123078   5.869   0.619   1.104
  505TIP3    H223079   5.878   0.727   0.997
  506TIP3   OH223080   5.941   4.184   7.088
  506TIP3    H123081   5.958   4.159   7.179
  506TIP3    H223082   5.879   4.257   7.095
  507TIP3   OH223083   5.899   6.760   0.002
  507TIP3    H123084   5.841   6.830  -0.029
  507TIP3    H223085   5.950   6.801   0.072
  508TIP3   OH223086   5.174   6.370   7.181
  508TIP3    H123087   5.107   6.303   7.185
  508TIP3    H223088   5.247   6.329   7.136
  509TIP3   OH223089   5.596   6.728   7.417
  509TIP3    H123090   5.690   6.734   7.435
  509TIP3    H223091   5.570   6.819   7.400
  510TIP3   OH223092   4.518   1.636   7.533
  510TIP3    H123093   4.579   1.575   7.492
  510TIP3    H223094   4.508   1.604   7.622
  511TIP3   OH223095   6.893   6.927   7.372
  511TIP3    H123096   6.896   6.868   7.447
  511TIP3    H223097   6.981   6.965   7.368
  512TIP3   OH223098   1.361   4.962   0.896
  512TIP3    H123099   1.275   4.975   0.936
  512TIP3    H223100   1.392   4.879   0.933
  513TIP3   OH223101   1.229   3.876   0.204
  513TIP3    H123102   1.246   3.957   0.253
  513TIP3    H223103   1.314   3.853   0.166
  514TIP3   OH223104   0.944   0.522   0.454
  514TIP3    H123105   0.919   0.431   0.438
  514TIP3    H223106   0.995   0.520   0.534
  515TIP3   OH223107   0.141   0.311   8.391
  515TIP3    H123108   0.160   0.305   8.297
  515TIP3    H223109   0.115   0.223   8.416
  516TIP3   OH223110   6.705   6.051   8.083
  516TIP3    H123111   6.756   6.047   8.165
  516TIP3    H223112   6.648   5.974   8.087
  517TIP3   OH223113   2.516   3.287   7.940
  517TIP3    H123114   2.598   3.283   7.890
  517TIP3    H223115   2.448   3.299   7.874
  518TIP3   OH223116   5.935   1.049   0.415
  518TIP3    H123117   5.855   1.002   0.393
  518TIP3    H223118   5.977   0.995   0.482
  519TIP3   OH223119   4.285   5.354   2.557
  519TIP3    H123120   4.333   5.280   2.521
  519TIP3    H223121   4.193   5.338   2.532
  520TIP3   OH223122   0.609   1.288   1.046
  520TIP3    H123123   0.523   1.330   1.043
  520TIP3    H223124   0.663   1.347   1.099
  521TIP3   OH223125   4.762   4.013   7.111
  521TIP3    H123126   4.818   4.070   7.059
  521TIP3    H223127   4.753   3.934   7.058
  522TIP3   OH223128   5.869   0.780   7.566
  522TIP3    H123129   5.958   0.795   7.532
  522TIP3    H223130   5.853   0.856   7.622
  523TIP3   OH223131   6.745   1.862   1.921
  523TIP3    H123132   6.837   1.845   1.900
  523TIP3    H223133   6.713   1.780   1.959
  524TIP3   OH223134   3.765   0.073   1.652
  524TIP3    H123135   3.842   0.069   1.709
  524TIP3    H223136   3.695   0.033   1.703
  525TIP3   OH223137   4.089   3.392   1.148
  525TIP3    H123138   4.007   3.355   1.116
  525TIP3    H223139   4.116   3.453   1.080
  526TIP3   OH223140   3.365   0.832   1.405
  526TIP3    H123141   3.364   0.895   1.476
  526TIP3    H223142   3.322   0.876   1.332
  527TIP3   OH223143   1.456   1.056   1.095
  527TIP3    H123144   1.412   1.123   1.147
  527TIP3    H223145   1.540   1.043   1.139
  528TIP3   OH223146   1.860   5.392   6.002
  528TIP3    H123147   1.953   5.401   5.980
  528TIP3    H223148   1.818   5.466   5.957
  529TIP3   OH223149   6.252   6.405   8.220
  529TIP3    H123150   6.208   6.358   8.291
  529TIP3    H223151   6.185   6.465   8.186
  530TIP3   OH223152   1.252   3.578   7.429
  530TIP3    H123153   1.347   3.568   7.443
  530TIP3    H223154   1.244   3.654   7.373
  531TIP3   OH223155   3.698   1.831   8.384
  531TIP3    H123156   3.659   1.907   8.340
  531TIP3    H223157   3.710   1.767   8.314
  532TIP3   OH223158   6.004   6.287   6.795
  532TIP3    H123159   6.036   6.222   6.732
  532TIP3    H223160   5.909   6.273   6.797
  533TIP3   OH223161   4.075   2.691   7.994
  533TIP3    H123162   4.130   2.768   8.003
  533TIP3    H223163   4.124   2.621   8.038
  534TIP3   OH223164   4.071   5.673   0.144
  534TIP3    H123165   4.060   5.666   0.050
  534TIP3    H223166   3.999   5.730   0.172
  535TIP3   OH223167   3.202   3.990   7.202
  535TIP3    H123168   3.206   4.080   7.234
  535TIP3    H223169   3.288   3.953   7.224
  536TIP3   OH223170   6.008   4.485   6.953
  536TIP3    H123171   5.941   4.489   7.021
  536TIP3    H223172   6.076   4.428   6.989
  537TIP3   OH223173   3.868   3.610   1.872
  537TIP3    H123174   3.802   3.599   1.804
  537TIP3    H223175   3.889   3.703   1.871
  538TIP3   OH223176   4.202   0.787   8.077
  538TIP3    H123177   4.172   0.816   8.164
  538TIP3    H223178   4.234   0.867   8.035
  539TIP3   OH223179   3.541   1.234   6.258
  539TIP3    H123180   3.571   1.194   6.176
  539TIP3    H223181   3.622   1.252   6.306
  540TIP3   OH223182   3.035   3.038   1.268
  540TIP3    H123183   3.060   2.978   1.338
  540TIP3    H223184   2.939   3.034   1.266
  541TIP3   OH223185   2.572   5.523   1.506
  541TIP3    H123186   2.639   5.511   1.439
  541TIP3    H223187   2.495   5.553   1.458
  542TIP3   OH223188   5.727   2.110   0.110
  542TIP3    H123189   5.729   2.103   0.015
  542TIP3    H223190   5.788   2.181   0.130
  543TIP3   OH223191   1.956   5.990   1.872
  543TIP3    H123192   2.036   6.003   1.923
  543TIP3    H223193   1.940   5.895   1.876
  544TIP3   OH223194   2.446   2.246   7.482
  544TIP3    H123195   2.529   2.234   7.529
  544TIP3    H223196   2.411   2.158   7.472
  545TIP3   OH223197   5.545   4.745   1.863
  545TIP3    H123198   5.605   4.719   1.933
  545TIP3    H223199   5.461   4.758   1.907
  546TIP3   OH223200   3.266   0.901   0.464
  546TIP3    H123201   3.173   0.876   0.468
  546TIP3    H223202   3.265   0.990   0.430
  547TIP3   OH223203   2.052   2.020   1.295
  547TIP3    H123204   2.141   1.988   1.311
  547TIP3    H223205   2.000   1.985   1.367
  548TIP3   OH223206   2.268   6.326   0.213
  548TIP3    H123207   2.284   6.383   0.288
  548TIP3    H223208   2.302   6.374   0.138
  549TIP3   OH223209   2.460   4.200   1.036
  549TIP3    H123210   2.469   4.175   1.128
  549TIP3    H223211   2.399   4.273   1.037
  550TIP3   OH223212   3.424   0.075   7.787
  550TIP3    H123213   3.446  -0.008   7.746
  550TIP3    H223214   3.383   0.126   7.718
  551TIP3   OH223215   3.013   2.825   0.814
  551TIP3    H123216   2.991   2.821   0.721
  551TIP3    H223217   2.945   2.773   0.857
  552TIP3   OH223218   0.260   3.508   0.084
  552TIP3    H123219   0.184   3.566   0.085
  552TIP3    H223220   0.320   3.547   0.148
  553TIP3   OH223221   0.258   4.132   8.159
  553TIP3    H123222   0.260   4.143   8.064
  553TIP3    H223223   0.317   4.200   8.192
  554TIP3   OH223224   5.225   4.579   7.116
  554TIP3    H123225   5.146   4.576   7.062
  554TIP3    H223226   5.222   4.498   7.167
  555TIP3   OH223227   3.222   6.823   7.195
  555TIP3    H123228   3.192   6.753   7.252
  555TIP3    H223229   3.146   6.881   7.187
  556TIP3   OH223230   1.773   6.278   2.358
  556TIP3    H123231   1.762   6.193   2.315
  556TIP3    H223232   1.685   6.301   2.388
  557TIP3   OH223233   0.206   0.117   6.228
  557TIP3    H123234   0.232   0.194   6.177
  557TIP3    H223235   0.286   0.066   6.237
  558TIP3   OH223236   0.102   4.629   7.091
  558TIP3    H123237   0.043   4.621   7.165
  558TIP3    H223238   0.054   4.682   7.027
  559TIP3   OH223239   0.050   6.668   0.340
  559TIP3    H123240  -0.011   6.734   0.370
  559TIP3    H223241   0.006   6.626   0.265
  560TIP3   OH223242   0.969   3.539   2.267
  560TIP3    H123243   1.042   3.500   2.218
  560TIP3    H223244   0.895   3.481   2.250
  561TIP3   OH223245   1.996   6.968   8.217
  561TIP3    H123246   1.928   7.031   8.195
  561TIP3    H223247   1.964   6.885   8.181
  562TIP3   OH223248   3.579   5.445   0.313
  562TIP3    H123249   3.526   5.424   0.237
  562TIP3    H223250   3.639   5.371   0.322
  563TIP3   OH223251   4.915   2.069   0.641
  563TIP3    H123252   4.862   2.010   0.696
  563TIP3    H223253   4.895   2.156   0.674
  564TIP3   OH223254   4.304   1.131   0.390
  564TIP3    H123255   4.301   1.035   0.387
  564TIP3    H223256   4.300   1.152   0.483
  565TIP3   OH223257   6.132   2.783   6.727
  565TIP3    H123258   6.198   2.739   6.781
  565TIP3    H223259   6.113   2.865   6.773
  566TIP3   OH223260   4.581   3.341   1.188
  566TIP3    H123261   4.501   3.357   1.238
  566TIP3    H223262   4.629   3.276   1.240
  567TIP3   OH223263   0.403   3.303   8.310
  567TIP3    H123264   0.321   3.294   8.359
  567TIP3    H223265   0.453   3.224   8.331
  568TIP3   OH223266   0.770   5.368   7.360
  568TIP3    H123267   0.840   5.351   7.298
  568TIP3    H223268   0.816   5.386   7.443
  569TIP3   OH223269   1.264   0.433   7.623
  569TIP3    H123270   1.254   0.429   7.718
  569TIP3    H223271   1.291   0.523   7.605
  570TIP3   OH223272   2.583   5.343   1.214
  570TIP3    H123273   2.666   5.383   1.239
  570TIP3    H223274   2.534   5.414   1.172
  571TIP3   OH223275   2.806   6.589   1.570
  571TIP3    H123276   2.837   6.521   1.630
  571TIP3    H223277   2.746   6.642   1.622
  572TIP3   OH223278   2.762   0.043   1.562
  572TIP3    H123279   2.851   0.024   1.592
  572TIP3    H223280   2.753  -0.006   1.480
  573TIP3   OH223281   4.443   4.884   1.260
  573TIP3    H123282   4.384   4.935   1.316
  573TIP3    H223283   4.476   4.815   1.318
  574TIP3   OH223284   0.413   0.854   1.275
  574TIP3    H123285   0.449   0.827   1.359
  574TIP3    H223286   0.487   0.850   1.214
  575TIP3   OH223287   2.718   0.861   0.143
  575TIP3    H123288   2.788   0.897   0.089
  575TIP3    H223289   2.762   0.798   0.200
  576TIP3   OH223290   2.149   5.620   0.798
  576TIP3    H123291   2.061   5.626   0.834
  576TIP3    H223292   2.171   5.527   0.804
  577TIP3   OH223293   6.175   0.607   7.209
  577TIP3    H123294   6.141   0.546   7.144
  577TIP3    H223295   6.173   0.559   7.291
  578TIP3   OH223296   5.996   3.444   1.813
  578TIP3    H123297   6.065   3.441   1.879
  578TIP3    H223298   6.029   3.390   1.741
  579TIP3   OH223299   3.214   5.326   0.801
  579TIP3    H123300   3.216   5.366   0.715
  579TIP3    H223301   3.137   5.270   0.801
  580TIP3   OH223302   0.700   1.624   7.266
  580TIP3    H123303   0.733   1.615   7.177
  580TIP3    H223304   0.775   1.654   7.317
  581TIP3   OH223305   4.492   0.140   0.442
  581TIP3    H123306   4.500   0.235   0.438
  581TIP3    H223307   4.582   0.110   0.457
  582TIP3   OH223308   6.475   5.093   8.180
  582TIP3    H123309   6.560   5.137   8.181
  582TIP3    H223310   6.471   5.051   8.094
  583TIP3   OH223311   6.733   2.746   1.646
  583TIP3    H123312   6.721   2.807   1.719
  583TIP3    H223313   6.751   2.802   1.571
  584TIP3   OH223314   6.607   3.310   0.921
  584TIP3    H123315   6.576   3.305   1.011
  584TIP3    H223316   6.631   3.402   0.910
  585TIP3   OH223317   1.502   5.332   7.193
  585TIP3    H123318   1.529   5.348   7.103
  585TIP3    H223319   1.575   5.365   7.246
  586TIP3   OH223320   2.591   6.887   6.649
  586TIP3    H123321   2.519   6.830   6.624
  586TIP3    H223322   2.549   6.961   6.693
  587TIP3   OH223323   1.896   4.030   7.952
  587TIP3    H123324   1.906   4.068   7.864
  587TIP3    H223325   1.949   3.950   7.949
  588TIP3   OH223326   0.850   3.221   6.622
  588TIP3    H123327   0.900   3.290   6.578
  588TIP3    H223328   0.841   3.152   6.556
  589TIP3   OH223329   1.808   1.985   6.064
  589TIP3    H123330   1.883   1.931   6.038
  589TIP3    H223331   1.798   2.048   5.993
  590TIP3   OH223332   5.206   3.453   7.974
  590TIP3    H123333   5.226   3.481   7.885
  590TIP3    H223334   5.289   3.419   8.008
  591TIP3   OH223335   3.007   1.370   8.005
  591TIP3    H123336   3.097   1.381   7.973
  591TIP3    H223337   2.981   1.457   8.034
  592TIP3   OH223338   6.604   3.711   6.788
  592TIP3    H123339   6.655   3.690   6.710
  592TIP3    H223340   6.609   3.807   6.795
  593TIP3   OH223341   4.526   5.979   1.491
  593TIP3    H123342   4.466   5.904   1.488
  593TIP3    H223343   4.556   5.982   1.582
  594TIP3   OH223344   1.505   6.449   7.135
  594TIP3    H123345   1.581   6.419   7.185
  594TIP3    H223346   1.482   6.532   7.174
  595TIP3   OH223347   6.289   0.619   8.095
  595TIP3    H123348   6.281   0.582   8.008
  595TIP3    H223349   6.302   0.713   8.080
  596TIP3   OH223350   1.599   6.874   1.142
  596TIP3    H123351   1.610   6.793   1.093
  596TIP3    H223352   1.505   6.893   1.136
  597TIP3   OH223353   5.076   1.890   1.684
  597TIP3    H123354   4.988   1.891   1.721
  597TIP3    H223355   5.062   1.879   1.590
  598TIP3   OH223356   6.627   1.897   6.342
  598TIP3    H123357   6.691   1.835   6.306
  598TIP3    H223358   6.618   1.872   6.434
  599TIP3   OH223359   3.054   1.827   7.137
  599TIP3    H123360   3.109   1.850   7.062
  599TIP3    H223361   3.103   1.760   7.184
  600TIP3   OH223362   2.699   5.685   0.848
  600TIP3    H123363   2.669   5.605   0.805
  600TIP3    H223364   2.661   5.682   0.935
  601TIP3   OH223365   6.175   4.236   0.300
  601TIP3    H123366   6.218   4.221   0.384
  601TIP3    H223367   6.084   4.208   0.314
  602TIP3   OH223368   0.133   4.786   2.260
  602TIP3    H123369   0.171   4.853   2.203
  602TIP3    H223370   0.048   4.766   2.220
  603TIP3   OH223371   3.528   5.768   0.498
  603TIP3    H123372   3.437   5.776   0.471
  603TIP3    H223373   3.523   5.740   0.590
  604TIP3   OH223374   5.717   0.185   7.908
  604TIP3    H123375   5.681   0.147   7.988
  604TIP3    H223376   5.798   0.229   7.936
  605TIP3   OH223377   1.427   6.438   6.339
  605TIP3    H123378   1.456   6.362   6.289
  605TIP3    H223379   1.343   6.411   6.377
  606TIP3   OH223380   0.779   2.754   6.875
  606TIP3    H123381   0.806   2.813   6.804
  606TIP3    H223382   0.793   2.806   6.955
  607TIP3   OH223383   6.385   4.562   7.019
  607TIP3    H123384   6.475   4.533   7.025
  607TIP3    H223385   6.333   4.487   7.050
  608TIP3   OH223386   5.960   5.865   1.905
  608TIP3    H123387   5.885   5.902   1.951
  608TIP3    H223388   6.000   5.939   1.859
  609TIP3   OH223389   0.569   0.564   0.503
  609TIP3    H123390   0.646   0.605   0.544
  609TIP3    H223391   0.501   0.569   0.571
  610TIP3   OH223392   5.320   1.490   7.826
  610TIP3    H123393   5.363   1.418   7.778
  610TIP3    H223394   5.308   1.558   7.760
  611TIP3   OH223395   3.515   0.978   0.877
  611TIP3    H123396   3.601   0.999   0.842
  611TIP3    H223397   3.469   0.936   0.805
  612TIP3   OH223398   2.896   4.953   0.667
  612TIP3    H123399   2.906   5.029   0.724
  612TIP3    H223400   2.913   4.878   0.724
  613TIP3   OH223401   0.586   2.268   6.994
  613TIP3    H123402   0.572   2.176   6.972
  613TIP3    H223403   0.498   2.305   7.001
  614TIP3   OH223404   6.607   1.305   0.775
  614TIP3    H123405   6.610   1.400   0.788
  614TIP3    H223406   6.617   1.293   0.681
  615TIP3   OH223407   5.255   1.666   0.718
  615TIP3    H123408   5.323   1.728   0.693
  615TIP3    H223409   5.218   1.636   0.634
  616TIP3   OH223410   0.867   2.172   1.024
  616TIP3    H123411   0.954   2.158   0.987
  616TIP3    H223412   0.867   2.121   1.105
  617TIP3   OH223413   4.059   6.646   7.196
  617TIP3    H123414   4.001   6.579   7.161
  617TIP3    H223415   4.049   6.640   7.291
  618TIP3   OH223416   5.434   3.339   8.051
  618TIP3    H123417   5.461   3.269   8.110
  618TIP3    H223418   5.496   3.410   8.067
  619TIP3   OH223419   4.456   0.016   1.012
  619TIP3    H123420   4.546   0.030   0.980
  619TIP3    H223421   4.402   0.027   0.934
  620TIP3   OH223422   4.591   0.302   6.803
  620TIP3    H123423   4.628   0.378   6.848
  620TIP3    H223424   4.657   0.277   6.739
  621TIP3   OH223425   1.705   6.391   1.599
  621TIP3    H123426   1.768   6.390   1.527
  621TIP3    H223427   1.730   6.468   1.650
  622TIP3   OH223428   3.039   4.199   0.765
  622TIP3    H123429   3.081   4.199   0.679
  622TIP3    H223430   3.069   4.117   0.806
  623TIP3   OH223431   4.977   4.534   0.456
  623TIP3    H123432   5.028   4.610   0.484
  623TIP3    H223433   4.888   4.552   0.487
  624TIP3   OH223434   3.359   3.622   0.787
  624TIP3    H123435   3.273   3.579   0.788
  624TIP3    H223436   3.396   3.600   0.701
  625TIP3   OH223437   2.101   5.364   8.337
  625TIP3    H123438   2.055   5.316   8.268
  625TIP3    H223439   2.169   5.413   8.291
  626TIP3   OH223440   1.876   4.049   7.476
  626TIP3    H123441   1.923   4.093   7.547
  626TIP3    H223442   1.815   4.115   7.443
  627TIP3   OH223443   3.207   5.744   0.968
  627TIP3    H123444   3.116   5.716   0.956
  627TIP3    H223445   3.232   5.779   0.883
  628TIP3   OH223446   6.792   5.903   6.413
  628TIP3    H123447   6.750   5.901   6.499
  628TIP3    H223448   6.799   5.811   6.388
  629TIP3   OH223449   0.947   4.163   8.206
  629TIP3    H123450   0.855   4.148   8.228
  629TIP3    H223451   0.981   4.216   8.278
  630TIP3   OH223452   5.846   4.468   0.576
  630TIP3    H123453   5.769   4.491   0.628
  630TIP3    H223454   5.872   4.382   0.610
  631TIP3   OH223455   1.083   3.790   7.363
  631TIP3    H123456   1.012   3.821   7.307
  631TIP3    H223457   1.045   3.787   7.451
  632TIP3   OH223458   1.831   2.660   7.051
  632TIP3    H123459   1.769   2.714   7.002
  632TIP3    H223460   1.913   2.708   7.048
  633TIP3   OH223461   4.527   3.654   1.197
  633TIP3    H123462   4.469   3.597   1.247
  633TIP3    H223463   4.593   3.596   1.159
  634TIP3   OH223464   4.267   6.829   0.804
  634TIP3    H123465   4.210   6.890   0.849
  634TIP3    H223466   4.254   6.848   0.711
  635TIP3   OH223467   3.767   5.648   8.396
  635TIP3    H123468   3.860   5.637   8.375
  635TIP3    H223469   3.748   5.739   8.371
  636TIP3   OH223470   0.153   0.343   8.026
  636TIP3    H123471   0.239   0.383   8.036
  636TIP3    H223472   0.128   0.360   7.935
  637TIP3   OH223473   5.194   3.307   0.874
  637TIP3    H123474   5.278   3.352   0.884
  637TIP3    H223475   5.187   3.251   0.951
  638TIP3   OH223476   0.127   0.049   7.345
  638TIP3    H123477   0.151   0.033   7.254
  638TIP3    H223478   0.199   0.100   7.381
  639TIP3   OH223479   6.558   1.605   7.909
  639TIP3    H123480   6.587   1.567   7.826
  639TIP3    H223481   6.484   1.550   7.936
  640TIP3   OH223482   5.226   2.217   0.025
  640TIP3    H123483   5.300   2.231  -0.034
  640TIP3    H223484   5.149   2.212  -0.033
  641TIP3   OH223485   5.219   6.824   6.586
  641TIP3    H123486   5.141   6.839   6.641
  641TIP3    H223487   5.228   6.903   6.534
  642TIP3   OH223488   3.883   3.426   7.679
  642TIP3    H123489   3.882   3.402   7.771
  642TIP3    H223490   3.885   3.522   7.679
  643TIP3   OH223491   5.047   0.210   7.605
  643TIP3    H123492   5.141   0.193   7.611
  643TIP3    H223493   5.022   0.234   7.694
  644TIP3   OH223494   6.135   0.812   1.981
  644TIP3    H123495   6.115   0.870   1.908
  644TIP3    H223496   6.120   0.724   1.948
  645TIP3   OH223497   5.698   6.038   8.263
  645TIP3    H123498   5.738   6.027   8.350
  645TIP3    H223499   5.681   5.949   8.233
  646TIP3   OH223500   0.919   6.687   6.747
  646TIP3    H123501   0.908   6.734   6.830
  646TIP3    H223502   1.013   6.692   6.730
  647TIP3   OH223503   4.527   5.502   6.870
  647TIP3    H123504   4.432   5.502   6.875
  647TIP3    H223505   4.547   5.450   6.793
  648TIP3   OH223506   0.031   4.897   0.123
  648TIP3    H123507   0.069   4.830   0.179
  648TIP3    H223508   0.021   4.853   0.038
  649TIP3   OH223509   0.012   2.279   7.038
  649TIP3    H123510  -0.064   2.262   7.094
  649TIP3    H223511   0.066   2.201   7.049
  650TIP3   OH223512   4.658   5.934   1.721
  650TIP3    H123513   4.732   5.902   1.671
  650TIP3    H223514   4.682   5.921   1.812
  651TIP3   OH223515   1.042   5.001   8.095
  651TIP3    H123516   1.007   5.032   8.179
  651TIP3    H223517   1.129   4.966   8.117
  652TIP3   OH223518   0.583   0.800   1.645
  652TIP3    H123519   0.552   0.872   1.591
  652TIP3    H223520   0.579   0.833   1.735
  653TIP3   OH223521   1.907   6.505   1.448
  653TIP3    H123522   1.915   6.520   1.354
  653TIP3    H223523   1.960   6.573   1.489
  654TIP3   OH223524   2.858   3.807   0.175
  654TIP3    H123525   2.777   3.797   0.224
  654TIP3    H223526   2.863   3.901   0.157
  655TIP3   OH223527   5.686   6.040   2.333
  655TIP3    H123528   5.751   6.033   2.263
  655TIP3    H223529   5.736   6.065   2.410
  656TIP3   OH223530   1.873   3.227   6.960
  656TIP3    H123531   1.957   3.273   6.966
  656TIP3    H223532   1.813   3.291   6.922
  657TIP3   OH223533   0.764   3.231   8.395
  657TIP3    H123534   0.733   3.157   8.447
  657TIP3    H223535   0.695   3.245   8.330
  658TIP3   OH223536   3.985   2.937   0.198
  658TIP3    H123537   3.953   2.855   0.161
  658TIP3    H223538   4.022   2.913   0.282
  659TIP3   OH223539   2.833   0.930   7.261
  659TIP3    H123540   2.888   0.900   7.333
  659TIP3    H223541   2.866   1.017   7.239
  660TIP3   OH223542   3.699   1.010   6.683
  660TIP3    H123543   3.606   1.009   6.661
  660TIP3    H223544   3.711   1.089   6.736
  661TIP3   OH223545   1.772   0.479   6.719
  661TIP3    H123546   1.860   0.511   6.737
  661TIP3    H223547   1.781   0.383   6.719
  662TIP3   OH223548   2.060   6.091   2.205
  662TIP3    H123549   2.009   6.018   2.241
  662TIP3    H223550   2.119   6.051   2.142
  663TIP3   OH223551   3.232   2.722   0.129
  663TIP3    H123552   3.327   2.707   0.132
  663TIP3    H223553   3.204   2.683   0.047
  664TIP3   OH223554   1.822   5.652   6.679
  664TIP3    H123555   1.797   5.743   6.665
  664TIP3    H223556   1.756   5.602   6.631
  665TIP3   OH223557   2.141   4.685   0.748
  665TIP3    H123558   2.234   4.660   0.752
  665TIP3    H223559   2.096   4.617   0.798
  666TIP3   OH223560   5.277   6.028   0.529
  666TIP3    H123561   5.223   6.088   0.478
  666TIP3    H223562   5.306   5.962   0.466
  667TIP3   OH223563   4.578   0.403   0.405
  667TIP3    H123564   4.658   0.385   0.356
  667TIP3    H223565   4.602   0.471   0.468
  668TIP3   OH223566   3.851   4.808   7.080
  668TIP3    H123567   3.768   4.761   7.071
  668TIP3    H223568   3.889   4.773   7.161
  669TIP3   OH223569   5.219   2.999   0.609
  669TIP3    H123570   5.194   3.056   0.536
  669TIP3    H223571   5.197   2.911   0.579
  670TIP3   OH223572   3.187   5.100   2.132
  670TIP3    H123573   3.189   5.191   2.103
  670TIP3    H223574   3.125   5.057   2.072
  671TIP3   OH223575   2.771   2.527   8.222
  671TIP3    H123576   2.847   2.496   8.272
  671TIP3    H223577   2.701   2.466   8.245
  672TIP3   OH223578   2.661   1.748   1.240
  672TIP3    H123579   2.688   1.667   1.197
  672TIP3    H223580   2.740   1.802   1.242
  673TIP3   OH223581   3.151   3.506   6.058
  673TIP3    H123582   3.231   3.542   6.020
  673TIP3    H223583   3.175   3.418   6.085
  674TIP3   OH223584   5.196   5.297   0.248
  674TIP3    H123585   5.281   5.317   0.210
  674TIP3    H223586   5.216   5.234   0.318
  675TIP3   OH223587   0.880   3.812   1.674
  675TIP3    H123588   0.806   3.858   1.714
  675TIP3    H223589   0.874   3.723   1.707
  676TIP3   OH223590   3.774   6.818   7.030
  676TIP3    H123591   3.775   6.837   6.936
  676TIP3    H223592   3.726   6.891   7.069
  677TIP3   OH223593   4.904   5.666   7.461
  677TIP3    H123594   4.823   5.653   7.510
  677TIP3    H223595   4.890   5.619   7.379
  678TIP3   OH223596   0.129   5.926   8.122
  678TIP3    H123597   0.094   5.962   8.040
  678TIP3    H223598   0.059   5.940   8.186
  679TIP3   OH223599   2.312   6.453   1.420
  679TIP3    H123600   2.242   6.515   1.438
  679TIP3    H223601   2.370   6.459   1.496
  680TIP3   OH223602   5.527   1.052   7.454
  680TIP3    H123603   5.553   1.048   7.362
  680TIP3    H223604   5.513   0.961   7.479
  681TIP3   OH223605   0.421   0.065   1.007
  681TIP3    H123606   0.352   0.066   1.073
  681TIP3    H223607   0.416  -0.023   0.968
  682TIP3   OH223608   3.814   0.272   7.318
  682TIP3    H123609   3.854   0.298   7.401
  682TIP3    H223610   3.884   0.286   7.254
  683TIP3   OH223611   4.337   3.787   7.450
  683TIP3    H123612   4.276   3.819   7.516
  683TIP3    H223613   4.283   3.764   7.375
  684TIP3   OH223614   1.104   3.788   0.677
  684TIP3    H123615   1.041   3.830   0.618
  684TIP3    H223616   1.175   3.760   0.619
  685TIP3   OH223617   5.344   0.846   0.466
  685TIP3    H123618   5.280   0.796   0.417
  685TIP3    H223619   5.302   0.931   0.481
  686TIP3   OH223620   1.338   4.218   8.158
  686TIP3    H123621   1.373   4.147   8.104
  686TIP3    H223622   1.313   4.286   8.094
  687TIP3   OH223623   2.825   3.156   8.174
  687TIP3    H123624   2.767   3.087   8.143
  687TIP3    H223625   2.819   3.152   8.269
  688TIP3   OH223626   1.835   2.755   7.980
  688TIP3    H123627   1.846   2.738   7.886
  688TIP3    H223628   1.910   2.711   8.021
  689TIP3   OH223629   3.820   1.425   1.810
  689TIP3    H123630   3.897   1.419   1.754
  689TIP3    H223631   3.847   1.479   1.884
  690TIP3   OH223632   2.860   4.687   1.177
  690TIP3    H123633   2.853   4.752   1.247
  690TIP3    H223634   2.797   4.716   1.111
  691TIP3   OH223635   5.832   1.282   1.694
  691TIP3    H123636   5.815   1.252   1.784
  691TIP3    H223637   5.841   1.202   1.644
  692TIP3   OH223638   1.115   5.112   0.758
  692TIP3    H123639   1.086   5.027   0.791
  692TIP3    H223640   1.150   5.157   0.835
  693TIP3   OH223641   0.522   0.414   8.088
  693TIP3    H123642   0.499   0.406   7.995
  693TIP3    H223643   0.466   0.485   8.119
  694TIP3   OH223644   5.123   0.175   8.177
  694TIP3    H123645   5.102   0.220   8.258
  694TIP3    H223646   5.152   0.245   8.118
  695TIP3   OH223647   3.446   4.571   1.988
  695TIP3    H123648   3.418   4.496   1.935
  695TIP3    H223649   3.524   4.539   2.034
  696TIP3   OH223650   6.998   5.736   7.483
  696TIP3    H123651   6.965   5.665   7.538
  696TIP3    H223652   7.043   5.795   7.543
  697TIP3   OH223653   4.120   0.259   1.024
  697TIP3    H123654   4.031   0.288   1.006
  697TIP3    H223655   4.112   0.201   1.099
  698TIP3   OH223656   2.886   4.204   2.293
  698TIP3    H123657   2.916   4.213   2.384
  698TIP3    H223658   2.807   4.151   2.298
  699TIP3   OH223659   2.613   5.890   0.113
  699TIP3    H123660   2.610   5.985   0.125
  699TIP3    H223661   2.546   5.856   0.173
  700TIP3   OH223662   2.362   2.210   6.916
  700TIP3    H123663   2.287   2.152   6.908
  700TIP3    H223664   2.413   2.196   6.836
  701TIP3   OH223665   1.907   6.027   0.752
  701TIP3    H123666   1.958   6.007   0.831
  701TIP3    H223667   1.816   6.023   0.780
  702TIP3   OH223668   0.461   4.247   1.862
  702TIP3    H123669   0.375   4.207   1.873
  702TIP3    H223670   0.496   4.254   1.951
  703TIP3   OH223671   5.391   2.605   8.041
  703TIP3    H123672   5.446   2.610   7.962
  703TIP3    H223673   5.383   2.696   8.070
  704TIP3   OH223674   4.760   5.908   7.756
  704TIP3    H123675   4.775   5.828   7.706
  704TIP3    H223676   4.847   5.936   7.783
  705TIP3   OH223677   4.227   4.535   1.453
  705TIP3    H123678   4.226   4.495   1.366
  705TIP3    H223679   4.151   4.496   1.497
  706TIP3   OH223680   2.468   2.212   6.627
  706TIP3    H123681   2.427   2.222   6.541
  706TIP3    H223682   2.553   2.254   6.617
  707TIP3   OH223683   3.008   6.500   7.261
  707TIP3    H123684   3.044   6.571   7.315
  707TIP3    H223685   3.084   6.467   7.212
  708TIP3   OH223686   5.289   0.469   6.037
  708TIP3    H123687   5.254   0.447   6.123
  708TIP3    H223688   5.275   0.563   6.028
  709TIP3   OH223689   0.856   6.097   7.325
  709TIP3    H123690   0.806   6.024   7.287
  709TIP3    H223691   0.826   6.103   7.415
  710TIP3   OH223692   0.443   5.786   1.051
  710TIP3    H123693   0.395   5.704   1.060
  710TIP3    H223694   0.532   5.765   1.079
  711TIP3   OH223695   6.072   1.472   6.574
  711TIP3    H123696   6.139   1.541   6.574
  711TIP3    H223697   6.060   1.450   6.481
  712TIP3   OH223698   2.269   2.034   8.133
  712TIP3    H123699   2.326   2.066   8.063
  712TIP3    H223700   2.297   1.943   8.147
  713TIP3   OH223701   0.792   0.153   6.311
  713TIP3    H123702   0.732   0.190   6.376
  713TIP3    H223703   0.833   0.229   6.269
  714TIP3   OH223704   1.308   4.346   6.517
  714TIP3    H123705   1.319   4.296   6.436
  714TIP3    H223706   1.243   4.413   6.495
  715TIP3   OH223707   2.948   1.008   0.211
  715TIP3    H123708   2.948   1.098   0.178
  715TIP3    H223709   3.032   0.972   0.181
  716TIP3   OH223710   2.363   1.106   0.764
  716TIP3    H123711   2.433   1.046   0.792
  716TIP3    H223712   2.389   1.191   0.800
  717TIP3   OH223713   2.604   5.765   8.200
  717TIP3    H123714   2.596   5.672   8.222
  717TIP3    H223715   2.689   5.791   8.236
  718TIP3   OH223716   4.568   0.476   8.047
  718TIP3    H123717   4.481   0.482   8.007
  718TIP3    H223718   4.557   0.413   8.118
  719TIP3   OH223719   3.111   1.718   6.806
  719TIP3    H123720   3.077   1.637   6.844
  719TIP3    H223721   3.037   1.753   6.756
  720TIP3   OH223722   4.107   2.036   0.312
  720TIP3    H123723   4.066   1.974   0.252
  720TIP3    H223724   4.033   2.082   0.353
  721TIP3   OH223725   1.196   4.727   1.095
  721TIP3    H123726   1.160   4.743   1.008
  721TIP3    H223727   1.123   4.693   1.146
  722TIP3   OH223728   3.010   4.535   1.337
  722TIP3    H123729   2.981   4.555   1.425
  722TIP3    H223730   2.960   4.594   1.281
  723TIP3   OH223731   2.419   6.251   6.885
  723TIP3    H123732   2.400   6.345   6.880
  723TIP3    H223733   2.488   6.245   6.951
  724TIP3   OH223734   0.849   3.471   7.228
  724TIP3    H123735   0.775   3.411   7.220
  724TIP3    H223736   0.925   3.414   7.235
  725TIP3   OH223737   2.158   4.394   6.721
  725TIP3    H123738   2.131   4.440   6.641
  725TIP3    H223739   2.251   4.376   6.707
  726TIP3   OH223740   0.125   0.400   0.776
  726TIP3    H123741   0.052   0.425   0.720
  726TIP3    H223742   0.090   0.405   0.865
  727TIP3   OH223743   4.881   4.434   0.800
  727TIP3    H123744   4.863   4.515   0.753
  727TIP3    H223745   4.830   4.441   0.881
  728TIP3   OH223746   1.915   1.153   6.495
  728TIP3    H123747   1.983   1.097   6.458
  728TIP3    H223748   1.855   1.093   6.538
  729TIP3   OH223749   4.817   0.447   0.272
  729TIP3    H123750   4.877   0.410   0.208
  729TIP3    H223751   4.836   0.541   0.271
  730TIP3   OH223752   4.845   2.204   6.697
  730TIP3    H123753   4.801   2.133   6.651
  730TIP3    H223754   4.907   2.240   6.633
  731TIP3   OH223755   3.603   4.447   1.690
  731TIP3    H123756   3.520   4.454   1.738
  731TIP3    H223757   3.664   4.503   1.739
  732TIP3   OH223758   5.855   3.908   7.141
  732TIP3    H123759   5.766   3.908   7.175
  732TIP3    H223760   5.876   4.000   7.127
  733TIP3   OH223761   2.946   2.424   7.505
  733TIP3    H123762   2.991   2.402   7.586
  733TIP3    H223763   2.917   2.340   7.470
  734TIP3   OH223764   3.498   6.572   6.655
  734TIP3    H123765   3.542   6.533   6.580
  734TIP3    H223766   3.405   6.556   6.640
  735TIP3   OH223767   2.052   2.311   0.865
  735TIP3    H123768   2.067   2.381   0.803
  735TIP3    H223769   2.127   2.316   0.925
  736TIP3   OH223770   1.936   0.141   6.389
  736TIP3    H123771   2.018   0.096   6.410
  736TIP3    H223772   1.911   0.106   6.304
  737TIP3   OH223773   2.205   5.373   1.250
  737TIP3    H123774   2.233   5.407   1.164
  737TIP3    H223775   2.286   5.369   1.301
  738TIP3   OH223776   0.235   3.930   7.549
  738TIP3    H123777   0.308   3.868   7.556
  738TIP3    H223778   0.232   3.974   7.634
  739TIP3   OH223779   0.557   0.854   1.939
  739TIP3    H123780   0.607   0.872   2.019
  739TIP3    H223781   0.468   0.836   1.971
  740TIP3   OH223782   4.501   1.426   7.942
  740TIP3    H123783   4.550   1.473   7.875
  740TIP3    H223784   4.512   1.479   8.021
  741TIP3   OH223785   5.576   4.197   6.140
  741TIP3    H123786   5.616   4.234   6.219
  741TIP3    H223787   5.520   4.267   6.107
  742TIP3   OH223788   2.134   2.716   8.125
  742TIP3    H123789   2.110   2.643   8.183
  742TIP3    H223790   2.216   2.687   8.083
  743TIP3   OH223791   6.593   6.187   1.315
  743TIP3    H123792   6.509   6.177   1.359
  743TIP3    H223793   6.581   6.149   1.228
  744TIP3   OH223794   1.700   3.994   2.129
  744TIP3    H123795   1.769   4.012   2.193
  744TIP3    H223796   1.623   4.041   2.161
  745TIP3   OH223797   5.236   2.578   6.602
  745TIP3    H123798   5.185   2.600   6.680
  745TIP3    H223799   5.323   2.613   6.620
  746TIP3   OH223800   2.791   5.936   1.339
  746TIP3    H123801   2.802   5.993   1.415
  746TIP3    H223802   2.749   5.992   1.273
  747TIP3   OH223803   2.954   5.019   7.610
  747TIP3    H123804   2.867   5.004   7.646
  747TIP3    H223805   3.002   4.937   7.629
  748TIP3   OH223806   5.893   5.435   7.623
  748TIP3    H123807   5.966   5.373   7.621
  748TIP3    H223808   5.889   5.469   7.533
  749TIP3   OH223809   1.694   1.756   1.083
  749TIP3    H123810   1.785   1.788   1.085
  749TIP3    H223811   1.664   1.768   1.173
  750TIP3   OH223812   1.927   3.233   7.616
  750TIP3    H123813   1.884   3.253   7.700
  750TIP3    H223814   1.940   3.319   7.575
  751TIP3   OH223815   6.853   3.922   2.035
  751TIP3    H123816   6.799   3.917   2.113
  751TIP3    H223817   6.910   3.998   2.050
  752TIP3   OH223818   1.070   6.600   7.320
  752TIP3    H123819   1.093   6.573   7.408
  752TIP3    H223820   0.986   6.557   7.302
  753TIP3   OH223821   4.761   6.741   7.973
  753TIP3    H123822   4.721   6.739   8.061
  753TIP3    H223823   4.734   6.826   7.937
  754TIP3   OH223824   0.753   2.774   1.537
  754TIP3    H123825   0.794   2.860   1.538
  754TIP3    H223826   0.733   2.757   1.445
  755TIP3   OH223827   1.977   6.464   1.806
  755TIP3    H123828   1.949   6.451   1.896
  755TIP3    H223829   1.927   6.540   1.776
  756TIP3   OH223830   5.054   6.281   1.191
  756TIP3    H123831   5.141   6.317   1.172
  756TIP3    H223832   5.063   6.239   1.276
  757TIP3   OH223833   3.400   6.181   1.680
  757TIP3    H123834   3.349   6.195   1.600
  757TIP3    H223835   3.367   6.247   1.741
  758TIP3   OH223836   2.603   6.660   6.036
  758TIP3    H123837   2.650   6.578   6.021
  758TIP3    H223838   2.670   6.719   6.070
  759TIP3   OH223839   4.232   1.547   7.255
  759TIP3    H123840   4.251   1.636   7.225
  759TIP3    H223841   4.265   1.544   7.345
  760TIP3   OH223842   0.601   3.477   7.532
  760TIP3    H123843   0.685   3.435   7.515
  760TIP3    H223844   0.623   3.568   7.551
  761TIP3   OH223845   2.324   1.552   0.784
  761TIP3    H123846   2.371   1.478   0.823
  761TIP3    H223847   2.335   1.540   0.689
  762TIP3   OH223848   2.445   5.519   7.360
  762TIP3    H123849   2.356   5.529   7.325
  762TIP3    H223850   2.477   5.438   7.320
  763TIP3   OH223851   1.538   6.322   8.338
  763TIP3    H123852   1.583   6.237   8.336
  763TIP3    H223853   1.606   6.385   8.362
  764TIP3   OH223854   5.586   1.339   0.679
  764TIP3    H123855   5.543   1.409   0.729
  764TIP3    H223856   5.667   1.322   0.727
  765TIP3   OH223857   2.143   1.178   7.510
  765TIP3    H123858   2.171   1.177   7.419
  765TIP3    H223859   2.193   1.249   7.550
  766TIP3   OH223860   0.776   3.385   0.212
  766TIP3    H123861   0.838   3.332   0.264
  766TIP3    H223862   0.786   3.351   0.122
  767TIP3   OH223863   6.623   2.596   7.109
  767TIP3    H123864   6.596   2.599   7.017
  767TIP3    H223865   6.718   2.606   7.107
  768TIP3   OH223866   0.925   0.779   1.468
  768TIP3    H123867   0.881   0.709   1.516
  768TIP3    H223868   0.870   0.793   1.391
  769TIP3   OH223869   4.391   6.506   0.426
  769TIP3    H123870   4.445   6.585   0.420
  769TIP3    H223871   4.378   6.493   0.520
  770TIP3   OH223872   2.059   5.242   8.076
  770TIP3    H123873   2.005   5.196   8.011
  770TIP3    H223874   2.115   5.299   8.024
  771TIP3   OH223875   1.682   3.699   1.138
  771TIP3    H123876   1.620   3.626   1.129
  771TIP3    H223877   1.679   3.723   1.230
  772TIP3   OH223878   1.607   6.862   6.694
  772TIP3    H123879   1.599   6.818   6.779
  772TIP3    H223880   1.640   6.795   6.635
  773TIP3   OH223881   6.927   1.746   6.757
  773TIP3    H123882   6.851   1.687   6.751
  773TIP3    H223883   6.939   1.779   6.668
  774TIP3   OH223884   0.935   4.104   1.302
  774TIP3    H123885   0.986   4.091   1.222
  774TIP3    H223886   0.986   4.060   1.370
  775TIP3   OH223887   5.963   0.136   0.200
  775TIP3    H123888   5.939   0.067   0.261
  775TIP3    H223889   5.888   0.195   0.198
  776TIP3   OH223890   3.091   0.681   1.042
  776TIP3    H123891   3.176   0.697   1.001
  776TIP3    H223892   3.100   0.713   1.131
  777TIP3   OH223893   6.548   4.195   0.242
  777TIP3    H123894   6.596   4.274   0.270
  777TIP3    H223895   6.475   4.228   0.190
  778TIP3   OH223896   2.357   0.322   6.586
  778TIP3    H123897   2.345   0.245   6.530
  778TIP3    H223898   2.451   0.339   6.583
  779TIP3   OH223899   3.267   3.468   2.157
  779TIP3    H123900   3.343   3.515   2.123
  779TIP3    H223901   3.293   3.440   2.245
  780TIP3   OH223902   4.095   2.274   6.426
  780TIP3    H123903   4.011   2.316   6.446
  780TIP3    H223904   4.161   2.335   6.457
  781TIP3   OH223905   4.550   4.194   1.614
  781TIP3    H123906   4.481   4.128   1.619
  781TIP3    H223907   4.580   4.203   1.704
  782TIP3   OH223908   0.706   5.272   0.982
  782TIP3    H123909   0.746   5.358   0.999
  782TIP3    H223910   0.639   5.264   1.049
  783TIP3   OH223911   0.665   2.528   0.333
  783TIP3    H123912   0.642   2.481   0.413
  783TIP3    H223913   0.591   2.511   0.274
  784TIP3   OH223914   0.660   0.046   7.564
  784TIP3    H123915   0.673  -0.002   7.483
  784TIP3    H223916   0.704   0.130   7.549
  785TIP3   OH223917   4.680   1.881   7.926
  785TIP3    H123918   4.747   1.907   7.989
  785TIP3    H223919   4.699   1.932   7.848
  786TIP3   OH223920   6.997   6.823   0.951
  786TIP3    H123921   6.973   6.912   0.924
  786TIP3    H223922   7.014   6.777   0.868
  787TIP3   OH223923   1.730   5.564   1.261
  787TIP3    H123924   1.687   5.480   1.245
  787TIP3    H223925   1.820   5.540   1.284
  788TIP3   OH223926   2.650   0.183   8.183
  788TIP3    H123927   2.719   0.222   8.237
  788TIP3    H223928   2.569   0.223   8.215
  789TIP3   OH223929   2.520   6.772   0.332
  789TIP3    H123930   2.606   6.736   0.307
  789TIP3    H223931   2.478   6.701   0.380
  790TIP3   OH223932   0.877   5.355   8.245
  790TIP3    H123933   0.797   5.312   8.276
  790TIP3    H223934   0.900   5.416   8.315
  791TIP3   OH223935   2.685   0.409   1.605
  791TIP3    H123936   2.717   0.372   1.523
  791TIP3    H223937   2.599   0.444   1.584
  792TIP3   OH223938   3.906   0.984   1.447
  792TIP3    H123939   3.940   0.901   1.413
  792TIP3    H223940   3.812   0.980   1.431
  793TIP3   OH223941   5.609   6.653   1.035
  793TIP3    H123942   5.615   6.648   0.939
  793TIP3    H223943   5.516   6.666   1.052
  794TIP3   OH223944   3.511   0.615   5.898
  794TIP3    H123945   3.479   0.549   5.837
  794TIP3    H223946   3.592   0.578   5.933
  795TIP3   OH223947   1.606   6.598   7.998
  795TIP3    H123948   1.666   6.605   8.072
  795TIP3    H223949   1.655   6.632   7.923
  796TIP3   OH223950   5.731   1.796   1.401
  796TIP3    H123951   5.638   1.774   1.401
  796TIP3    H223952   5.740   1.862   1.332
  797TIP3   OH223953   4.345   6.275   7.853
  797TIP3    H123954   4.268   6.274   7.796
  797TIP3    H223955   4.410   6.224   7.805
  798TIP3   OH223956   4.057   2.082   7.629
  798TIP3    H123957   4.053   2.178   7.633
  798TIP3    H223958   3.977   2.056   7.584
  799TIP3   OH223959   2.373   1.579   2.362
  799TIP3    H123960   2.444   1.643   2.354
  799TIP3    H223961   2.299   1.630   2.396
  800TIP3   OH223962   1.958   4.342   1.113
  800TIP3    H123963   1.993   4.266   1.159
  800TIP3    H223964   1.875   4.361   1.158
  801TIP3   OH223965   2.895   2.461   2.168
  801TIP3    H123966   2.810   2.425   2.143
  801TIP3    H223967   2.892   2.552   2.138
  802TIP3   OH223968   0.312   2.717   7.143
  802TIP3    H123969   0.366   2.699   7.066
  802TIP3    H223970   0.227   2.741   7.107
  803TIP3   OH223971   5.440   6.768   0.591
  803TIP3    H123972   5.367   6.744   0.649
  803TIP3    H223973   5.509   6.797   0.649
  804TIP3   OH223974   1.540   2.918   0.825
  804TIP3    H123975   1.630   2.950   0.817
  804TIP3    H223976   1.506   2.918   0.736
  805TIP3   OH223977   2.575   5.608   6.932
  805TIP3    H123978   2.606   5.600   6.842
  805TIP3    H223979   2.487   5.647   6.924
  806TIP3   OH223980   2.552   0.251   0.074
  806TIP3    H123981   2.483   0.309   0.043
  806TIP3    H223982   2.630   0.280   0.026
  807TIP3   OH223983   1.691   0.799   7.848
  807TIP3    H123984   1.703   0.879   7.797
  807TIP3    H223985   1.727   0.730   7.793
  808TIP3   OH223986   1.515   4.683   0.142
  808TIP3    H123987   1.473   4.763   0.110
  808TIP3    H223988   1.453   4.613   0.122
  809TIP3   OH223989   6.440   3.162   7.420
  809TIP3    H123990   6.415   3.094   7.358
  809TIP3    H223991   6.531   3.144   7.441
  810TIP3   OH223992   5.595   3.838   1.227
  810TIP3    H123993   5.513   3.809   1.266
  810TIP3    H223994   5.589   3.810   1.135
  811TIP3   OH223995   3.353   0.216   7.561
  811TIP3    H123996   3.372   0.157   7.489
  811TIP3    H223997   3.260   0.235   7.554
  812TIP3   OH223998   3.218   5.937   0.437
  812TIP3    H123999   3.142   5.916   0.383
  812TIP3    H224000   3.224   6.032   0.435
  813TIP3   OH224001   6.221   3.040   7.590
  813TIP3    H124002   6.148   3.046   7.530
  813TIP3    H224003   6.288   3.097   7.553
  814TIP3   OH224004   6.443   5.870   1.360
  814TIP3    H124005   6.502   5.838   1.291
  814TIP3    H224006   6.486   5.844   1.442
  815TIP3   OH224007   5.415   1.321   7.129
  815TIP3    H124008   5.351   1.253   7.108
  815TIP3    H224009   5.500   1.276   7.125
  816TIP3   OH224010   5.935   6.780   1.843
  816TIP3    H124011   6.029   6.793   1.836
  816TIP3    H224012   5.897   6.865   1.819
  817TIP3   OH224013   3.870   3.236   1.068
  817TIP3    H124014   3.785   3.279   1.060
  817TIP3    H224015   3.867   3.165   1.004
  818TIP3   OH224016   4.982   3.296   8.327
  818TIP3    H124017   4.994   3.386   8.298
  818TIP3    H224018   4.959   3.247   8.248
  819TIP3   OH224019   1.261   6.512   1.291
  819TIP3    H124020   1.251   6.606   1.305
  819TIP3    H224021   1.288   6.477   1.376
  820TIP3   OH224022   1.383   0.660   6.581
  820TIP3    H124023   1.454   0.706   6.536
  820TIP3    H224024   1.312   0.723   6.587
  821TIP3   OH224025   0.560   6.578   7.241
  821TIP3    H124026   0.597   6.500   7.200
  821TIP3    H224027   0.633   6.617   7.289
  822TIP3   OH224028   4.350   2.690   0.941
  822TIP3    H124029   4.343   2.673   1.034
  822TIP3    H224030   4.423   2.636   0.911
  823TIP3   OH224031   0.302   1.720   0.917
  823TIP3    H124032   0.221   1.733   0.967
  823TIP3    H224033   0.326   1.808   0.889
  824TIP3   OH224034   1.614   3.291   1.307
  824TIP3    H124035   1.702   3.311   1.338
  824TIP3    H224036   1.627   3.229   1.235
  825TIP3   OH224037   5.090   4.352   0.681
  825TIP3    H124038   5.009   4.364   0.731
  825TIP3    H224039   5.061   4.324   0.595
  826TIP3   OH224040   5.137   6.806   7.514
  826TIP3    H124041   5.200   6.876   7.501
  826TIP3    H224042   5.187   6.726   7.499
  827TIP3   OH224043   1.130   1.190   6.555
  827TIP3    H124044   1.087   1.112   6.521
  827TIP3    H224045   1.165   1.163   6.640
  828TIP3   OH224046   0.205   5.222   1.621
  828TIP3    H124047   0.146   5.263   1.685
  828TIP3    H224048   0.263   5.167   1.674
  829TIP3   OH224049   0.113   0.656   0.461
  829TIP3    H124050   0.139   0.747   0.446
  829TIP3    H224051   0.022   0.652   0.433
  830TIP3   OH224052   0.654   2.491   7.305
  830TIP3    H124053   0.728   2.504   7.365
  830TIP3    H224054   0.694   2.487   7.218
  831TIP3   OH224055   3.500   2.004   6.388
  831TIP3    H124056   3.525   2.096   6.376
  831TIP3    H224057   3.536   1.981   6.474
  832TIP3   OH224058   5.324   1.316   0.610
  832TIP3    H124059   5.415   1.341   0.593
  832TIP3    H224060   5.272   1.385   0.570
  833TIP3   OH224061   3.226   3.233   6.138
  833TIP3    H124062   3.307   3.187   6.156
  833TIP3    H224063   3.174   3.171   6.086
  834TIP3   OH224064   4.226   2.356   0.022
  834TIP3    H124065   4.147   2.403   0.050
  834TIP3    H224066   4.279   2.351   0.102
  835TIP3   OH224067   3.795   2.033   7.529
  835TIP3    H124068   3.701   2.027   7.545
  835TIP3    H224069   3.803   2.070   7.441
  836TIP3   OH224070   4.812   3.580   0.399
  836TIP3    H124071   4.833   3.663   0.442
  836TIP3    H224072   4.746   3.540   0.455
  837TIP3   OH224073   4.943   4.533   0.175
  837TIP3    H124074   4.941   4.524   0.270
  837TIP3    H224075   5.034   4.553   0.155
  838TIP3   OH224076   0.050   0.648   7.638
  838TIP3    H124077  -0.031   0.602   7.661
  838TIP3    H224078   0.117   0.581   7.637
  839TIP3   OH224079   4.867   5.489   0.754
  839TIP3    H124080   4.877   5.502   0.660
  839TIP3    H224081   4.912   5.406   0.771
  840TIP3   OH224082   6.198   3.794   0.942
  840TIP3    H124083   6.285   3.791   0.901
  840TIP3    H224084   6.191   3.882   0.977
  841TIP3   OH224085   6.279   6.648   8.010
  841TIP3    H124086   6.261   6.664   8.103
  841TIP3    H224087   6.194   6.630   7.971
  842TIP3   OH224088   4.623   3.259   2.257
  842TIP3    H124089   4.541   3.286   2.215
  842TIP3    H224090   4.601   3.251   2.350
  843TIP3   OH224091   0.304   2.169   1.066
  843TIP3    H124092   0.387   2.143   1.105
  843TIP3    H224093   0.318   2.259   1.036
  844TIP3   OH224094   2.231   3.512   6.890
  844TIP3    H124095   2.267   3.597   6.863
  844TIP3    H224096   2.260   3.451   6.822
  845TIP3   OH224097   0.488   4.276   8.382
  845TIP3    H124098   0.534   4.312   8.306
  845TIP3    H224099   0.514   4.333   8.455
  846TIP3   OH224100   6.088   2.421   7.744
  846TIP3    H124101   6.029   2.434   7.819
  846TIP3    H224102   6.036   2.372   7.680
  847TIP3   OH224103   3.236   3.389   7.752
  847TIP3    H124104   3.327   3.375   7.727
  847TIP3    H224105   3.202   3.302   7.771
  848TIP3   OH224106   1.467   6.630   1.935
  848TIP3    H124107   1.554   6.663   1.957
  848TIP3    H224108   1.428   6.607   2.020
  849TIP3   OH224109   2.073   5.282   0.819
  849TIP3    H124110   2.037   5.197   0.844
  849TIP3    H224111   2.011   5.315   0.753
  850TIP3   OH224112   3.085   1.571   7.331
  850TIP3    H124113   3.006   1.594   7.381
  850TIP3    H224114   3.153   1.563   7.398
  851TIP3   OH224115   5.587   1.410   0.113
  851TIP3    H124116   5.683   1.411   0.114
  851TIP3    H224117   5.562   1.502   0.106
  852TIP3   OH224118   4.950   0.482   7.171
  852TIP3    H124119   5.016   0.452   7.109
  852TIP3    H224120   4.950   0.415   7.240
  853TIP3   OH224121   5.951   4.150   0.036
  853TIP3    H124122   5.978   4.159   0.127
  853TIP3    H224123   6.030   4.120  -0.009
  854TIP3   OH224124   5.012   5.528   7.685
  854TIP3    H124125   4.979   5.597   7.628
  854TIP3    H224126   4.961   5.537   7.766
  855TIP3   OH224127   4.191   0.554   6.106
  855TIP3    H124128   4.148   0.514   6.181
  855TIP3    H224129   4.126   0.551   6.036
  856TIP3   OH224130   4.835   3.143   0.107
  856TIP3    H124131   4.798   3.208   0.167
  856TIP3    H224132   4.865   3.194   0.032
  857TIP3   OH224133   2.980   0.596   0.459
  857TIP3    H124134   2.972   0.554   0.545
  857TIP3    H224135   3.056   0.553   0.419
  858TIP3   OH224136   4.802   0.169   1.700
  858TIP3    H124137   4.855   0.190   1.777
  858TIP3    H224138   4.821   0.239   1.637
  859TIP3   OH224139   2.273   2.756   1.056
  859TIP3    H124140   2.213   2.784   1.125
  859TIP3    H224141   2.217   2.716   0.989
  860TIP3   OH224142   1.928   1.237   7.679
  860TIP3    H124143   1.974   1.227   7.596
  860TIP3    H224144   1.980   1.187   7.742
  861TIP3   OH224145   4.338   5.718   7.976
  861TIP3    H124146   4.259   5.678   7.940
  861TIP3    H224147   4.314   5.810   7.989
  862TIP3   OH224148   2.928   3.927   2.468
  862TIP3    H124149   2.975   4.007   2.493
  862TIP3    H224150   2.841   3.958   2.441
  863TIP3   OH224151   5.940   2.126   7.292
  863TIP3    H124152   5.921   2.140   7.199
  863TIP3    H224153   5.961   2.033   7.300
  864TIP3   OH224154   1.598   2.612   0.972
  864TIP3    H124155   1.647   2.688   1.005
  864TIP3    H224156   1.594   2.626   0.878
  865TIP3   OH224157   3.138   2.691   0.383
  865TIP3    H124158   3.197   2.719   0.453
  865TIP3    H224159   3.182   2.718   0.302
  866TIP3   OH224160   4.643   6.239   7.310
  866TIP3    H124161   4.644   6.258   7.404
  866TIP3    H224162   4.700   6.163   7.300
  867TIP3   OH224163   0.556   0.276   1.086
  867TIP3    H124164   0.602   0.246   1.164
  867TIP3    H224165   0.514   0.197   1.052
  868TIP3   OH224166   1.963   1.352   8.239
  868TIP3    H124167   1.923   1.269   8.214
  868TIP3    H224168   2.035   1.364   8.177
  869TIP3   OH224169   4.097   1.008   6.068
  869TIP3    H124170   4.028   1.073   6.052
  869TIP3    H224171   4.151   1.047   6.137
  870TIP3   OH224172   3.436   2.235   8.155
  870TIP3    H124173   3.346   2.208   8.136
  870TIP3    H224174   3.487   2.205   8.079
  871TIP3   OH224175   4.396   6.017   7.541
  871TIP3    H124176   4.338   6.081   7.499
  871TIP3    H224177   4.338   5.946   7.568
  872TIP3   OH224178   3.103   6.518   7.878
  872TIP3    H124179   3.159   6.528   7.955
  872TIP3    H224180   3.113   6.601   7.831
  873TIP3   OH224181   4.340   0.777   2.312
  873TIP3    H124182   4.343   0.844   2.379
  873TIP3    H224183   4.280   0.812   2.246
  874TIP3   OH224184   6.282   1.847   0.167
  874TIP3    H124185   6.294   1.858   0.073
  874TIP3    H224186   6.211   1.783   0.175
  875TIP3   OH224187   0.768   2.473   7.841
  875TIP3    H124188   0.747   2.380   7.830
  875TIP3    H224189   0.862   2.474   7.860
  876TIP3   OH224190   4.504   6.548   7.570
  876TIP3    H124191   4.472   6.583   7.654
  876TIP3    H224192   4.426   6.545   7.514
  877TIP3   OH224193   5.829   6.525   7.841
  877TIP3    H124194   5.789   6.441   7.865
  877TIP3    H224195   5.918   6.520   7.876
  878TIP3   OH224196   1.225   4.495   8.212
  878TIP3    H124197   1.242   4.464   8.123
  878TIP3    H224198   1.147   4.446   8.239
  879TIP3   OH224199   0.080   6.897   8.281
  879TIP3    H124200   0.022   6.886   8.206
  879TIP3    H224201   0.133   6.974   8.260
  880TIP3   OH224202   3.270   3.191   7.167
  880TIP3    H124203   3.299   3.242   7.243
  880TIP3    H224204   3.349   3.143   7.139
  881TIP3   OH224205   3.990   5.466   1.507
  881TIP3    H124206   4.005   5.384   1.553
  881TIP3    H224207   4.011   5.447   1.416
  882TIP3   OH224208   0.324   3.239   6.567
  882TIP3    H124209   0.361   3.152   6.555
  882TIP3    H224210   0.244   3.224   6.618
  883TIP3   OH224211   3.143   0.387   6.536
  883TIP3    H124212   3.133   0.331   6.459
  883TIP3    H224213   3.231   0.424   6.527
  884TIP3   OH224214   4.697   5.351   1.970
  884TIP3    H124215   4.775   5.341   2.025
  884TIP3    H224216   4.685   5.446   1.963
  885TIP3   OH224217   5.163   1.224   0.915
  885TIP3    H124218   5.215   1.283   0.860
  885TIP3    H224219   5.138   1.278   0.990
  886TIP3   OH224220   0.641   0.687   7.985
  886TIP3    H124221   0.628   0.720   8.074
  886TIP3    H224222   0.735   0.669   7.979
  887TIP3   OH224223   1.087   4.124   6.445
  887TIP3    H124224   1.151   4.108   6.376
  887TIP3    H224225   1.032   4.195   6.412
  888TIP3   OH224226   3.532   1.563   7.947
  888TIP3    H124227   3.531   1.658   7.939
  888TIP3    H224228   3.537   1.547   8.041
  889TIP3   OH224229   3.328   1.856   1.726
  889TIP3    H124230   3.289   1.932   1.769
  889TIP3    H224231   3.254   1.798   1.709
  890TIP3   OH224232   6.743   0.759   7.637
  890TIP3    H124233   6.767   0.697   7.706
  890TIP3    H224234   6.669   0.808   7.674
  891TIP3   OH224235   2.157   2.790   7.349
  891TIP3    H124236   2.226   2.811   7.413
  891TIP3    H224237   2.077   2.826   7.388
  892TIP3   OH224238   6.756   1.123   1.500
  892TIP3    H124239   6.838   1.079   1.521
  892TIP3    H224240   6.708   1.126   1.583
  893TIP3   OH224241   5.887   6.537   1.954
  893TIP3    H124242   5.835   6.590   2.015
  893TIP3    H224243   5.928   6.601   1.896
  894TIP3   OH224244   3.759   1.864   0.647
  894TIP3    H124245   3.760   1.771   0.626
  894TIP3    H224246   3.772   1.868   0.742
  895TIP3   OH224247   1.401   5.217   0.057
  895TIP3    H124248   1.321   5.236   0.008
  895TIP3    H224249   1.431   5.303   0.087
  896TIP3   OH224250   6.698   2.230   1.736
  896TIP3    H124251   6.771   2.199   1.683
  896TIP3    H224252   6.736   2.247   1.822
  897TIP3   OH224253   2.671   1.948   0.549
  897TIP3    H124254   2.587   1.986   0.524
  897TIP3    H224255   2.678   1.965   0.643
  898TIP3   OH224256   6.726   4.566   1.762
  898TIP3    H124257   6.724   4.613   1.845
  898TIP3    H224258   6.643   4.587   1.720
  899TIP3   OH224259   6.247   6.176   1.211
  899TIP3    H124260   6.296   6.247   1.170
  899TIP3    H224261   6.312   6.125   1.258
  900TIP3   OH224262   1.357   4.761   8.267
  900TIP3    H124263   1.303   4.687   8.238
  900TIP3    H224264   1.308   4.799   8.340
  901TIP3   OH224265   4.126   4.343   7.666
  901TIP3    H124266   4.204   4.376   7.622
  901TIP3    H224267   4.094   4.273   7.610
  902TIP3   OH224268   2.739   5.637   6.668
  902TIP3    H124269   2.821   5.656   6.623
  902TIP3    H224270   2.675   5.627   6.597
  903TIP3   OH224271   5.596   2.226   1.232
  903TIP3    H124272   5.653   2.299   1.211
  903TIP3    H224273   5.528   2.264   1.288
  904TIP3   OH224274   2.438   0.477   8.328
  904TIP3    H124275   2.524   0.519   8.330
  904TIP3    H224276   2.381   0.542   8.286
  905TIP3   OH224277   3.745   6.125   7.369
  905TIP3    H124278   3.798   6.094   7.443
  905TIP3    H224279   3.660   6.082   7.380
  906TIP3   OH224280   4.363   3.036   1.396
  906TIP3    H124281   4.328   3.102   1.455
  906TIP3    H224282   4.295   3.026   1.329
  907TIP3   OH224283   6.419   6.880   7.510
  907TIP3    H124284   6.487   6.896   7.444
  907TIP3    H224285   6.411   6.785   7.514
  908TIP3   OH224286   2.275   6.717   1.066
  908TIP3    H124287   2.308   6.806   1.057
  908TIP3    H224288   2.345   6.670   1.111
  909TIP3   OH224289   4.405   4.224   7.273
  909TIP3    H124290   4.408   4.168   7.195
  909TIP3    H224291   4.496   4.238   7.296
  910TIP3   OH224292   0.564   0.594   7.638
  910TIP3    H124293   0.631   0.598   7.706
  910TIP3    H224294   0.593   0.658   7.573
  911TIP3   OH224295   4.692   6.337   7.570
  911TIP3    H124296   4.715   6.330   7.663
  911TIP3    H224297   4.633   6.412   7.566
  912TIP3   OH224298   3.355   6.811   1.211
  912TIP3    H124299   3.449   6.800   1.224
  912TIP3    H224300   3.343   6.808   1.116
  913TIP3   OH224301   1.511   0.162   2.015
  913TIP3    H124302   1.523   0.185   2.107
  913TIP3    H224303   1.565   0.084   2.003
  914TIP3   OH224304   1.856   2.468   6.713
  914TIP3    H124305   1.807   2.525   6.771
  914TIP3    H224306   1.926   2.432   6.767
  915TIP3   OH224307   1.157   0.944   8.132
  915TIP3    H124308   1.249   0.965   8.148
  915TIP3    H224309   1.152   0.849   8.146
  916TIP3   OH224310   4.734   2.359   6.372
  916TIP3    H124311   4.651   2.314   6.363
  916TIP3    H224312   4.712   2.444   6.411
  917TIP3   OH224313   3.981   3.416   1.414
  917TIP3    H124314   4.057   3.456   1.457
  917TIP3    H224315   4.016   3.385   1.330
  918TIP3   OH224316   6.296   0.475   1.289
  918TIP3    H124317   6.280   0.538   1.219
  918TIP3    H224318   6.257   0.393   1.258
  919TIP3   OH224319   0.846   2.455   1.372
  919TIP3    H124320   0.794   2.505   1.309
  919TIP3    H224321   0.929   2.441   1.328
  920TIP3   OH224322   1.519   6.965   7.342
  920TIP3    H124323   1.514   6.994   7.251
  920TIP3    H224324   1.437   6.919   7.358
  921TIP3   OH224325   3.854   4.758   7.584
  921TIP3    H124326   3.789   4.744   7.514
  921TIP3    H224327   3.919   4.689   7.571
  922TIP3   OH224328   1.544   5.045   1.933
  922TIP3    H124329   1.616   5.039   1.870
  922TIP3    H224330   1.549   5.134   1.968
  923TIP3   OH224331   6.670   5.999   0.776
  923TIP3    H124332   6.662   5.915   0.819
  923TIP3    H224333   6.654   5.981   0.683
  924TIP3   OH224334   5.007   2.890   6.974
  924TIP3    H124335   5.037   2.970   7.017
  924TIP3    H224336   4.921   2.912   6.938
  925TIP3   OH224337   5.330   1.911   6.928
  925TIP3    H124338   5.395   1.897   6.997
  925TIP3    H224339   5.365   1.983   6.877
  926TIP3   OH224340   0.648   6.033   0.756
  926TIP3    H124341   0.705   5.962   0.787
  926TIP3    H224342   0.706   6.090   0.706
  927TIP3   OH224343   5.127   4.091   7.327
  927TIP3    H124344   5.083   4.023   7.276
  927TIP3    H224345   5.097   4.076   7.417
  928TIP3   OH224346   0.001   2.516   1.524
  928TIP3    H124347   0.069   2.465   1.568
  928TIP3    H224348  -0.002   2.599   1.572
  929TIP3   OH224349   6.946   5.259   6.367
  929TIP3    H124350   6.954   5.281   6.274
  929TIP3    H224351   7.033   5.275   6.404
  930TIP3   OH224352   1.802   6.833   0.177
  930TIP3    H124353   1.869   6.826   0.245
  930TIP3    H224354   1.826   6.766   0.113
  931TIP3   OH224355   3.801   2.956   1.524
  931TIP3    H124356   3.795   2.955   1.619
  931TIP3    H224357   3.832   2.869   1.501
  932TIP3   OH224358   0.929   1.513   1.496
  932TIP3    H124359   0.937   1.574   1.423
  932TIP3    H224360   0.965   1.560   1.571
  933TIP3   OH224361   2.166   0.825   1.131
  933TIP3    H124362   2.216   0.906   1.139
  933TIP3    H224363   2.075   0.850   1.150
  934TIP3   OH224364   6.553   5.316   1.420
  934TIP3    H124365   6.586   5.275   1.340
  934TIP3    H224366   6.601   5.398   1.426
  935TIP3   OH224367   4.790   0.677   8.315
  935TIP3    H124368   4.734   0.672   8.238
  935TIP3    H224369   4.878   0.690   8.280
  936TIP3   OH224370   6.659   2.474   0.991
  936TIP3    H124371   6.585   2.414   0.997
  936TIP3    H224372   6.736   2.418   1.001
  937TIP3   OH224373   6.499   4.768   1.901
  937TIP3    H124374   6.591   4.748   1.917
  937TIP3    H224375   6.456   4.683   1.896
  938TIP3   OH224376   4.036   1.375   8.303
  938TIP3    H124377   3.998   1.461   8.321
  938TIP3    H224378   4.130   1.390   8.304
  939TIP3   OH224379   6.161   5.179   0.276
  939TIP3    H124380   6.067   5.188   0.257
  939TIP3    H224381   6.183   5.261   0.321
  940TIP3   OH224382   4.062   0.007   0.900
  940TIP3    H124383   4.112   0.085   0.926
  940TIP3    H224384   4.027   0.029   0.814
  941TIP3   OH224385   6.984   0.447   1.006
  941TIP3    H124386   7.056   0.445   1.069
  941TIP3    H224387   6.949   0.535   1.011
  942TIP3   OH224388   3.454   4.078   1.549
  942TIP3    H124389   3.372   4.096   1.596
  942TIP3    H224390   3.434   4.097   1.457
  943TIP3   OH224391   2.632   2.429   1.025
  943TIP3    H124392   2.571   2.494   1.060
  943TIP3    H224393   2.717   2.472   1.029
  944TIP3   OH224394   3.292   4.431   0.785
  944TIP3    H124395   3.289   4.350   0.735
  944TIP3    H224396   3.282   4.500   0.720
  945TIP3   OH224397   2.971   0.840   7.508
  945TIP3    H124398   2.974   0.868   7.599
  945TIP3    H224399   3.017   0.757   7.506
  946TIP3   OH224400   6.613   1.746   8.192
  946TIP3    H124401   6.554   1.683   8.151
  946TIP3    H224402   6.604   1.730   8.286
  947TIP3   OH224403   1.393   0.479   0.241
  947TIP3    H124404   1.372   0.469   0.334
  947TIP3    H224405   1.470   0.425   0.227
  948TIP3   OH224406   6.371   1.011   7.785
  948TIP3    H124407   6.439   1.072   7.757
  948TIP3    H224408   6.295   1.067   7.803
  949TIP3   OH224409   4.136   1.474   0.234
  949TIP3    H124410   4.154   1.381   0.220
  949TIP3    H224411   4.216   1.518   0.206
  950TIP3   OH224412   3.931   0.113   0.672
  950TIP3    H124413   3.915   0.207   0.682
  950TIP3    H224414   3.844   0.074   0.671
  951TIP3   OH224415   3.733   4.878   1.459
  951TIP3    H124416   3.662   4.857   1.398
  951TIP3    H224417   3.690   4.928   1.529
  952TIP3   OH224418   0.602   4.285   7.274
  952TIP3    H124419   0.658   4.341   7.329
  952TIP3    H224420   0.650   4.278   7.192
  953TIP3   OH224421   0.246   5.203   7.456
  953TIP3    H124422   0.212   5.155   7.531
  953TIP3    H224423   0.173   5.258   7.427
  954TIP3   OH224424   4.171   6.185   8.280
  954TIP3    H124425   4.219   6.107   8.308
  954TIP3    H224426   4.232   6.231   8.222
  955TIP3   OH224427   6.593   4.322   1.660
  955TIP3    H124428   6.557   4.407   1.634
  955TIP3    H224429   6.645   4.341   1.738
  956TIP3   OH224430   4.813   4.261   6.227
  956TIP3    H124431   4.770   4.330   6.278
  956TIP3    H224432   4.752   4.188   6.229
  957TIP3   OH224433   4.912   6.474   2.346
  957TIP3    H124434   4.879   6.396   2.390
  957TIP3    H224435   4.962   6.440   2.271
  958TIP3   OH224436   3.578   1.099   1.122
  958TIP3    H124437   3.540   1.087   1.035
  958TIP3    H224438   3.559   1.191   1.144
  959TIP3   OH224439   6.423   1.035   1.898
  959TIP3    H124440   6.429   1.095   1.824
  959TIP3    H224441   6.378   1.085   1.966
  960TIP3   OH224442   0.458   5.991   1.737
  960TIP3    H124443   0.373   5.953   1.763
  960TIP3    H224444   0.439   6.082   1.717
  961TIP3   OH224445   4.402   4.559   0.590
  961TIP3    H124446   4.345   4.630   0.558
  961TIP3    H224447   4.342   4.486   0.605
  962TIP3   OH224448   3.982   0.070   1.815
  962TIP3    H124449   4.004   0.163   1.809
  962TIP3    H224450   4.021   0.031   1.737
  963TIP3   OH224451   4.932   4.701   6.217
  963TIP3    H124452   4.902   4.714   6.307
  963TIP3    H224453   4.868   4.642   6.178
  964TIP3   OH224454   3.935   6.248   0.125
  964TIP3    H124455   3.870   6.249   0.196
  964TIP3    H224456   3.907   6.176   0.068
  965TIP3   OH224457   0.398   3.622   7.388
  965TIP3    H124458   0.450   3.548   7.422
  965TIP3    H224459   0.453   3.698   7.404
  966TIP3   OH224460   5.176   5.940   8.395
  966TIP3    H124461   5.216   6.026   8.390
  966TIP3    H224462   5.248   5.881   8.418
  967TIP3   OH224463   6.274   3.744   1.705
  967TIP3    H124464   6.330   3.813   1.740
  967TIP3    H224465   6.240   3.699   1.782
  968TIP3   OH224466   6.327   2.103   0.838
  968TIP3    H124467   6.334   2.092   0.932
  968TIP3    H224468   6.239   2.073   0.816
  969TIP3   OH224469   0.310   2.730   1.146
  969TIP3    H124470   0.293   2.776   1.228
  969TIP3    H224471   0.264   2.646   1.155
  970TIP3   OH224472   0.290   0.576   8.141
  970TIP3    H124473   0.260   0.633   8.071
  970TIP3    H224474   0.306   0.634   8.215
  971TIP3   OH224475   5.250   3.100   0.183
  971TIP3    H124476   5.187   3.051   0.130
  971TIP3    H224477   5.248   3.189   0.148
  972TIP3   OH224478   4.027   0.465   6.301
  972TIP3    H124479   3.933   0.450   6.316
  972TIP3    H224480   4.071   0.412   6.367
  973TIP3   OH224481   0.814   5.281   1.408
  973TIP3    H124482   0.805   5.219   1.481
  973TIP3    H224483   0.759   5.245   1.339
  974TIP3   OH224484   6.492   2.425   8.330
  974TIP3    H124485   6.471   2.341   8.371
  974TIP3    H224486   6.538   2.474   8.399
  975TIP3   OH224487   5.897   3.326   6.103
  975TIP3    H124488   5.946   3.281   6.171
  975TIP3    H224489   5.815   3.276   6.095
  976TIP3   OH224490   3.500   2.142   0.937
  976TIP3    H124491   3.410   2.109   0.947
  976TIP3    H224492   3.553   2.081   0.988
  977TIP3   OH224493   2.526   1.257   6.393
  977TIP3    H124494   2.616   1.238   6.366
  977TIP3    H224495   2.474   1.185   6.357
  978TIP3   OH224496   0.681   6.326   7.136
  978TIP3    H124497   0.650   6.238   7.158
  978TIP3    H224498   0.714   6.317   7.046
  979TIP3   OH224499   4.969   5.475   2.038
  979TIP3    H124500   5.028   5.481   1.962
  979TIP3    H224501   4.897   5.534   2.017
  980TIP3   OH224502   1.296   0.085   6.209
  980TIP3    H124503   1.339   0.048   6.132
  980TIP3    H224504   1.203   0.067   6.195
  981TIP3   OH224505   6.975   2.571   0.477
  981TIP3    H124506   7.011   2.572   0.388
  981TIP3    H224507   7.023   2.639   0.523
  982TIP3   OH224508   6.902   2.289   7.406
  982TIP3    H124509   6.822   2.305   7.456
  982TIP3    H224510   6.884   2.211   7.354
  983TIP3   OH224511   6.326   2.065   1.101
  983TIP3    H124512   6.239   2.032   1.081
  983TIP3    H224513   6.353   2.016   1.179
  984TIP3   OH224514   2.401   2.350   1.606
  984TIP3    H124515   2.356   2.291   1.547
  984TIP3    H224516   2.365   2.437   1.585
  985TIP3   OH224517   3.011   6.231   2.002
  985TIP3    H124518   3.040   6.321   1.983
  985TIP3    H224519   2.933   6.243   2.055
  986TIP3   OH224520   1.757   0.892   0.431
  986TIP3    H124521   1.666   0.900   0.401
  986TIP3    H224522   1.809   0.894   0.350
  987TIP3   OH224523   1.538   3.415   1.044
  987TIP3    H124524   1.500   3.429   1.131
  987TIP3    H224525   1.463   3.415   0.985
  988TIP3   OH224526   3.319   5.548   1.163
  988TIP3    H124527   3.309   5.613   1.094
  988TIP3    H224528   3.379   5.588   1.226
  989TIP3   OH224529   2.657   0.370   0.785
  989TIP3    H124530   2.598   0.329   0.722
  989TIP3    H224531   2.605   0.440   0.825
  990TIP3   OH224532   3.299   2.256   6.657
  990TIP3    H124533   3.297   2.163   6.634
  990TIP3    H224534   3.230   2.295   6.604
  991TIP3   OH224535   4.851   2.288   0.771
  991TIP3    H124536   4.787   2.313   0.837
  991TIP3    H224537   4.932   2.330   0.799
  992TIP3   OH224538   3.658   4.947   0.020
  992TIP3    H124539   3.709   4.923   0.098
  992TIP3    H224540   3.571   4.970   0.054
  993TIP3   OH224541   1.425   2.407   7.853
  993TIP3    H124542   1.473   2.333   7.816
  993TIP3    H224543   1.421   2.470   7.781
  994TIP3   OH224544   6.886   0.467   7.180
  994TIP3    H124545   6.905   0.540   7.121
  994TIP3    H224546   6.918   0.496   7.265
  995TIP3   OH224547   2.801   1.158   7.433
  995TIP3    H124548   2.891   1.162   7.465
  995TIP3    H224549   2.800   1.215   7.356
  996TIP3   OH224550   6.873   0.733   8.371
  996TIP3    H124551   6.888   0.648   8.330
  996TIP3    H224552   6.938   0.737   8.442
  997TIP3   OH224553   4.171   1.730   7.574
  997TIP3    H124554   4.195   1.639   7.557
  997TIP3    H224555   4.253   1.778   7.569
  998TIP3   OH224556   1.478   6.069   7.265
  998TIP3    H124557   1.564   6.067   7.224
  998TIP3    H224558   1.474   5.989   7.317
  999TIP3   OH224559   3.886   3.137   6.095
  999TIP3    H124560   3.979   3.125   6.117
  999TIP3    H224561   3.886   3.208   6.032
 1000TIP3   OH224562   4.013   2.129   0.819
 1000TIP3    H124563   3.962   2.105   0.897
 1000TIP3    H224564   3.964   2.201   0.779
 1001TIP3   OH224565   0.358   5.433   1.219
 1001TIP3    H124566   0.364   5.461   1.128
 1001TIP3    H224567   0.445   5.449   1.255
 1002TIP3   OH224568   6.180   5.986   1.581
 1002TIP3    H124569   6.122   5.910   1.581
 1002TIP3    H224570   6.156   6.033   1.662
 1003TIP3   OH224571   5.613   0.762   7.498
 1003TIP3    H124572   5.701   0.785   7.529
 1003TIP3    H224573   5.628   0.687   7.441
 1004TIP3   OH224574   5.741   5.301   0.673
 1004TIP3    H124575   5.777   5.333   0.756
 1004TIP3    H224576   5.788   5.219   0.657
 1005TIP3   OH224577   3.484   6.266   8.369
 1005TIP3    H124578   3.433   6.247   8.290
 1005TIP3    H224579   3.435   6.224   8.440
 1006TIP3   OH224580   2.274   1.425   7.491
 1006TIP3    H124581   2.349   1.438   7.433
 1006TIP3    H224582   2.298   1.472   7.571
 1007TIP3   OH224583   4.293   2.154   2.344
 1007TIP3    H124584   4.326   2.224   2.289
 1007TIP3    H224585   4.350   2.079   2.326
 1008TIP3   OH224586   0.445   2.562   2.187
 1008TIP3    H124587   0.534   2.597   2.185
 1008TIP3    H224588   0.391   2.636   2.216
 1009TIP3   OH224589   3.389   1.322   0.242
 1009TIP3    H124590   3.469   1.339   0.293
 1009TIP3    H224591   3.318   1.354   0.298
 1010TIP3   OH224592   0.334   2.400   6.989
 1010TIP3    H124593   0.324   2.471   7.052
 1010TIP3    H224594   0.252   2.350   6.996
 1011TIP3   OH224595   0.353   0.844   6.392
 1011TIP3    H124596   0.294   0.887   6.329
 1011TIP3    H224597   0.413   0.913   6.420
 1012TIP3   OH224598   1.499   1.382   6.055
 1012TIP3    H124599   1.594   1.394   6.042
 1012TIP3    H224600   1.474   1.317   5.989
 1013TIP3   OH224601   1.705   4.359   1.193
 1013TIP3    H124602   1.672   4.270   1.207
 1013TIP3    H224603   1.647   4.396   1.127
 1014TIP3   OH224604   6.465   5.417   0.298
 1014TIP3    H124605   6.420   5.437   0.215
 1014TIP3    H224606   6.399   5.436   0.365
 1015TIP3   OH224607   3.403   6.041   8.094
 1015TIP3    H124608   3.334   5.990   8.051
 1015TIP3    H224609   3.462   5.976   8.131
 1016TIP3   OH224610   3.921   5.638   6.852
 1016TIP3    H124611   3.889   5.617   6.765
 1016TIP3    H224612   4.009   5.672   6.838
 1017TIP3   OH224613   5.949   0.196   7.579
 1017TIP3    H124614   5.927   0.224   7.490
 1017TIP3    H224615   5.883   0.132   7.602
 1018TIP3   OH224616   1.972   1.460   6.603
 1018TIP3    H124617   1.967   1.550   6.573
 1018TIP3    H224618   1.923   1.459   6.685
 1019TIP3   OH224619   1.820   6.133   0.221
 1019TIP3    H124620   1.725   6.141   0.207
 1019TIP3    H224621   1.856   6.120   0.133
 1020TIP3   OH224622   5.776   3.563   7.609
 1020TIP3    H124623   5.705   3.621   7.635
 1020TIP3    H224624   5.776   3.567   7.513
 1021TIP3   OH224625   6.160   0.145   1.401
 1021TIP3    H124626   6.249   0.110   1.410
 1021TIP3    H224627   6.125   0.100   1.324
 1022TIP3   OH224628   1.310   2.407   2.004
 1022TIP3    H124629   1.359   2.478   2.046
 1022TIP3    H224630   1.224   2.409   2.048
 1023TIP3   OH224631   3.745   5.982   1.551
 1023TIP3    H124632   3.835   5.991   1.583
 1023TIP3    H224633   3.750   6.003   1.458
 1024TIP3   OH224634   1.418   2.528   7.608
 1024TIP3    H124635   1.389   2.578   7.532
 1024TIP3    H224636   1.513   2.526   7.601
 1025TIP3   OH224637   6.730   6.803   2.307
 1025TIP3    H124638   6.682   6.776   2.386
 1025TIP3    H224639   6.734   6.724   2.254
 1026TIP3   OH224640   3.829   5.340   6.181
 1026TIP3    H124641   3.736   5.322   6.191
 1026TIP3    H224642   3.833   5.428   6.142
 1027TIP3   OH224643   2.414   1.235   6.739
 1027TIP3    H124644   2.384   1.287   6.814
 1027TIP3    H224645   2.333   1.210   6.694
 1028TIP3   OH224646   5.841   3.839   6.879
 1028TIP3    H124647   5.824   3.827   6.972
 1028TIP3    H224648   5.820   3.931   6.862
 1029TIP3   OH224649   4.596   0.356   1.214
 1029TIP3    H124650   4.592   0.274   1.262
 1029TIP3    H224651   4.505   0.378   1.195
 1030TIP3   OH224652   3.915   0.449   6.793
 1030TIP3    H124653   3.968   0.471   6.717
 1030TIP3    H224654   3.922   0.526   6.850
 1031TIP3   OH224655   1.555   1.752   1.919
 1031TIP3    H124656   1.553   1.656   1.925
 1031TIP3    H224657   1.645   1.773   1.897
 1032TIP3   OH224658   3.322   5.877   0.041
 1032TIP3    H124659   3.335   5.802   0.099
 1032TIP3    H224660   3.342   5.953   0.095
 1033TIP3   OH224661   1.443   1.200   5.870
 1033TIP3    H124662   1.364   1.168   5.827
 1033TIP3    H224663   1.504   1.127   5.866
 1034TIP3   OH224664   0.075   2.501   7.308
 1034TIP3    H124665   0.160   2.462   7.330
 1034TIP3    H224666   0.012   2.430   7.323
 1035TIP3   OH224667   1.021   1.443   0.538
 1035TIP3    H124668   1.110   1.424   0.570
 1035TIP3    H224669   0.974   1.361   0.548
 1036TIP3   OH224670   6.846   3.397   1.951
 1036TIP3    H124671   6.916   3.462   1.956
 1036TIP3    H224672   6.819   3.383   2.041
 1037TIP3   OH224673   4.366   5.362   6.419
 1037TIP3    H124674   4.280   5.321   6.424
 1037TIP3    H224675   4.421   5.309   6.476
 1038TIP3   OH224676   4.497   3.660   6.822
 1038TIP3    H124677   4.448   3.641   6.902
 1038TIP3    H224678   4.522   3.574   6.788
 1039TIP3   OH224679   2.677   5.102   7.424
 1039TIP3    H124680   2.657   5.017   7.385
 1039TIP3    H224681   2.646   5.095   7.514
 1040TIP3   OH224682   1.757   4.317   0.755
 1040TIP3    H124683   1.830   4.272   0.798
 1040TIP3    H224684   1.692   4.329   0.825
 1041TIP3   OH224685   0.123   2.506   1.219
 1041TIP3    H124686   0.194   2.458   1.261
 1041TIP3    H224687   0.083   2.557   1.291
 1042TIP3   OH224688   4.806   2.528   7.048
 1042TIP3    H124689   4.801   2.501   6.956
 1042TIP3    H224690   4.890   2.493   7.078
 1043TIP3   OH224691   4.293   0.467   0.573
 1043TIP3    H124692   4.310   0.425   0.488
 1043TIP3    H224693   4.278   0.394   0.633
 1044TIP3   OH224694   2.455   5.631   7.914
 1044TIP3    H124695   2.394   5.612   7.842
 1044TIP3    H224696   2.406   5.687   7.973
 1045TIP3   OH224697   6.287   0.579   6.698
 1045TIP3    H124698   6.205   0.571   6.649
 1045TIP3    H224699   6.268   0.643   6.767
 1046TIP3   OH224700   5.751   4.041   2.306
 1046TIP3    H124701   5.732   3.950   2.328
 1046TIP3    H224702   5.845   4.051   2.322
 1047TIP3   OH224703   6.718   0.217   1.229
 1047TIP3    H124704   6.716   0.300   1.277
 1047TIP3    H224705   6.657   0.230   1.156
 1048TIP3   OH224706   0.030   3.708   6.832
 1048TIP3    H124707  -0.012   3.648   6.894
 1048TIP3    H224708   0.091   3.653   6.784
 1049TIP3   OH224709   2.501   4.912   2.292
 1049TIP3    H124710   2.484   4.937   2.383
 1049TIP3    H224711   2.596   4.915   2.284
 1050TIP3   OH224712   3.784   4.048   7.015
 1050TIP3    H124713   3.792   3.958   7.047
 1050TIP3    H224714   3.874   4.077   7.002
 1051TIP3   OH224715   1.436   0.406   0.513
 1051TIP3    H124716   1.509   0.367   0.562
 1051TIP3    H224717   1.396   0.331   0.468
 1052TIP3   OH224718   3.598   5.350   6.722
 1052TIP3    H124719   3.597   5.409   6.646
 1052TIP3    H224720   3.660   5.282   6.699
 1053TIP3   OH224721   0.119   5.777   2.040
 1053TIP3    H124722   0.058   5.781   2.114
 1053TIP3    H224723   0.120   5.685   2.015
 1054TIP3   OH224724   1.480   4.955   0.093
 1054TIP3    H124725   1.464   5.046   0.118
 1054TIP3    H224726   1.575   4.944   0.101
 1055TIP3   OH224727   6.586   2.771   0.014
 1055TIP3    H124728   6.490   2.772   0.015
 1055TIP3    H224729   6.610   2.772   0.107
 1056TIP3   OH224730   3.947   0.213   6.934
 1056TIP3    H124731   3.979   0.137   6.884
 1056TIP3    H224732   3.943   0.284   6.869
 1057TIP3   OH224733   1.193   6.791   0.512
 1057TIP3    H124734   1.129   6.830   0.570
 1057TIP3    H224735   1.277   6.804   0.556
 1058TIP3   OH224736   4.268   4.823   1.560
 1058TIP3    H124737   4.208   4.872   1.503
 1058TIP3    H224738   4.250   4.731   1.539
 1059TIP3   OH224739   5.630   4.239   6.699
 1059TIP3    H124740   5.621   4.151   6.737
 1059TIP3    H224741   5.718   4.267   6.723
 1060TIP3   OH224742   1.503   0.863   6.108
 1060TIP3    H124743   1.571   0.930   6.114
 1060TIP3    H224744   1.423   0.907   6.136
 1061TIP3   OH224745   4.207   6.233   0.418
 1061TIP3    H124746   4.215   6.153   0.469
 1061TIP3    H224747   4.173   6.298   0.479
 1062TIP3   OH224748   1.268   3.681   1.585
 1062TIP3    H124749   1.188   3.714   1.545
 1062TIP3    H224750   1.276   3.728   1.668
 1063TIP3   OH224751   0.340   2.927   7.323
 1063TIP3    H124752   0.313   2.848   7.277
 1063TIP3    H224753   0.433   2.936   7.303
 1064TIP3   OH224754   5.295   4.776   1.016
 1064TIP3    H124755   5.258   4.689   1.034
 1064TIP3    H224756   5.229   4.837   1.047
 1065TIP3   OH224757   6.754   6.631   0.254
 1065TIP3    H124758   6.677   6.575   0.248
 1065TIP3    H224759   6.774   6.654   0.163
 1066TIP3   OH224760   0.183   0.757   6.598
 1066TIP3    H124761   0.156   0.679   6.549
 1066TIP3    H224762   0.242   0.804   6.539
 1067TIP3   OH224763   0.210   5.972   0.536
 1067TIP3    H124764   0.216   5.933   0.623
 1067TIP3    H224765   0.288   6.027   0.529
 1068TIP3   OH224766   4.365   4.107   8.204
 1068TIP3    H124767   4.420   4.163   8.260
 1068TIP3    H224768   4.427   4.056   8.153
 1069TIP3   OH224769   6.793   6.045   1.431
 1069TIP3    H124770   6.747   6.022   1.511
 1069TIP3    H224771   6.734   6.104   1.385
 1070TIP3   OH224772   2.888   4.939   6.973
 1070TIP3    H124773   2.814   4.879   6.974
 1070TIP3    H224774   2.923   4.932   6.883
 1071TIP3   OH224775   2.021   1.858   0.792
 1071TIP3    H124776   2.083   1.787   0.808
 1071TIP3    H224777   1.977   1.870   0.876
 1072TIP3   OH224778   2.806   5.699   1.177
 1072TIP3    H124779   2.780   5.791   1.184
 1072TIP3    H224780   2.901   5.701   1.170
 1073TIP3   OH224781   6.462   3.942   0.293
 1073TIP3    H124782   6.374   3.968   0.267
 1073TIP3    H224783   6.515   4.021   0.285
 1074TIP3   OH224784   6.058   0.382   0.346
 1074TIP3    H124785   6.063   0.287   0.341
 1074TIP3    H224786   6.081   0.403   0.436
 1075TIP3   OH224787   0.218   3.211   8.112
 1075TIP3    H124788   0.298   3.211   8.164
 1075TIP3    H224789   0.182   3.299   8.124
 1076TIP3   OH224790   6.233   5.554   1.654
 1076TIP3    H124791   6.151   5.583   1.693
 1076TIP3    H224792   6.290   5.538   1.729
 1077TIP3   OH224793   6.437   3.993   1.349
 1077TIP3    H124794   6.397   3.916   1.309
 1077TIP3    H224795   6.531   3.977   1.346
 1078TIP3   OH224796   3.720   6.956   8.363
 1078TIP3    H124797   3.793   6.927   8.417
 1078TIP3    H224798   3.656   6.885   8.368
 1079TIP3   OH224799   0.698   1.048   0.385
 1079TIP3    H124800   0.771   0.987   0.380
 1079TIP3    H224801   0.697   1.093   0.301
 1080TIP3   OH224802   6.038   1.711   0.222
 1080TIP3    H124803   5.984   1.662   0.160
 1080TIP3    H224804   5.975   1.763   0.272
 1081TIP3   OH224805   6.927   4.576   0.475
 1081TIP3    H124806   6.937   4.668   0.452
 1081TIP3    H224807   6.927   4.575   0.571
 1082TIP3   OH224808   4.977   2.950   7.567
 1082TIP3    H124809   4.988   2.872   7.621
 1082TIP3    H224810   4.898   2.992   7.600
 1083TIP3   OH224811   6.185   5.077   8.226
 1083TIP3    H124812   6.270   5.034   8.217
 1083TIP3    H224813   6.125   5.007   8.252
 1084TIP3   OH224814   0.500   1.678   7.487
 1084TIP3    H124815   0.568   1.711   7.427
 1084TIP3    H224816   0.422   1.727   7.464
 1085TIP3   OH224817   6.044   5.560   8.093
 1085TIP3    H124818   6.102   5.484   8.089
 1085TIP3    H224819   5.990   5.553   8.014
 1086TIP3   OH224820   6.357   6.159   1.455
 1086TIP3    H124821   6.284   6.216   1.430
 1086TIP3    H224822   6.316   6.083   1.496
 1087TIP3   OH224823   0.664   1.455   7.589
 1087TIP3    H124824   0.623   1.524   7.537
 1087TIP3    H224825   0.624   1.374   7.557
 1088TIP3   OH224826   0.700   2.564   7.042
 1088TIP3    H124827   0.650   2.492   7.004
 1088TIP3    H224828   0.731   2.614   6.967
 1089TIP3   OH224829   6.795   2.834   6.537
 1089TIP3    H124830   6.770   2.905   6.478
 1089TIP3    H224831   6.888   2.819   6.518
 1090TIP3   OH224832   4.882   3.865   6.872
 1090TIP3    H124833   4.902   3.798   6.806
 1090TIP3    H224834   4.944   3.935   6.855
 1091TIP3   OH224835   0.366   3.498   6.946
 1091TIP3    H124836   0.340   3.589   6.960
 1091TIP3    H224837   0.453   3.503   6.907
 1092TIP3   OH224838   6.583   4.568   1.507
 1092TIP3    H124839   6.573   4.657   1.474
 1092TIP3    H224840   6.499   4.526   1.491
 1093TIP3   OH224841   5.406   4.448   6.385
 1093TIP3    H124842   5.451   4.517   6.434
 1093TIP3    H224843   5.329   4.491   6.348
 1094TIP3   OH224844   4.275   1.879   7.057
 1094TIP3    H124845   4.273   1.844   6.968
 1094TIP3    H224846   4.367   1.871   7.084
 1095TIP3   OH224847   0.274   4.953   1.149
 1095TIP3    H124848   0.259   4.860   1.132
 1095TIP3    H224849   0.354   4.974   1.101
 1096TIP3   OH224850   6.840   4.358   6.874
 1096TIP3    H124851   6.913   4.308   6.839
 1096TIP3    H224852   6.876   4.445   6.892
 1097TIP3   OH224853   4.516   0.922   7.748
 1097TIP3    H124854   4.437   0.871   7.733
 1097TIP3    H224855   4.552   0.887   7.830
 1098TIP3   OH224856   6.659   1.617   6.815
 1098TIP3    H124857   6.576   1.571   6.804
 1098TIP3    H224858   6.698   1.578   6.893
 1099TIP3   OH224859   2.645   0.239   6.591
 1099TIP3    H124860   2.678   0.270   6.507
 1099TIP3    H224861   2.718   0.191   6.630
 1100TIP3   OH224862   1.406   2.835   6.829
 1100TIP3    H124863   1.419   2.929   6.841
 1100TIP3    H224864   1.377   2.804   6.915
 1101TIP3   OH224865   5.672   3.824   0.530
 1101TIP3    H124866   5.757   3.814   0.486
 1101TIP3    H224867   5.608   3.805   0.463
 1102TIP3   OH224868   1.566   0.238   0.747
 1102TIP3    H124869   1.565   0.142   0.747
 1102TIP3    H224870   1.573   0.262   0.840
 1103TIP3   OH224871   1.621   6.986   8.057
 1103TIP3    H124872   1.663   6.935   7.987
 1103TIP3    H224873   1.680   7.060   8.071
 1104TIP3   OH224874   4.345   2.142   0.359
 1104TIP3    H124875   4.334   2.209   0.427
 1104TIP3    H224876   4.256   2.128   0.326
 1105TIP3   OH224877   5.470   2.358   7.454
 1105TIP3    H124878   5.503   2.280   7.499
 1105TIP3    H224879   5.377   2.361   7.477
 1106TIP3   OH224880   1.758   5.828   2.114
 1106TIP3    H124881   1.812   5.780   2.052
 1106TIP3    H224882   1.672   5.785   2.109
 1107TIP3   OH224883   2.069   1.711   6.224
 1107TIP3    H124884   2.157   1.729   6.256
 1107TIP3    H224885   2.065   1.756   6.139
 1108TIP3   OH224886   4.208   3.717   6.958
 1108TIP3    H124887   4.213   3.675   6.872
 1108TIP3    H224888   4.225   3.810   6.940
 1109TIP3   OH224889   6.949   2.308   1.078
 1109TIP3    H124890   7.003   2.372   1.125
 1109TIP3    H224891   6.948   2.231   1.135
 1110TIP3   OH224892   4.100   4.121   7.923
 1110TIP3    H124893   4.143   4.204   7.939
 1110TIP3    H224894   4.010   4.144   7.900
 1111TIP3   OH224895   2.430   0.285   1.467
 1111TIP3    H124896   2.390   0.229   1.400
 1111TIP3    H224897   2.462   0.361   1.419
 1112TIP3   OH224898   0.066   2.559   0.225
 1112TIP3    H124899   0.018   2.531   0.148
 1112TIP3    H224900   0.093   2.649   0.205
 1113TIP3   OH224901   3.896   4.031   1.626
 1113TIP3    H124902   3.897   4.025   1.721
 1113TIP3    H224903   3.818   4.084   1.606
 1114TIP3   OH224904   5.638   5.727   0.558
 1114TIP3    H124905   5.725   5.694   0.538
 1114TIP3    H224906   5.652   5.794   0.625
 1115TIP3   OH224907   0.174   5.598   1.352
 1115TIP3    H124908   0.247   5.544   1.320
 1115TIP3    H224909   0.153   5.655   1.278
 1116TIP3   OH224910   6.809   4.951   1.361
 1116TIP3    H124911   6.838   5.041   1.373
 1116TIP3    H224912   6.845   4.905   1.437
 1117TIP3   OH224913   5.283   3.930   7.889
 1117TIP3    H124914   5.266   4.024   7.882
 1117TIP3    H224915   5.361   3.915   7.836
 1118TIP3   OH224916   4.835   0.744   1.180
 1118TIP3    H124917   4.895   0.678   1.214
 1118TIP3    H224918   4.890   0.804   1.129
 1119TIP3   OH224919   1.880   2.456   8.133
 1119TIP3    H124920   1.954   2.462   8.194
 1119TIP3    H224921   1.883   2.366   8.101
 1120TIP3   OH224922   2.872   6.747   7.831
 1120TIP3    H124923   2.905   6.702   7.910
 1120TIP3    H224924   2.949   6.789   7.794
 1121TIP3   OH224925   4.737   6.146   6.625
 1121TIP3    H124926   4.783   6.202   6.562
 1121TIP3    H224927   4.804   6.085   6.656
 1122TIP3   OH224928   6.741   4.049   0.063
 1122TIP3    H124929   6.829   4.080   0.042
 1122TIP3    H224930   6.698   4.124   0.103
 1123TIP3   OH224931   2.655   3.105   1.842
 1123TIP3    H124932   2.614   3.020   1.857
 1123TIP3    H224933   2.749   3.087   1.841
 1124TIP3   OH224934   1.080   6.968   8.302
 1124TIP3    H124935   1.122   6.884   8.320
 1124TIP3    H224936   1.105   7.024   8.376
 1125TIP3   OH224937   5.257   6.989   8.291
 1125TIP3    H124938   5.343   7.020   8.262
 1125TIP3    H224939   5.195   7.048   8.249
 1126TIP3   OH224940   4.236   3.713   0.135
 1126TIP3    H124941   4.274   3.713   0.223
 1126TIP3    H224942   4.157   3.660   0.143
 1127TIP3   OH224943   6.809   1.688   6.320
 1127TIP3    H124944   6.761   1.618   6.364
 1127TIP3    H224945   6.895   1.651   6.302
 1128TIP3   OH224946   1.869   1.268   0.921
 1128TIP3    H124947   1.804   1.325   0.880
 1128TIP3    H224948   1.918   1.230   0.848
 1129TIP3   OH224949   1.467   1.538   7.413
 1129TIP3    H124950   1.462   1.597   7.488
 1129TIP3    H224951   1.376   1.521   7.389
 1130TIP3   OH224952   2.313   1.615   7.745
 1130TIP3    H124953   2.232   1.609   7.695
 1130TIP3    H224954   2.288   1.663   7.824
 1131TIP3   OH224955   1.263   6.867   2.001
 1131TIP3    H124956   1.336   6.909   1.955
 1131TIP3    H224957   1.185   6.913   1.970
 1132TIP3   OH224958   5.669   5.731   1.736
 1132TIP3    H124959   5.599   5.700   1.678
 1132TIP3    H224960   5.732   5.660   1.739
 1133TIP3   OH224961   1.898   5.734   0.646
 1133TIP3    H124962   1.973   5.768   0.696
 1133TIP3    H224963   1.837   5.808   0.642
 1134TIP3   OH224964   0.592   4.238   2.112
 1134TIP3    H124965   0.611   4.264   2.202
 1134TIP3    H224966   0.586   4.142   2.115
 1135TIP3   OH224967   4.168   4.790   6.817
 1135TIP3    H124968   4.263   4.799   6.807
 1135TIP3    H224969   4.157   4.712   6.871
 1136TIP3   OH224970   2.425   1.801   0.801
 1136TIP3    H124971   2.385   1.849   0.728
 1136TIP3    H224972   2.403   1.709   0.783
 1137TIP3   OH224973   1.711   3.544   7.447
 1137TIP3    H124974   1.792   3.496   7.464
 1137TIP3    H224975   1.716   3.621   7.504
 1138TIP3   OH224976   2.012   1.989   2.280
 1138TIP3    H124977   1.983   1.989   2.188
 1138TIP3    H224978   1.948   2.043   2.326
 1139TIP3   OH224979   5.225   1.314   8.070
 1139TIP3    H124980   5.320   1.322   8.080
 1139TIP3    H224981   5.213   1.236   8.016
 1140TIP3   OH224982   3.941   2.644   7.775
 1140TIP3    H124983   3.980   2.662   7.861
 1140TIP3    H224984   3.867   2.703   7.769
 1141TIP3   OH224985   2.488   4.583   8.185
 1141TIP3    H124986   2.488   4.631   8.268
 1141TIP3    H224987   2.477   4.491   8.211
 1142TIP3   OH224988   4.353   1.312   7.066
 1142TIP3    H124989   4.403   1.329   6.986
 1142TIP3    H224990   4.349   1.397   7.109
 1143TIP3   OH224991   3.645   0.289   1.313
 1143TIP3    H124992   3.627   0.346   1.239
 1143TIP3    H224993   3.573   0.226   1.313
 1144TIP3   OH224994   2.928   0.452   0.698
 1144TIP3    H124995   2.861   0.400   0.743
 1144TIP3    H224996   3.010   0.431   0.744
 1145TIP3   OH224997   1.475   2.290   0.643
 1145TIP3    H124998   1.461   2.297   0.549
 1145TIP3    H224999   1.538   2.218   0.653
 1146TIP3   OH225000   1.963   0.835   0.253
 1146TIP3    H125001   1.960   0.750   0.208
 1146TIP3    H225002   2.039   0.829   0.310
 1147TIP3   OH225003   6.750   4.957   0.252
 1147TIP3    H125004   6.686   4.973   0.183
 1147TIP3    H225005   6.749   4.862   0.264
 1148TIP3   OH225006   4.831   5.979   0.337
 1148TIP3    H125007   4.810   6.022   0.254
 1148TIP3    H225008   4.878   5.900   0.312
 1149TIP3   OH225009   5.304   2.834   0.940
 1149TIP3    H125010   5.238   2.875   0.884
 1149TIP3    H225011   5.381   2.825   0.883
 1150TIP3   OH225012   0.412   5.749   1.386
 1150TIP3    H125013   0.413   5.778   1.295
 1150TIP3    H225014   0.350   5.807   1.429
 1151TIP3   OH225015   5.938   3.539   0.428
 1151TIP3    H125016   5.966   3.455   0.392
 1151TIP3    H225017   5.842   3.534   0.428
 1152TIP3   OH225018   4.903   5.610   0.069
 1152TIP3    H125019   4.932   5.697   0.096
 1152TIP3    H225020   4.968   5.582   0.004
 1153TIP3   OH225021   2.626   3.287   2.060
 1153TIP3    H125022   2.636   3.244   1.975
 1153TIP3    H225023   2.704   3.342   2.068
 1154TIP3   OH225024   3.156   5.360   8.221
 1154TIP3    H125025   3.088   5.342   8.156
 1154TIP3    H225026   3.110   5.358   8.305
 1155TIP3   OH225027   2.481   4.375   0.170
 1155TIP3    H125028   2.434   4.313   0.226
 1155TIP3    H225029   2.434   4.458   0.180
 1156TIP3   OH225030   2.576   1.448   7.854
 1156TIP3    H125031   2.587   1.540   7.828
 1156TIP3    H225032   2.576   1.400   7.771
 1157TIP3   OH225033   2.537   5.974   8.043
 1157TIP3    H125034   2.567   5.906   8.103
 1157TIP3    H225035   2.459   5.937   8.002
 1158TIP3   OH225036   1.576   3.091   1.069
 1158TIP3    H125037   1.606   3.102   0.978
 1158TIP3    H225038   1.481   3.099   1.064
 1159TIP3   OH225039   2.714   4.490   7.058
 1159TIP3    H125040   2.629   4.473   7.018
 1159TIP3    H225041   2.778   4.463   6.992
 1160TIP3   OH225042   3.467   5.649   6.538
 1160TIP3    H125043   3.501   5.735   6.515
 1160TIP3    H225044   3.455   5.605   6.454
 1161TIP3   OH225045   2.280   3.579   1.085
 1161TIP3    H125046   2.276   3.525   1.006
 1161TIP3    H225047   2.339   3.651   1.062
 1162TIP3   OH225048   6.540   6.788   6.800
 1162TIP3    H125049   6.454   6.831   6.796
 1162TIP3    H225050   6.552   6.767   6.892
 1163TIP3   OH225051   1.782   0.023   1.637
 1163TIP3    H125052   1.760   0.115   1.651
 1163TIP3    H225053   1.710  -0.011   1.583
 1164TIP3   OH225054   2.865   4.410   0.765
 1164TIP3    H125055   2.914   4.329   0.751
 1164TIP3    H225056   2.799   4.387   0.831
 1165TIP3   OH225057   6.056   6.977   0.434
 1165TIP3    H125058   6.093   6.907   0.488
 1165TIP3    H225059   5.984   7.012   0.486
 1166TIP3   OH225060   0.279   3.612   7.692
 1166TIP3    H125061   0.244   3.535   7.736
 1166TIP3    H225062   0.208   3.642   7.634
 1167TIP3   OH225063   1.598   4.601   8.176
 1167TIP3    H125064   1.586   4.696   8.182
 1167TIP3    H225065   1.537   4.566   8.241
 1168TIP3   OH225066   2.380   0.448   7.695
 1168TIP3    H125067   2.438   0.373   7.711
 1168TIP3    H225068   2.314   0.415   7.634
 1169TIP3   OH225069   2.980   4.095   8.227
 1169TIP3    H125070   2.891   4.129   8.213
 1169TIP3    H225071   2.990   4.091   8.322
 1170TIP3   OH225072   0.263   1.052   6.253
 1170TIP3    H125073   0.175   1.044   6.292
 1170TIP3    H225074   0.290   1.141   6.276
 1171TIP3   OH225075   5.661   3.354   8.279
 1171TIP3    H125076   5.647   3.428   8.221
 1171TIP3    H225077   5.656   3.390   8.367
 1172TIP3   OH225078   4.591   4.546   7.453
 1172TIP3    H125079   4.534   4.540   7.377
 1172TIP3    H225080   4.660   4.608   7.427
 1173TIP3   OH225081   0.958   4.762   0.255
 1173TIP3    H125082   0.909   4.834   0.295
 1173TIP3    H225083   1.040   4.759   0.303
 1174TIP3   OH225084   6.915   3.582   8.157
 1174TIP3    H125085   6.984   3.526   8.193
 1174TIP3    H225086   6.914   3.659   8.214
 1175TIP3   OH225087   1.831   6.694   6.616
 1175TIP3    H125088   1.865   6.776   6.652
 1175TIP3    H225089   1.854   6.696   6.524
 1176TIP3   OH225090   1.716   4.846   7.585
 1176TIP3    H125091   1.682   4.933   7.563
 1176TIP3    H225092   1.704   4.795   7.504
 1177TIP3   OH225093   3.835   4.060   0.135
 1177TIP3    H125094   3.891   4.000   0.084
 1177TIP3    H225095   3.860   4.147   0.105
 1178TIP3   OH225096   1.719   0.834   2.240
 1178TIP3    H125097   1.649   0.773   2.264
 1178TIP3    H225098   1.796   0.804   2.289
 1179TIP3   OH225099   6.079   6.053   0.222
 1179TIP3    H125100   5.992   6.066   0.259
 1179TIP3    H225101   6.074   5.967   0.180
 1180TIP3   OH225102   0.689   6.785   1.082
 1180TIP3    H125103   0.615   6.804   1.139
 1180TIP3    H225104   0.665   6.705   1.037
 1181TIP3   OH225105   2.129   5.007   1.552
 1181TIP3    H125106   2.094   5.062   1.481
 1181TIP3    H225107   2.164   4.930   1.507
 1182TIP3   OH225108   1.787   0.944   6.631
 1182TIP3    H125109   1.856   0.930   6.696
 1182TIP3    H225110   1.715   0.889   6.660
 1183TIP3   OH225111   2.277   4.261   6.935
 1183TIP3    H125112   2.213   4.326   6.907
 1183TIP3    H225113   2.245   4.178   6.901
 1184TIP3   OH225114   4.457   3.138   8.311
 1184TIP3    H125115   4.498   3.074   8.370
 1184TIP3    H225116   4.365   3.136   8.335
 1185TIP3   OH225117   0.666   1.195   7.081
 1185TIP3    H125118   0.646   1.276   7.128
 1185TIP3    H225119   0.591   1.182   7.022
 1186TIP3   OH225120   0.962   2.405   8.149
 1186TIP3    H125121   0.957   2.342   8.221
 1186TIP3    H225122   0.912   2.481   8.180
 1187TIP3   OH225123   4.351   5.942   7.128
 1187TIP3    H125124   4.384   5.855   7.152
 1187TIP3    H225125   4.320   5.932   7.038
 1188TIP3   OH225126   1.693   1.677   0.325
 1188TIP3    H125127   1.765   1.627   0.365
 1188TIP3    H225128   1.713   1.768   0.345
 1189TIP3   OH225129   6.624   0.196   0.624
 1189TIP3    H125130   6.554   0.155   0.676
 1189TIP3    H225131   6.660   0.263   0.682
 1190TIP3   OH225132   5.240   4.276   6.965
 1190TIP3    H125133   5.324   4.263   6.920
 1190TIP3    H225134   5.265   4.309   7.051
 1191TIP3   OH225135   1.497   6.658   1.520
 1191TIP3    H125136   1.563   6.628   1.583
 1191TIP3    H225137   1.413   6.638   1.563
 1192TIP3   OH225138   0.149   5.707   6.719
 1192TIP3    H125139   0.226   5.660   6.750
 1192TIP3    H225140   0.170   5.800   6.732
 1193TIP3   OH225141   5.480   1.906   2.103
 1193TIP3    H125142   5.487   1.991   2.145
 1193TIP3    H225143   5.571   1.875   2.097
 1194TIP3   OH225144   0.589   4.130   6.888
 1194TIP3    H125145   0.618   4.213   6.926
 1194TIP3    H225146   0.514   4.104   6.942
 1195TIP3   OH225147   1.169   2.420   7.558
 1195TIP3    H125148   1.253   2.443   7.598
 1195TIP3    H225149   1.105   2.474   7.605
 1196TIP3   OH225150   5.776   5.360   7.250
 1196TIP3    H125151   5.808   5.288   7.306
 1196TIP3    H225152   5.814   5.439   7.290
 1197TIP3   OH225153   6.141   5.477   0.355
 1197TIP3    H125154   6.053   5.468   0.391
 1197TIP3    H225155   6.196   5.497   0.431
 1198TIP3   OH225156   2.287   5.572   7.723
 1198TIP3    H125157   2.207   5.623   7.733
 1198TIP3    H225158   2.278   5.531   7.637
 1199TIP3   OH225159   5.964   5.130   6.823
 1199TIP3    H125160   5.889   5.099   6.772
 1199TIP3    H225161   5.935   5.212   6.861
 1200TIP3   OH225162   2.711   0.615   8.315
 1200TIP3    H125163   2.795   0.658   8.329
 1200TIP3    H225164   2.703   0.607   8.220
 1201TIP3   OH225165   2.458   3.142   1.224
 1201TIP3    H125166   2.539   3.181   1.257
 1201TIP3    H225167   2.456   3.054   1.261
 1202TIP3   OH225168   1.799   1.924   0.118
 1202TIP3    H125169   1.841   1.987   0.059
 1202TIP3    H225170   1.759   1.859   0.060
 1203TIP3   OH225171   4.282   2.162   7.791
 1203TIP3    H125172   4.293   2.098   7.721
 1203TIP3    H225173   4.308   2.245   7.753
 1204TIP3   OH225174   6.361   0.143   6.555
 1204TIP3    H125175   6.445   0.098   6.551
 1204TIP3    H225176   6.296   0.073   6.545
 1205TIP3   OH225177   6.185   1.583   7.377
 1205TIP3    H125178   6.184   1.487   7.376
 1205TIP3    H225179   6.128   1.606   7.450
 1206TIP3   OH225180   5.821   1.952   7.542
 1206TIP3    H125181   5.772   1.874   7.567
 1206TIP3    H225182   5.831   2.002   7.623
 1207TIP3   OH225183   3.792   0.992   0.371
 1207TIP3    H125184   3.864   1.028   0.422
 1207TIP3    H225185   3.754   1.069   0.327
 1208TIP3   OH225186   3.604   6.179   7.768
 1208TIP3    H125187   3.575   6.222   7.849
 1208TIP3    H225188   3.642   6.250   7.716
 1209TIP3   OH225189   4.562   1.511   7.139
 1209TIP3    H125190   4.561   1.599   7.176
 1209TIP3    H225191   4.608   1.458   7.204
 1210TIP3   OH225192   4.241   1.012   8.300
 1210TIP3    H125193   4.196   1.002   8.384
 1210TIP3    H225194   4.173   1.039   8.239
 1211TIP3   OH225195   0.675   0.569   6.611
 1211TIP3    H125196   0.729   0.631   6.660
 1211TIP3    H225197   0.732   0.539   6.540
 1212TIP3   OH225198   0.325   2.044   7.683
 1212TIP3    H125199   0.348   2.125   7.729
 1212TIP3    H225200   0.235   2.027   7.707
 1213TIP3   OH225201   2.260   5.045   7.551
 1213TIP3    H125202   2.308   5.070   7.472
 1213TIP3    H225203   2.261   4.949   7.549
 1214TIP3   OH225204   3.962   0.951   6.826
 1214TIP3    H125205   4.019   0.878   6.802
 1214TIP3    H225206   3.877   0.928   6.788
 1215TIP3   OH225207   3.819   6.605   7.495
 1215TIP3    H125208   3.910   6.636   7.490
 1215TIP3    H225209   3.824   6.514   7.464
 1216TIP3   OH225210   3.468   3.884   7.323
 1216TIP3    H125211   3.482   3.895   7.417
 1216TIP3    H225212   3.513   3.802   7.301
 1217TIP3   OH225213   0.482   4.347   7.648
 1217TIP3    H125214   0.451   4.435   7.623
 1217TIP3    H225215   0.528   4.361   7.730
 1218TIP3   OH225216   1.080   2.450   1.237
 1218TIP3    H125217   1.140   2.394   1.188
 1218TIP3    H225218   1.128   2.531   1.250
 1219TIP3   OH225219   2.001   3.679   8.343
 1219TIP3    H125220   1.988   3.649   8.253
 1219TIP3    H225221   1.914   3.706   8.372
 1220TIP3   OH225222   3.532   5.315   8.272
 1220TIP3    H125223   3.603   5.347   8.328
 1220TIP3    H225224   3.502   5.392   8.224
 1221TIP3   OH225225   4.083   5.257   7.256
 1221TIP3    H125226   4.049   5.333   7.209
 1221TIP3    H225227   4.028   5.184   7.227
 1222TIP3   OH225228   2.950   2.554   6.057
 1222TIP3    H125229   2.857   2.553   6.038
 1222TIP3    H225230   2.959   2.501   6.137
 1223TIP3   OH225231   5.443   1.226   0.259
 1223TIP3    H125232   5.508   1.230   0.329
 1223TIP3    H225233   5.469   1.295   0.197
 1224TIP3   OH225234   3.613   6.219   7.092
 1224TIP3    H125235   3.639   6.305   7.057
 1224TIP3    H225236   3.597   6.234   7.185
 1225TIP3   OH225237   4.508   4.054   0.184
 1225TIP3    H125238   4.478   4.113   0.114
 1225TIP3    H225239   4.525   4.112   0.258
 1226TIP3   OH225240   1.579   3.136   1.685
 1226TIP3    H125241   1.557   3.162   1.774
 1226TIP3    H225242   1.505   3.082   1.657
 1227TIP3   OH225243   3.483   2.643   0.114
 1227TIP3    H125244   3.564   2.695   0.122
 1227TIP3    H225245   3.485   2.584   0.189
 1228TIP3   OH225246   3.923   1.695   7.996
 1228TIP3    H125247   3.980   1.719   8.069
 1228TIP3    H225248   3.966   1.732   7.919
 1229TIP3   OH225249   3.398   0.451   7.191
 1229TIP3    H125250   3.464   0.385   7.214
 1229TIP3    H225251   3.434   0.533   7.226
 1230TIP3   OH225252   4.298   0.807   7.680
 1230TIP3    H125253   4.221   0.825   7.734
 1230TIP3    H225254   4.273   0.730   7.629
 1231TIP3   OH225255   4.079   5.354   6.348
 1231TIP3    H125256   3.999   5.361   6.296
 1231TIP3    H225257   4.128   5.434   6.329
 1232TIP3   OH225258   6.467   4.708   1.197
 1232TIP3    H125259   6.394   4.764   1.224
 1232TIP3    H225260   6.427   4.642   1.140
 1233TIP3   OH225261   2.618   1.681   8.336
 1233TIP3    H125262   2.544   1.628   8.305
 1233TIP3    H225263   2.642   1.641   8.420
 1234TIP3   OH225264   2.338   5.269   6.936
 1234TIP3    H125265   2.395   5.198   6.964
 1234TIP3    H225266   2.350   5.337   7.002
 1235TIP3   OH225267   0.528   1.548   8.407
 1235TIP3    H125268   0.474   1.562   8.485
 1235TIP3    H225269   0.505   1.460   8.377
 1236TIP3   OH225270   6.281   3.495   7.395
 1236TIP3    H125271   6.267   3.579   7.439
 1236TIP3    H225272   6.194   3.456   7.389
 1237TIP3   OH225273   0.315   0.510   7.547
 1237TIP3    H125274   0.404   0.536   7.570
 1237TIP3    H225275   0.325   0.454   7.471
 1238TIP3   OH225276   3.884   6.491   7.072
 1238TIP3    H125277   3.888   6.501   6.977
 1238TIP3    H225278   3.791   6.490   7.093
 1239TIP3   OH225279   3.834   1.947   7.057
 1239TIP3    H125280   3.755   1.896   7.038
 1239TIP3    H225281   3.828   2.024   6.999
 1240TIP3   OH225282   0.171   4.643   2.497
 1240TIP3    H125283   0.146   4.681   2.414
 1240TIP3    H225284   0.092   4.599   2.529
 1241TIP3   OH225285   3.108   6.948   1.313
 1241TIP3    H125286   3.151   6.975   1.232
 1241TIP3    H225287   3.125   7.020   1.375
 1242TIP3   OH225288   1.112   5.953   7.928
 1242TIP3    H125289   1.017   5.940   7.928
 1242TIP3    H225290   1.134   5.968   8.020
 1243TIP3   OH225291   1.938   3.902   1.094
 1243TIP3    H125292   1.927   3.819   1.141
 1243TIP3    H225293   1.941   3.878   1.002
 1244TIP3   OH225294   5.596   0.568   7.157
 1244TIP3    H125295   5.604   0.528   7.243
 1244TIP3    H225296   5.507   0.602   7.154
 1245TIP3   OH225297   1.260   1.722   2.111
 1245TIP3    H125298   1.259   1.682   2.024
 1245TIP3    H225299   1.297   1.654   2.168
 1246TIP3   OH225300   4.745   5.385   7.452
 1246TIP3    H125301   4.676   5.330   7.417
 1246TIP3    H225302   4.699   5.457   7.496
 1247TIP3   OH225303   4.029   3.218   7.257
 1247TIP3    H125304   4.002   3.152   7.321
 1247TIP3    H225305   4.095   3.270   7.302
 1248TIP3   OH225306   2.645   2.218   6.272
 1248TIP3    H125307   2.627   2.311   6.262
 1248TIP3    H225308   2.631   2.182   6.184
 1249TIP3   OH225309   1.747   1.455   7.566
 1249TIP3    H125310   1.796   1.378   7.594
 1249TIP3    H225311   1.772   1.524   7.627
 1250TIP3   OH225312   4.962   1.848   1.072
 1250TIP3    H125313   4.975   1.758   1.102
 1250TIP3    H225314   5.039   1.866   1.018
 1251TIP3   OH225315   6.088   0.272   0.798
 1251TIP3    H125316   6.161   0.210   0.798
 1251TIP3    H225317   6.114   0.339   0.735
 1252TIP3   OH225318   5.020   4.418   6.738
 1252TIP3    H125319   5.108   4.390   6.714
 1252TIP3    H225320   5.011   4.396   6.830
 1253TIP3   OH225321   6.906   0.933   7.050
 1253TIP3    H125322   6.826   0.986   7.054
 1253TIP3    H225323   6.906   0.896   6.962
 1254TIP3   OH225324   1.858   0.517   7.417
 1254TIP3    H125325   1.867   0.555   7.329
 1254TIP3    H225326   1.787   0.453   7.408
 1255TIP3   OH225327   0.592   3.351   7.825
 1255TIP3    H125328   0.593   3.360   7.920
 1255TIP3    H225329   0.676   3.388   7.796
 1256TIP3   OH225330   3.216   6.419   7.069
 1256TIP3    H125331   3.234   6.494   7.013
 1256TIP3    H225332   3.172   6.356   7.012
 1257TIP3   OH225333   1.306   4.757   6.263
 1257TIP3    H125334   1.277   4.685   6.207
 1257TIP3    H225335   1.358   4.715   6.332
 1258TIP3   OH225336   4.596   1.369   2.204
 1258TIP3    H125337   4.579   1.277   2.227
 1258TIP3    H225338   4.676   1.366   2.153
 1259TIP3   OH225339   5.712   3.324   0.984
 1259TIP3    H125340   5.729   3.230   0.993
 1259TIP3    H225341   5.745   3.362   1.065
 1260TIP3   OH225342   6.600   5.589   6.768
 1260TIP3    H125343   6.538   5.603   6.697
 1260TIP3    H225344   6.679   5.635   6.741
 1261TIP3   OH225345   6.171   2.953   1.301
 1261TIP3    H125346   6.098   2.967   1.361
 1261TIP3    H225347   6.242   3.006   1.337
 1262TIP3   OH225348   1.501   4.453   7.604
 1262TIP3    H125349   1.488   4.540   7.642
 1262TIP3    H225350   1.536   4.400   7.676
 1263TIP3   OH225351   4.098   5.776   6.454
 1263TIP3    H125352   4.006   5.803   6.458
 1263TIP3    H225353   4.106   5.727   6.373
 1264TIP3   OH225354   2.452   5.139   1.830
 1264TIP3    H125355   2.376   5.166   1.777
 1264TIP3    H225356   2.413   5.096   1.906
 1265TIP3   OH225357   6.346   0.510   7.461
 1265TIP3    H125358   6.274   0.562   7.498
 1265TIP3    H225359   6.425   0.562   7.480
 1266TIP3   OH225360   2.668   4.721   7.520
 1266TIP3    H125361   2.600   4.658   7.500
 1266TIP3    H225362   2.671   4.779   7.443
 1267TIP3   OH225363   0.331   3.333   1.484
 1267TIP3    H125364   0.392   3.333   1.410
 1267TIP3    H225365   0.337   3.421   1.521
 1268TIP3   OH225366   2.331   3.886   1.494
 1268TIP3    H125367   2.254   3.832   1.482
 1268TIP3    H225368   2.341   3.892   1.589
 1269TIP3   OH225369   5.183   6.197   6.265
 1269TIP3    H125370   5.218   6.228   6.348
 1269TIP3    H225371   5.254   6.212   6.202
 1270TIP3   OH225372   3.804   3.829   1.438
 1270TIP3    H125373   3.885   3.798   1.397
 1270TIP3    H225374   3.830   3.905   1.490
 1271TIP3   OH225375   2.554   4.455   1.187
 1271TIP3    H125376   2.584   4.409   1.265
 1271TIP3    H225377   2.459   4.444   1.188
 1272TIP3   OH225378   1.451   6.511   0.210
 1272TIP3    H125379   1.516   6.560   0.260
 1272TIP3    H225380   1.448   6.557   0.125
 1273TIP3   OH225381   5.648   3.652   0.993
 1273TIP3    H125382   5.644   3.571   1.044
 1273TIP3    H225383   5.741   3.662   0.973
 1274TIP3   OH225384   4.706   3.709   1.729
 1274TIP3    H125385   4.671   3.782   1.779
 1274TIP3    H225386   4.635   3.683   1.671
 1275TIP3   OH225387   5.593   4.955   8.160
 1275TIP3    H125388   5.546   5.032   8.194
 1275TIP3    H225389   5.667   4.944   8.220
 1276TIP3   OH225390   6.176   5.923   6.815
 1276TIP3    H125391   6.083   5.904   6.799
 1276TIP3    H225392   6.177   5.963   6.902
 1277TIP3   OH225393   6.949   2.379   7.997
 1277TIP3    H125394   6.888   2.437   8.044
 1277TIP3    H225395   6.895   2.305   7.969
 1278TIP3   OH225396   4.020   3.999   1.244
 1278TIP3    H125397   4.005   3.980   1.151
 1278TIP3    H225398   4.050   3.916   1.281
 1279TIP3   OH225399   4.009   6.162   6.038
 1279TIP3    H125400   4.077   6.219   6.075
 1279TIP3    H225401   3.974   6.211   5.964
 1280TIP3   OH225402   2.992   4.664   7.286
 1280TIP3    H125403   2.925   4.641   7.350
 1280TIP3    H225404   3.019   4.581   7.248
 1281TIP3   OH225405   6.223   3.415   1.251
 1281TIP3    H125406   6.193   3.347   1.311
 1281TIP3    H225407   6.144   3.466   1.232
 1282TIP3   OH225408   3.987   6.191   1.126
 1282TIP3    H125409   4.076   6.159   1.115
 1282TIP3    H225410   3.974   6.250   1.051
 1283TIP3   OH225411   1.610   4.248   8.192
 1283TIP3    H125412   1.590   4.252   8.286
 1283TIP3    H225413   1.525   4.256   8.149
 1284TIP3   OH225414   6.784   2.487   0.649
 1284TIP3    H125415   6.798   2.554   0.716
 1284TIP3    H225416   6.845   2.510   0.579
 1285TIP3   OH225417   2.028   5.212   1.408
 1285TIP3    H125418   2.089   5.272   1.366
 1285TIP3    H225419   1.973   5.268   1.462
 1286TIP3   OH225420   4.613   2.643   6.358
 1286TIP3    H125421   4.560   2.712   6.398
 1286TIP3    H225422   4.552   2.593   6.304
 1287TIP3   OH225423   6.570   1.684   2.072
 1287TIP3    H125424   6.477   1.680   2.096
 1287TIP3    H225425   6.601   1.594   2.086
 1288TIP3   OH225426   5.599   2.317   6.943
 1288TIP3    H125427   5.577   2.410   6.943
 1288TIP3    H225428   5.669   2.309   6.878
 1289TIP3   OH225429   4.535   3.783   0.094
 1289TIP3    H125430   4.444   3.755   0.086
 1289TIP3    H225431   4.535   3.840   0.171
 1290TIP3   OH225432   6.394   2.591   6.329
 1290TIP3    H125433   6.429   2.679   6.344
 1290TIP3    H225434   6.330   2.602   6.260
 1291TIP3   OH225435   2.895   2.840   7.058
 1291TIP3    H125436   2.885   2.925   7.016
 1291TIP3    H225437   2.821   2.834   7.119
 1292TIP3   OH225438   6.572   0.941   0.967
 1292TIP3    H125439   6.650   0.949   0.912
 1292TIP3    H225440   6.605   0.950   1.056
 1293TIP3   OH225441   2.820   2.164   0.005
 1293TIP3    H125442   2.890   2.229   0.004
 1293TIP3    H225443   2.747   2.206  -0.042
 1294TIP3   OH225444   1.747   6.110   2.138
 1294TIP3    H125445   1.810   6.117   2.067
 1294TIP3    H225446   1.724   6.017   2.140
 1295TIP3   OH225447   5.769   1.498   1.401
 1295TIP3    H125448   5.706   1.520   1.469
 1295TIP3    H225449   5.815   1.580   1.383
 1296TIP3   OH225450   3.122   0.336   7.494
 1296TIP3    H125451   3.027   0.347   7.494
 1296TIP3    H225452   3.139   0.274   7.423
 1297TIP3   OH225453   6.488   2.603   1.536
 1297TIP3    H125454   6.571   2.610   1.583
 1297TIP3    H225455   6.500   2.657   1.458
 1298TIP3   OH225456   4.876   0.320   8.227
 1298TIP3    H125457   4.880   0.234   8.184
 1298TIP3    H225458   4.897   0.382   8.157
 1299TIP3   OH225459   6.829   1.768   0.836
 1299TIP3    H125460   6.746   1.809   0.814
 1299TIP3    H225461   6.894   1.813   0.782
 1300TIP3   OH225462   4.677   3.794   0.809
 1300TIP3    H125463   4.708   3.830   0.892
 1300TIP3    H225464   4.755   3.757   0.768
 1301TIP3   OH225465   1.955   6.589   1.145
 1301TIP3    H125466   1.974   6.584   1.051
 1301TIP3    H225467   1.916   6.675   1.157
 1302TIP3   OH225468   6.021   6.407   1.248
 1302TIP3    H125469   6.046   6.462   1.323
 1302TIP3    H225470   5.934   6.438   1.224
 1303TIP3   OH225471   0.613   2.898   7.315
 1303TIP3    H125472   0.642   2.809   7.334
 1303TIP3    H225473   0.686   2.953   7.346
 1304TIP3   OH225474   1.927   6.751   7.073
 1304TIP3    H125475   1.890   6.830   7.111
 1304TIP3    H225476   1.921   6.686   7.144
 1305TIP3   OH225477   0.245   6.473   0.077
 1305TIP3    H125478   0.322   6.425   0.046
 1305TIP3    H225479   0.265   6.565   0.060
 1306TIP3   OH225480   0.894   5.525   1.302
 1306TIP3    H125481   0.950   5.550   1.229
 1306TIP3    H225482   0.905   5.430   1.309
 1307TIP3   OH225483   6.218   0.639   2.240
 1307TIP3    H125484   6.193   0.553   2.274
 1307TIP3    H225485   6.197   0.635   2.147
 1308TIP3   OH225486   2.266   5.520   8.178
 1308TIP3    H125487   2.235   5.610   8.186
 1308TIP3    H225488   2.233   5.491   8.093
 1309TIP3   OH225489   6.072   5.658   7.727
 1309TIP3    H125490   6.051   5.565   7.728
 1309TIP3    H225491   6.000   5.699   7.679
 1310TIP3   OH225492   4.040   0.598   7.019
 1310TIP3    H125493   3.968   0.656   6.995
 1310TIP3    H225494   4.105   0.655   7.059
 1311TIP3   OH225495   1.677   0.365   0.193
 1311TIP3    H125496   1.720   0.332   0.113
 1311TIP3    H225497   1.703   0.303   0.261
 1312TIP3   OH225498   1.348   2.484   1.441
 1312TIP3    H125499   1.377   2.533   1.365
 1312TIP3    H225500   1.258   2.514   1.456
 1313TIP3   OH225501   0.895   5.814   5.530
 1313TIP3    H125502   0.977   5.789   5.488
 1313TIP3    H225503   0.837   5.739   5.517
 1314TIP3   OH225504   6.082   1.667   7.646
 1314TIP3    H125505   6.059   1.757   7.667
 1314TIP3    H225506   6.007   1.615   7.676
 1315TIP3   OH225507   3.530   4.731   8.006
 1315TIP3    H125508   3.489   4.807   7.964
 1315TIP3    H225509   3.546   4.670   7.934
 1316TIP3   OH225510   5.436   5.928   2.290
 1316TIP3    H125511   5.452   5.834   2.277
 1316TIP3    H225512   5.522   5.965   2.309
 1317TIP3   OH225513   3.212   2.889   7.426
 1317TIP3    H125514   3.221   2.803   7.466
 1317TIP3    H225515   3.219   2.873   7.332
 1318TIP3   OH225516   2.482   4.203   7.142
 1318TIP3    H125517   2.546   4.261   7.101
 1318TIP3    H225518   2.397   4.234   7.109
 1319TIP3   OH225519   2.344   6.068   0.126
 1319TIP3    H125520   2.285   6.127   0.174
 1319TIP3    H225521   2.428   6.113   0.125
 1320TIP3   OH225522   4.537   5.669   8.248
 1320TIP3    H125523   4.474   5.666   8.320
 1320TIP3    H225524   4.493   5.623   8.176
 1321TIP3   OH225525   5.428   4.000   0.555
 1321TIP3    H125526   5.515   3.965   0.571
 1321TIP3    H225527   5.442   4.080   0.506
 1322TIP3   OH225528   5.360   2.082   1.848
 1322TIP3    H125529   5.302   2.157   1.833
 1322TIP3    H225530   5.445   2.111   1.817
 1323TIP3   OH225531   2.395   5.900   1.193
 1323TIP3    H125532   2.375   5.823   1.246
 1323TIP3    H225533   2.344   5.888   1.113
 1324TIP3   OH225534   6.792   5.906   1.197
 1324TIP3    H125535   6.794   5.948   1.283
 1324TIP3    H225536   6.819   5.975   1.136
 1325TIP3   OH225537   5.923   4.828   6.898
 1325TIP3    H125538   6.008   4.794   6.926
 1325TIP3    H225539   5.913   4.796   6.808
 1326TIP3   OH225540   2.972   1.988   7.965
 1326TIP3    H125541   2.920   1.908   7.965
 1326TIP3    H225542   3.038   1.973   7.898
 1327TIP3   OH225543   4.867   4.160   6.801
 1327TIP3    H125544   4.900   4.245   6.771
 1327TIP3    H225545   4.932   4.130   6.864
 1328TIP3   OH225546   0.152   6.203   7.372
 1328TIP3    H125547   0.082   6.142   7.349
 1328TIP3    H225548   0.199   6.161   7.443
 1329TIP3   OH225549   3.343   1.284   5.664
 1329TIP3    H125550   3.428   1.301   5.704
 1329TIP3    H225551   3.350   1.196   5.627
 1330TIP3   OH225552   3.499   1.684   6.691
 1330TIP3    H125553   3.438   1.718   6.626
 1330TIP3    H225554   3.507   1.754   6.756
 1331TIP3   OH225555   1.955   3.735   1.333
 1331TIP3    H125556   1.881   3.696   1.380
 1331TIP3    H225557   2.024   3.742   1.398
 1332TIP3   OH225558   5.805   0.714   1.841
 1332TIP3    H125559   5.882   0.733   1.788
 1332TIP3    H225560   5.821   0.626   1.876
 1333TIP3   OH225561   4.787   2.833   0.691
 1333TIP3    H125562   4.855   2.769   0.712
 1333TIP3    H225563   4.832   2.900   0.640
 1334TIP3   OH225564   2.071   3.482   2.349
 1334TIP3    H125565   2.137   3.426   2.390
 1334TIP3    H225566   2.003   3.421   2.320
 1335TIP3   OH225567   3.318   6.528   1.377
 1335TIP3    H125568   3.249   6.464   1.361
 1335TIP3    H225569   3.386   6.506   1.313
 1336TIP3   OH225570   1.186   2.201   1.121
 1336TIP3    H125571   1.166   2.233   1.033
 1336TIP3    H225572   1.167   2.107   1.118
 1337TIP3   OH225573   0.413   1.752   6.986
 1337TIP3    H125574   0.372   1.695   6.920
 1337TIP3    H225575   0.342   1.770   7.048
 1338TIP3   OH225576   3.680   5.222   0.787
 1338TIP3    H125577   3.729   5.277   0.727
 1338TIP3    H225578   3.630   5.283   0.841
 1339TIP3   OH225579   2.220   2.703   6.604
 1339TIP3    H125580   2.256   2.786   6.636
 1339TIP3    H225581   2.283   2.674   6.537
 1340TIP3   OH225582   2.510   3.841   7.599
 1340TIP3    H125583   2.605   3.834   7.602
 1340TIP3    H225584   2.490   3.853   7.506
 1341TIP3   OH225585   0.624   0.050   0.735
 1341TIP3    H125586   0.650   0.074   0.824
 1341TIP3    H225587   0.563  -0.023   0.747
 1342TIP3   OH225588   4.572   0.425   0.771
 1342TIP3    H125589   4.591   0.485   0.843
 1342TIP3    H225590   4.652   0.422   0.719
 1343TIP3   OH225591   0.386   3.112   1.062
 1343TIP3    H125592   0.339   3.123   0.980
 1343TIP3    H225593   0.418   3.021   1.060
 1344TIP3   OH225594   1.723   2.866   1.110
 1344TIP3    H125595   1.671   2.946   1.119
 1344TIP3    H225596   1.806   2.896   1.071
 1345TIP3   OH225597   2.703   6.400   6.980
 1345TIP3    H125598   2.703   6.487   6.940
 1345TIP3    H225599   2.617   6.394   7.023
 1346TIP3   OH225600   2.007   3.582   7.181
 1346TIP3    H125601   2.067   3.651   7.155
 1346TIP3    H225602   1.927   3.600   7.132
 1347TIP3   OH225603   1.834   2.161   2.371
 1347TIP3    H125604   1.765   2.188   2.310
 1347TIP3    H225605   1.788   2.111   2.439
 1348TIP3   OH225606   4.108   3.544   0.929
 1348TIP3    H125607   4.181   3.606   0.925
 1348TIP3    H225608   4.119   3.489   0.852
 1349TIP3   OH225609   5.644   2.920   7.942
 1349TIP3    H125610   5.664   2.994   7.999
 1349TIP3    H225611   5.619   2.961   7.858
 1350TIP3   OH225612   1.395   3.274   0.771
 1350TIP3    H125613   1.387   3.230   0.856
 1350TIP3    H225614   1.490   3.282   0.757
 1351TIP3   OH225615   1.373   6.458   1.685
 1351TIP3    H125616   1.366   6.435   1.778
 1351TIP3    H225617   1.463   6.436   1.662
 1352TIP3   OH225618   4.357   0.073   1.324
 1352TIP3    H125619   4.360  -0.021   1.341
 1352TIP3    H225620   4.342   0.080   1.230
 1353TIP3   OH225621   0.227   0.006   7.720
 1353TIP3    H125622   0.258  -0.068   7.669
 1353TIP3    H225623   0.258  -0.011   7.809
 1354TIP3   OH225624   4.379   6.547   1.045
 1354TIP3    H125625   4.443   6.515   1.110
 1354TIP3    H225626   4.405   6.637   1.028
 1355TIP3   OH225627   6.527   1.543   7.206
 1355TIP3    H125628   6.514   1.448   7.207
 1355TIP3    H225629   6.525   1.567   7.114
 1356TIP3   OH225630   4.340   1.283   1.773
 1356TIP3    H125631   4.408   1.262   1.838
 1356TIP3    H225632   4.271   1.218   1.788
 1357TIP3   OH225633   4.611   6.525   1.679
 1357TIP3    H125634   4.559   6.543   1.757
 1357TIP3    H225635   4.584   6.437   1.652
 1358TIP3   OH225636   6.010   6.856   8.100
 1358TIP3    H125637   5.956   6.825   8.028
 1358TIP3    H225638   5.976   6.811   8.177
 1359TIP3   OH225639   0.322   5.895   7.163
 1359TIP3    H125640   0.238   5.878   7.120
 1359TIP3    H225641   0.317   5.847   7.245
 1360TIP3   OH225642   2.693   1.810   6.851
 1360TIP3    H125643   2.635   1.873   6.809
 1360TIP3    H225644   2.769   1.804   6.792
 1361TIP3   OH225645   3.933   4.595   0.026
 1361TIP3    H125646   3.890   4.605  -0.059
 1361TIP3    H225647   3.963   4.683   0.048
 1362TIP3   OH225648   2.833   1.971   0.308
 1362TIP3    H125649   2.781   1.936   0.380
 1362TIP3    H225650   2.769   1.995   0.242
 1363TIP3   OH225651   0.851   3.861   7.201
 1363TIP3    H125652   0.775   3.820   7.160
 1363TIP3    H225653   0.814   3.926   7.261
 1364TIP3   OH225654   4.989   5.212   0.030
 1364TIP3    H125655   5.018   5.297  -0.002
 1364TIP3    H225656   5.030   5.203   0.116
 1365TIP3   OH225657   4.996   3.119   2.256
 1365TIP3    H125658   4.951   3.204   2.264
 1365TIP3    H225659   4.957   3.065   2.325
 1366TIP3   OH225660   5.285   3.655   7.132
 1366TIP3    H125661   5.343   3.586   7.098
 1366TIP3    H225662   5.235   3.612   7.201
 1367TIP3   OH225663   6.499   4.968   2.150
 1367TIP3    H125664   6.593   4.958   2.166
 1367TIP3    H225665   6.481   4.911   2.075
 1368TIP3   OH225666   1.832   4.168   6.404
 1368TIP3    H125667   1.745   4.131   6.388
 1368TIP3    H225668   1.823   4.261   6.382
 1369TIP3   OH225669   4.765   1.097   1.509
 1369TIP3    H125670   4.748   1.062   1.422
 1369TIP3    H225671   4.861   1.094   1.517
 1370TIP3   OH225672   4.786   0.043   8.338
 1370TIP3    H125673   4.723   0.009   8.274
 1370TIP3    H225674   4.746   0.124   8.370
 1371TIP3   OH225675   2.463   4.294   8.303
 1371TIP3    H125676   2.409   4.218   8.326
 1371TIP3    H225677   2.482   4.336   8.387
 1372TIP3   OH225678   6.115   0.207   7.156
 1372TIP3    H125679   6.131   0.241   7.068
 1372TIP3    H225680   6.194   0.230   7.205
 1373TIP3   OH225681   6.023   6.497   7.393
 1373TIP3    H125682   6.079   6.518   7.467
 1373TIP3    H225683   6.037   6.568   7.331
 1374TIP3   OH225684   5.395   5.180   1.261
 1374TIP3    H125685   5.464   5.115   1.249
 1374TIP3    H225686   5.399   5.235   1.183
 1375TIP3   OH225687   4.200   0.795   6.692
 1375TIP3    H125688   4.284   0.750   6.701
 1375TIP3    H225689   4.223   0.886   6.674
 1376TIP3   OH225690   4.735   2.074   1.091
 1376TIP3    H125691   4.808   2.077   1.153
 1376TIP3    H225692   4.730   1.983   1.065
 1377TIP3   OH225693   0.801   4.447   7.393
 1377TIP3    H125694   0.890   4.478   7.377
 1377TIP3    H225695   0.776   4.486   7.476
 1378TIP3   OH225696   4.526   1.125   7.921
 1378TIP3    H125697   4.577   1.103   7.843
 1378TIP3    H225698   4.515   1.220   7.918
 1379TIP3   OH225699   4.716   5.894   8.030
 1379TIP3    H125700   4.733   5.904   7.937
 1379TIP3    H225701   4.655   5.821   8.036
 1380TIP3   OH225702   5.223   4.120   1.057
 1380TIP3    H125703   5.248   4.098   0.967
 1380TIP3    H225704   5.292   4.084   1.111
 1381TIP3   OH225705   3.147   0.076   6.127
 1381TIP3    H125706   3.142   0.147   6.190
 1381TIP3    H225707   3.231   0.088   6.083
 1382TIP3   OH225708   0.416   3.423   0.952
 1382TIP3    H125709   0.355   3.422   0.879
 1382TIP3    H225710   0.498   3.456   0.915
 1383TIP3   OH225711   0.133   4.630   1.435
 1383TIP3    H125712   0.215   4.640   1.484
 1383TIP3    H225713   0.082   4.567   1.486
 1384TIP3   OH225714   4.033   3.498   7.358
 1384TIP3    H125715   4.039   3.504   7.453
 1384TIP3    H225716   4.061   3.584   7.326
 1385TIP3   OH225717   5.428   1.913   0.701
 1385TIP3    H125718   5.366   1.940   0.634
 1385TIP3    H225719   5.479   1.992   0.720
 1386TIP3   OH225720   3.055   4.653   0.861
 1386TIP3    H125721   2.964   4.628   0.844
 1386TIP3    H225722   3.106   4.575   0.837
 1387TIP3   OH225723   0.198   4.345   7.542
 1387TIP3    H125724   0.181   4.367   7.450
 1387TIP3    H225725   0.293   4.346   7.549
 1388TIP3   OH225726   1.871   5.774   0.297
 1388TIP3    H125727   1.960   5.740   0.290
 1388TIP3    H225728   1.882   5.866   0.323
 1389TIP3   OH225729   1.415   2.580   1.191
 1389TIP3    H125730   1.353   2.581   1.119
 1389TIP3    H225731   1.488   2.634   1.160
 1390TIP3   OH225732   5.611   5.916   7.573
 1390TIP3    H125733   5.547   5.912   7.502
 1390TIP3    H225734   5.594   6.000   7.615
 1391TIP3   OH225735   6.185   4.673   6.854
 1391TIP3    H125736   6.133   4.597   6.880
 1391TIP3    H225737   6.269   4.660   6.898
 1392TIP3   OH225738   6.183   2.617   2.532
 1392TIP3    H125739   6.148   2.558   2.466
 1392TIP3    H225740   6.132   2.697   2.523
 1393TIP3   OH225741   0.805   5.877   6.209
 1393TIP3    H125742   0.896   5.879   6.238
 1393TIP3    H225743   0.759   5.828   6.278
 1394TIP3   OH225744   3.803   2.503   0.917
 1394TIP3    H125745   3.762   2.470   0.997
 1394TIP3    H225746   3.887   2.539   0.946
 1395TIP3   OH225747   2.696   2.957   6.888
 1395TIP3    H125748   2.614   2.968   6.935
 1395TIP3    H225749   2.704   3.035   6.833
 1396TIP3   OH225750   4.584   4.673   0.844
 1396TIP3    H125751   4.529   4.729   0.898
 1396TIP3    H225752   4.528   4.650   0.769
 1397TIP3   OH225753   3.006   2.931   7.993
 1397TIP3    H125754   2.911   2.922   7.995
 1397TIP3    H225755   3.032   2.897   7.907
 1398TIP3   OH225756   2.848   5.842   8.294
 1398TIP3    H125757   2.900   5.779   8.345
 1398TIP3    H225758   2.896   5.924   8.301
 1399TIP3   OH225759   3.291   0.492   6.149
 1399TIP3    H125760   3.380   0.493   6.185
 1399TIP3    H225761   3.289   0.567   6.088
 1400TIP3   OH225762   2.581   5.613   6.447
 1400TIP3    H125763   2.588   5.621   6.352
 1400TIP3    H225764   2.556   5.522   6.462
 1401TIP3   OH225765   0.770   1.432   1.217
 1401TIP3    H125766   0.855   1.472   1.235
 1401TIP3    H225767   0.715   1.459   1.291
 1402TIP3   OH225768   2.007   2.055   6.295
 1402TIP3    H125769   2.096   2.026   6.316
 1402TIP3    H225770   2.001   2.048   6.200
 1403TIP3   OH225771   6.287   5.583   0.882
 1403TIP3    H125772   6.259   5.631   0.960
 1403TIP3    H225773   6.327   5.649   0.826
 1404TIP3   OH225774   1.179   2.594   5.963
 1404TIP3    H125775   1.173   2.690   5.964
 1404TIP3    H225776   1.263   2.575   6.005
 1405TIP3   OH225777   5.050   6.668   6.257
 1405TIP3    H125778   5.134   6.684   6.214
 1405TIP3    H225779   5.006   6.753   6.258
 1406TIP3   OH225780   3.364   5.508   8.129
 1406TIP3    H125781   3.340   5.595   8.161
 1406TIP3    H225782   3.288   5.453   8.148
 1407TIP3   OH225783   3.155   3.086   0.834
 1407TIP3    H125784   3.099   3.008   0.830
 1407TIP3    H225785   3.108   3.152   0.782
 1408TIP3   OH225786   5.179   4.369   7.287
 1408TIP3    H125787   5.168   4.277   7.312
 1408TIP3    H225788   5.211   4.412   7.366
 1409TIP3   OH225789   0.668   0.490   0.133
 1409TIP3    H125790   0.699   0.509   0.044
 1409TIP3    H225791   0.710   0.557   0.187
 1410TIP3   OH225792   2.744   1.452   1.242
 1410TIP3    H125793   2.832   1.418   1.227
 1410TIP3    H225794   2.748   1.492   1.329
 1411TIP3   OH225795   0.023   4.794   6.574
 1411TIP3    H125796  -0.054   4.852   6.577
 1411TIP3    H225797   0.038   4.779   6.481
 1412TIP3   OH225798   0.640   1.677   6.879
 1412TIP3    H125799   0.642   1.744   6.811
 1412TIP3    H225800   0.560   1.693   6.928
 1413TIP3   OH225801   5.464   5.471   6.528
 1413TIP3    H125802   5.518   5.400   6.565
 1413TIP3    H225803   5.380   5.462   6.572
 1414TIP3   OH225804   5.652   3.844   6.487
 1414TIP3    H125805   5.651   3.834   6.392
 1414TIP3    H225806   5.723   3.906   6.503
 1415TIP3   OH225807   4.618   0.668   0.523
 1415TIP3    H125808   4.706   0.664   0.562
 1415TIP3    H225809   4.559   0.657   0.597
 1416TIP3   OH225810   3.896   3.155   7.672
 1416TIP3    H125811   3.887   3.113   7.758
 1416TIP3    H225812   3.896   3.249   7.691
 1417TIP3   OH225813   5.217   1.390   6.617
 1417TIP3    H125814   5.311   1.398   6.599
 1417TIP3    H225815   5.184   1.331   6.548
 1418TIP3   OH225816   0.053   1.875   1.874
 1418TIP3    H125817   0.106   1.953   1.891
 1418TIP3    H225818   0.085   1.811   1.937
 1419TIP3   OH225819   5.486   4.099   2.250
 1419TIP3    H125820   5.404   4.083   2.298
 1419TIP3    H225821   5.553   4.053   2.301
 1420TIP3   OH225822   0.085   2.301   0.331
 1420TIP3    H125823   0.066   2.387   0.293
 1420TIP3    H225824  -0.001   2.267   0.355
 1421TIP3   OH225825   0.512   4.922   6.666
 1421TIP3    H125826   0.556   4.922   6.581
 1421TIP3    H225827   0.526   5.011   6.699
 1422TIP3   OH225828   0.988   6.992   6.225
 1422TIP3    H125829   0.947   6.951   6.149
 1422TIP3    H225830   0.925   7.059   6.253
 1423TIP3   OH225831   4.210   5.149   0.557
 1423TIP3    H125832   4.251   5.101   0.629
 1423TIP3    H225833   4.269   5.224   0.543
 1424TIP3   OH225834   4.017   2.776   1.564
 1424TIP3    H125835   4.039   2.683   1.566
 1424TIP3    H225836   4.069   2.815   1.633
 1425TIP3   OH225837   3.288   3.881   7.967
 1425TIP3    H125838   3.302   3.969   7.933
 1425TIP3    H225839   3.359   3.829   7.929
 1426TIP3   OH225840   2.189   4.113   2.267
 1426TIP3    H125841   2.193   4.193   2.216
 1426TIP3    H225842   2.279   4.079   2.265
 1427TIP3   OH225843   3.192   5.456   7.055
 1427TIP3    H125844   3.119   5.400   7.031
 1427TIP3    H225845   3.267   5.421   7.006
 1428TIP3   OH225846   6.670   6.631   7.709
 1428TIP3    H125847   6.575   6.646   7.714
 1428TIP3    H225848   6.685   6.602   7.619
 1429TIP3   OH225849   2.636   3.658   1.675
 1429TIP3    H125850   2.679   3.744   1.671
 1429TIP3    H225851   2.615   3.638   1.584
 1430TIP3   OH225852   0.876   1.535   6.723
 1430TIP3    H125853   0.841   1.531   6.634
 1430TIP3    H225854   0.809   1.583   6.773
 1431TIP3   OH225855   0.155   5.263   1.176
 1431TIP3    H125856   0.215   5.333   1.202
 1431TIP3    H225857   0.072   5.307   1.160
 1432TIP3   OH225858   0.037   1.249   6.101
 1432TIP3    H125859  -0.038   1.214   6.054
 1432TIP3    H225860   0.106   1.254   6.035
 1433TIP3   OH225861   0.683   5.647   1.479
 1433TIP3    H125862   0.610   5.629   1.421
 1433TIP3    H225863   0.758   5.605   1.437
 1434TIP3   OH225864   1.991   6.618   0.249
 1434TIP3    H125865   2.045   6.616   0.328
 1434TIP3    H225866   2.030   6.687   0.195
 1435TIP3   OH225867   1.144   1.611   7.711
 1435TIP3    H125868   1.175   1.524   7.685
 1435TIP3    H225869   1.049   1.606   7.704
 1436TIP3   OH225870   2.775   5.080   8.197
 1436TIP3    H125871   2.804   5.137   8.267
 1436TIP3    H225872   2.821   5.111   8.119
 1437TIP3   OH225873   5.235   2.981   7.576
 1437TIP3    H125874   5.140   2.981   7.564
 1437TIP3    H225875   5.269   2.941   7.496
 1438TIP3   OH225876   3.943   3.685   0.541
 1438TIP3    H125877   4.025   3.638   0.549
 1438TIP3    H225878   3.946   3.725   0.454
 1439TIP3   OH225879   2.797   6.680   7.431
 1439TIP3    H125880   2.750   6.600   7.455
 1439TIP3    H225881   2.744   6.751   7.467
 1440TIP3   OH225882   0.435   3.426   7.226
 1440TIP3    H125883   0.408   3.461   7.140
 1440TIP3    H225884   0.400   3.489   7.289
 1441TIP3   OH225885   4.916   6.901   6.262
 1441TIP3    H125886   4.926   6.991   6.231
 1441TIP3    H225887   4.833   6.901   6.308
 1442TIP3   OH225888   6.026   6.508   1.528
 1442TIP3    H125889   6.081   6.568   1.577
 1442TIP3    H225890   6.049   6.421   1.562
 1443TIP3   OH225891   1.471   2.998   0.577
 1443TIP3    H125892   1.379   2.990   0.550
 1443TIP3    H225893   1.513   3.041   0.503
 1444TIP3   OH225894   1.842   2.367   0.188
 1444TIP3    H125895   1.773   2.352   0.123
 1444TIP3    H225896   1.840   2.461   0.203
 1445TIP3   OH225897   6.475   0.854   1.698
 1445TIP3    H125898   6.445   0.771   1.733
 1445TIP3    H225899   6.458   0.917   1.768
 1446TIP3   OH225900   5.183   1.926   0.901
 1446TIP3    H125901   5.211   1.838   0.874
 1446TIP3    H225902   5.191   1.979   0.822
 1447TIP3   OH225903   0.339   1.882   7.452
 1447TIP3    H125904   0.351   1.935   7.531
 1447TIP3    H225905   0.249   1.849   7.458
 1448TIP3   OH225906   3.810   1.329   2.172
 1448TIP3    H125907   3.759   1.387   2.115
 1448TIP3    H225908   3.839   1.258   2.114
 1449TIP3   OH225909   6.041   2.168   1.075
 1449TIP3    H125910   6.075   2.190   1.162
 1449TIP3    H225911   5.948   2.151   1.089
 1450TIP3   OH225912   2.948   2.443   0.631
 1450TIP3    H125913   2.910   2.475   0.550
 1450TIP3    H225914   2.894   2.483   0.700
 1451TIP3   OH225915   1.114   3.589   7.652
 1451TIP3    H125916   1.170   3.564   7.579
 1451TIP3    H225917   1.137   3.528   7.722
 1452TIP3   OH225918   3.638   6.930   1.217
 1452TIP3    H125919   3.616   6.914   1.125
 1452TIP3    H225920   3.586   7.007   1.240
 1453TIP3   OH225921   3.322   1.207   7.002
 1453TIP3    H125922   3.272   1.285   7.023
 1453TIP3    H225923   3.288   1.177   6.918
 1454TIP3   OH225924   0.406   6.503   6.292
 1454TIP3    H125925   0.333   6.474   6.237
 1454TIP3    H225926   0.475   6.438   6.276
 1455TIP3   OH225927   0.917   5.969   1.430
 1455TIP3    H125928   0.832   5.993   1.466
 1455TIP3    H225929   0.952   5.905   1.491
 1456TIP3   OH225930   0.836   0.044   7.278
 1456TIP3    H125931   0.916   0.068   7.231
 1456TIP3    H225932   0.765   0.073   7.220
 1457TIP3   OH225933   1.291   2.535   7.313
 1457TIP3    H125934   1.373   2.487   7.299
 1457TIP3    H225935   1.233   2.471   7.356
 1458TIP3   OH225936   6.501   4.995   0.532
 1458TIP3    H125937   6.490   4.904   0.559
 1458TIP3    H225938   6.413   5.022   0.506
 1459TIP3   OH225939   2.983   6.622   0.066
 1459TIP3    H125940   3.072   6.657   0.079
 1459TIP3    H225941   2.994   6.551   0.003
 1460TIP3   OH225942   4.976   2.076   1.280
 1460TIP3    H125943   4.940   2.130   1.351
 1460TIP3    H225944   4.982   1.988   1.317
 1461TIP3   OH225945   6.565   4.414   6.741
 1461TIP3    H125946   6.596   4.324   6.733
 1461TIP3    H225947   6.631   4.466   6.695
 1462TIP3   OH225948   5.760   2.671   0.529
 1462TIP3    H125949   5.714   2.748   0.562
 1462TIP3    H225950   5.836   2.662   0.586
 1463TIP3   OH225951   1.037   6.209   6.194
 1463TIP3    H125952   1.116   6.237   6.240
 1463TIP3    H225953   0.965   6.226   6.255
 1464TIP3   OH225954   3.298   4.088   8.208
 1464TIP3    H125955   3.225   4.046   8.162
 1464TIP3    H225956   3.298   4.178   8.175
 1465TIP3   OH225957   6.863   1.168   6.751
 1465TIP3    H125958   6.943   1.219   6.768
 1465TIP3    H225959   6.795   1.213   6.801
 1466TIP3   OH225960   4.433   0.704   7.354
 1466TIP3    H125961   4.427   0.793   7.319
 1466TIP3    H225962   4.527   0.692   7.372
 1467TIP3   OH225963   5.896   5.276   0.177
 1467TIP3    H125964   5.915   5.337   0.106
 1467TIP3    H225965   5.842   5.208   0.137
 1468TIP3   OH225966   2.057   0.495   1.115
 1468TIP3    H125967   2.132   0.435   1.120
 1468TIP3    H225968   1.981   0.438   1.129
 1469TIP3   OH225969   4.528   5.748   0.749
 1469TIP3    H125970   4.608   5.784   0.710
 1469TIP3    H225971   4.525   5.657   0.718
 1470TIP3   OH225972   6.396   6.516   0.507
 1470TIP3    H125973   6.382   6.482   0.596
 1470TIP3    H225974   6.390   6.611   0.516
 1471TIP3   OH225975   6.393   0.308   2.295
 1471TIP3    H125976   6.300   0.330   2.292
 1471TIP3    H225977   6.395   0.214   2.315
 1472TIP3   OH225978   2.508   1.938   6.708
 1472TIP3    H125979   2.504   1.904   6.619
 1472TIP3    H225980   2.501   2.033   6.698
 1473TIP3   OH225981   5.238   6.464   8.350
 1473TIP3    H125982   5.289   6.529   8.300
 1473TIP3    H225983   5.236   6.499   8.439
 1474TIP3   OH225984   2.616   2.023   7.970
 1474TIP3    H125985   2.646   1.973   8.046
 1474TIP3    H225986   2.677   1.999   7.900
 1475TIP3   OH225987   4.176   1.051   1.758
 1475TIP3    H125988   4.182   0.977   1.698
 1475TIP3    H225989   4.132   1.017   1.836
 1476TIP3   OH225990   6.879   4.623   6.880
 1476TIP3    H125991   6.835   4.691   6.931
 1476TIP3    H225992   6.853   4.640   6.790
 1477TIP3   OH225993   4.935   1.049   2.298
 1477TIP3    H125994   4.856   1.007   2.263
 1477TIP3    H225995   4.904   1.099   2.374
 1478TIP3   OH225996   3.508   5.254   1.694
 1478TIP3    H125997   3.529   5.164   1.670
 1478TIP3    H225998   3.512   5.255   1.790
 1479TIP3   OH225999   1.547   3.179   1.949
 1479TIP3    H126000   1.605   3.165   2.024
 1479TIP3    H226001   1.461   3.195   1.988
 1480TIP3   OH226002   1.585   6.726   6.939
 1480TIP3    H126003   1.537   6.645   6.921
 1480TIP3    H226004   1.599   6.725   7.033
 1481TIP3   OH226005   6.724   1.075   7.418
 1481TIP3    H126006   6.731   1.130   7.340
 1481TIP3    H226007   6.650   1.017   7.401
 1482TIP3   OH226008   0.078   0.124   0.436
 1482TIP3    H126009   0.163   0.162   0.414
 1482TIP3    H226010   0.014   0.188   0.406
 1483TIP3   OH226011   2.086   2.727   7.847
 1483TIP3    H126012   2.138   2.757   7.773
 1483TIP3    H226013   2.146   2.730   7.922
 1484TIP3   OH226014   2.099   3.020   7.689
 1484TIP3    H126015   2.065   2.930   7.690
 1484TIP3    H226016   2.032   3.071   7.644
 1485TIP3   OH226017   3.499   5.682   6.892
 1485TIP3    H126018   3.562   5.642   6.952
 1485TIP3    H226019   3.493   5.621   6.819
 1486TIP3   OH226020   1.129   4.717   7.532
 1486TIP3    H126021   1.182   4.792   7.502
 1486TIP3    H226022   1.061   4.756   7.586
 1487TIP3   OH226023   1.566   4.705   7.031
 1487TIP3    H126024   1.509   4.746   6.966
 1487TIP3    H226025   1.563   4.612   7.011
 1488TIP3   OH226026   0.468   4.805   6.027
 1488TIP3    H126027   0.375   4.789   6.041
 1488TIP3    H226028   0.508   4.719   6.033
 1489TIP3   OH226029   5.540   4.493   1.519
 1489TIP3    H126030   5.485   4.442   1.459
 1489TIP3    H226031   5.570   4.430   1.584
 1490TIP3   OH226032   6.853   0.225   8.380
 1490TIP3    H126033   6.849   0.135   8.412
 1490TIP3    H226034   6.878   0.217   8.288
 1491TIP3   OH226035   2.446   0.050   0.629
 1491TIP3    H126036   2.503   0.061   0.553
 1491TIP3    H226037   2.495  -0.006   0.689
 1492TIP3   OH226038   5.115   4.918   1.412
 1492TIP3    H126039   5.109   5.013   1.400
 1492TIP3    H226040   5.114   4.906   1.507
 1493TIP3   OH226041   3.484   2.377   0.008
 1493TIP3    H126042   3.427   2.339  -0.059
 1493TIP3    H226043   3.458   2.469   0.013
 1494TIP3   OH226044   4.243   2.603   6.227
 1494TIP3    H126045   4.149   2.589   6.230
 1494TIP3    H226046   4.253   2.698   6.220
 1495TIP3   OH226047   3.067   6.727   7.406
 1495TIP3    H126048   3.089   6.787   7.477
 1495TIP3    H226049   2.971   6.720   7.409
 1496TIP3   OH226050   5.171   5.583   8.357
 1496TIP3    H126051   5.252   5.613   8.315
 1496TIP3    H226052   5.136   5.518   8.296
 1497TIP3   OH226053   0.113   4.394   6.936
 1497TIP3    H126054   0.094   4.328   7.002
 1497TIP3    H226055   0.159   4.464   6.983
 1498TIP3   OH226056   2.224   4.822   1.376
 1498TIP3    H126057   2.235   4.806   1.282
 1498TIP3    H226058   2.313   4.830   1.410
 1499TIP3   OH226059   2.593   6.809   7.207
 1499TIP3    H126060   2.499   6.812   7.194
 1499TIP3    H226061   2.622   6.900   7.199
 1500TIP3   OH226062   1.912   3.902   7.134
 1500TIP3    H126063   1.909   3.841   7.060
 1500TIP3    H226064   1.820   3.925   7.150
 1501TIP3   OH226065   2.975   5.737   7.239
 1501TIP3    H126066   2.966   5.666   7.302
 1501TIP3    H226067   2.892   5.784   7.243
 1502TIP3   OH226068   0.322   5.188   0.964
 1502TIP3    H126069   0.283   5.178   1.051
 1502TIP3    H226070   0.257   5.236   0.914
 1503TIP3   OH226071   6.692   1.091   0.090
 1503TIP3    H126072   6.601   1.116   0.076
 1503TIP3    H226073   6.730   1.164   0.139
 1504TIP3   OH226074   3.818   2.289   6.659
 1504TIP3    H126075   3.839   2.274   6.566
 1504TIP3    H226076   3.781   2.377   6.661
 1505TIP3   OH226077   1.244   0.197   0.104
 1505TIP3    H126078   1.290   0.222   0.184
 1505TIP3    H226079   1.183   0.269   0.087
 1506TIP3   OH226080   1.213   2.620   1.011
 1506TIP3    H126081   1.251   2.703   0.981
 1506TIP3    H226082   1.119   2.628   0.994
 1507TIP3   OH226083   6.226   3.313   7.913
 1507TIP3    H126084   6.296   3.349   7.967
 1507TIP3    H226085   6.271   3.249   7.857
 1508TIP3   OH226086   0.062   4.206   1.670
 1508TIP3    H126087   0.128   4.222   1.603
 1508TIP3    H226088   0.112   4.186   1.749
 1509TIP3   OH226089   2.760   5.654   0.474
 1509TIP3    H126090   2.674   5.618   0.494
 1509TIP3    H226091   2.812   5.579   0.447
 1510TIP3   OH226092   5.984   4.148   7.342
 1510TIP3    H126093   6.072   4.127   7.371
 1510TIP3    H226094   5.932   4.149   7.422
 1511TIP3   OH226095   0.305   5.420   0.073
 1511TIP3    H126096   0.308   5.453   0.162
 1511TIP3    H226097   0.242   5.477   0.028
 1512TIP3   OH226098   6.627   0.559   7.471
 1512TIP3    H126099   6.671   0.601   7.545
 1512TIP3    H226100   6.673   0.592   7.394
 1513TIP3   OH226101   1.872   5.107   6.954
 1513TIP3    H126102   1.834   5.186   6.992
 1513TIP3    H226103   1.806   5.078   6.890
 1514TIP3   OH226104   3.543   1.979   6.707
 1514TIP3    H126105   3.594   2.036   6.764
 1514TIP3    H226106   3.457   1.974   6.748
 1515TIP3   OH226107   1.074   4.660   6.960
 1515TIP3    H126108   1.112   4.656   7.048
 1515TIP3    H226109   1.142   4.699   6.906
 1516TIP3   OH226110   1.955   4.154   0.879
 1516TIP3    H126111   2.041   4.127   0.847
 1516TIP3    H226112   1.946   4.111   0.964
 1517TIP3   OH226113   5.682   0.456   0.520
 1517TIP3    H126114   5.683   0.394   0.447
 1517TIP3    H226115   5.722   0.409   0.592
 1518TIP3   OH226116   6.409   6.767   6.453
 1518TIP3    H126117   6.322   6.781   6.492
 1518TIP3    H226118   6.435   6.853   6.421
 1519TIP3   OH226119   0.285   2.653   8.316
 1519TIP3    H126120   0.294   2.563   8.284
 1519TIP3    H226121   0.196   2.679   8.290
 1520TIP3   OH226122   5.639   0.465   8.018
 1520TIP3    H126123   5.640   0.561   8.009
 1520TIP3    H226124   5.730   0.439   8.004
 1521TIP3   OH226125   1.679   3.381   1.812
 1521TIP3    H126126   1.643   3.312   1.868
 1521TIP3    H226127   1.741   3.428   1.868
 1522TIP3   OH226128   6.605   4.326   6.354
 1522TIP3    H126129   6.701   4.328   6.356
 1522TIP3    H226130   6.584   4.285   6.270
 1523TIP3   OH226131   1.199   5.185   1.014
 1523TIP3    H126132   1.285   5.218   1.043
 1523TIP3    H226133   1.146   5.184   1.094
 1524TIP3   OH226134   4.422   3.855   6.137
 1524TIP3    H126135   4.408   3.945   6.109
 1524TIP3    H226136   4.348   3.836   6.194
 1525TIP3   OH226137   1.343   6.850   6.855
 1525TIP3    H126138   1.423   6.803   6.880
 1525TIP3    H226139   1.358   6.875   6.764
 1526TIP3   OH226140   4.641   3.055   6.567
 1526TIP3    H126141   4.652   3.132   6.512
 1526TIP3    H226142   4.642   2.981   6.506
 1527TIP3   OH226143   6.368   0.741   0.141
 1527TIP3    H126144   6.339   0.831   0.153
 1527TIP3    H226145   6.288   0.689   0.148
 1528TIP3   OH226146   6.943   6.750   1.735
 1528TIP3    H126147   6.883   6.744   1.809
 1528TIP3    H226148   7.012   6.687   1.754
 1529TIP3   OH226149   3.550   3.758   7.061
 1529TIP3    H126150   3.633   3.720   7.091
 1529TIP3    H226151   3.483   3.706   7.106
 1530TIP3   OH226152   2.045   4.758   0.480
 1530TIP3    H126153   2.073   4.749   0.571
 1530TIP3    H226154   2.122   4.731   0.429
 1531TIP3   OH226155   2.118   1.049   6.677
 1531TIP3    H126156   2.141   1.071   6.587
 1531TIP3    H226157   2.055   1.116   6.703
 1532TIP3   OH226158   0.286   6.828   7.499
 1532TIP3    H126159   0.364   6.807   7.550
 1532TIP3    H226160   0.307   6.800   7.410
 1533TIP3   OH226161   6.806   2.142   7.834
 1533TIP3    H126162   6.735   2.198   7.867
 1533TIP3    H226163   6.760   2.072   7.786
 1534TIP3   OH226164   0.798   3.611   8.174
 1534TIP3    H126165   0.776   3.623   8.267
 1534TIP3    H226166   0.773   3.694   8.133
 1535TIP3   OH226167   1.351   3.468   1.222
 1535TIP3    H126168   1.404   3.510   1.289
 1535TIP3    H226169   1.327   3.383   1.260
 1536TIP3   OH226170   6.322   5.148   1.287
 1536TIP3    H126171   6.369   5.179   1.365
 1536TIP3    H226172   6.230   5.167   1.306
 1537TIP3   OH226173   1.172   2.771   7.465
 1537TIP3    H126174   1.145   2.778   7.557
 1537TIP3    H226175   1.233   2.697   7.464
 1538TIP3   OH226176   4.559   4.232   0.690
 1538TIP3    H126177   4.545   4.273   0.776
 1538TIP3    H226178   4.650   4.203   0.692
 1539TIP3   OH226179   0.725   0.147   7.027
 1539TIP3    H126180   0.759   0.237   7.035
 1539TIP3    H226181   0.756   0.117   6.942
 1540TIP3   OH226182   6.583   5.422   1.067
 1540TIP3    H126183   6.612   5.341   1.110
 1540TIP3    H226184   6.579   5.399   0.975
 1541TIP3   OH226185   2.213   4.184   1.472
 1541TIP3    H126186   2.220   4.277   1.453
 1541TIP3    H226187   2.293   4.145   1.437
 1542TIP3   OH226188   1.275   6.093   1.050
 1542TIP3    H126189   1.184   6.121   1.064
 1542TIP3    H226190   1.326   6.145   1.112
 1543TIP3   OH226191   6.006   0.766   1.673
 1543TIP3    H126192   6.028   0.675   1.696
 1543TIP3    H226193   6.070   0.790   1.607
 1544TIP3   OH226194   6.550   0.591   0.959
 1544TIP3    H126195   6.514   0.640   1.032
 1544TIP3    H226196   6.638   0.567   0.986
 1545TIP3   OH226197   4.474   1.876   1.076
 1545TIP3    H126198   4.550   1.840   1.123
 1545TIP3    H226199   4.508   1.899   0.990
 1546TIP3   OH226200   4.943   1.219   8.272
 1546TIP3    H126201   5.034   1.197   8.292
 1546TIP3    H226202   4.937   1.212   8.176
 1547TIP3   OH226203   5.880   0.272   1.316
 1547TIP3    H126204   5.905   0.297   1.404
 1547TIP3    H226205   5.881   0.176   1.317
 1548TIP3   OH226206   4.668   1.977   7.650
 1548TIP3    H126207   4.699   1.919   7.580
 1548TIP3    H226208   4.696   2.064   7.623
 1549TIP3   OH226209   4.352   3.711   8.213
 1549TIP3    H126210   4.301   3.667   8.145
 1549TIP3    H226211   4.373   3.642   8.276
 1550TIP3   OH226212   4.678   3.463   1.901
 1550TIP3    H126213   4.744   3.532   1.905
 1550TIP3    H226214   4.596   3.508   1.882
 1551TIP3   OH226215   2.768   4.873   2.284
 1551TIP3    H126216   2.819   4.952   2.300
 1551TIP3    H226217   2.809   4.834   2.207
 1552TIP3   OH226218   3.423   5.351   6.933
 1552TIP3    H126219   3.352   5.304   6.892
 1552TIP3    H226220   3.497   5.343   6.872
 1553TIP3   OH226221   5.777   2.898   7.247
 1553TIP3    H126222   5.755   2.985   7.214
 1553TIP3    H226223   5.844   2.866   7.186
 1554TIP3   OH226224   6.236   2.904   1.643
 1554TIP3    H126225   6.201   2.819   1.619
 1554TIP3    H226226   6.330   2.898   1.624
 1555TIP3   OH226227   6.794   2.774   6.816
 1555TIP3    H126228   6.796   2.772   6.720
 1555TIP3    H226229   6.815   2.864   6.839
 1556TIP3   OH226230   1.664   2.480   6.138
 1556TIP3    H126231   1.725   2.546   6.170
 1556TIP3    H226232   1.702   2.397   6.165
 1557TIP3   OH226233   5.695   2.957   6.876
 1557TIP3    H126234   5.708   2.961   6.971
 1557TIP3    H226235   5.772   3.000   6.839
 1558TIP3   OH226236   6.956   1.840   1.631
 1558TIP3    H126237   6.881   1.780   1.635
 1558TIP3    H226238   7.002   1.826   1.714
 1559TIP3   OH226239   3.493   3.888   1.118
 1559TIP3    H126240   3.542   3.857   1.193
 1559TIP3    H226241   3.534   3.846   1.042
 1560TIP3   OH226242   5.285   1.699   7.667
 1560TIP3    H126243   5.229   1.777   7.665
 1560TIP3    H226244   5.372   1.732   7.646
 1561TIP3   OH226245   3.061   5.065   0.012
 1561TIP3    H126246   3.089   5.004   0.080
 1561TIP3    H226247   3.128   5.058  -0.055
 1562TIP3   OH226248   6.661   5.711   0.627
 1562TIP3    H126249   6.679   5.626   0.588
 1562TIP3    H226250   6.725   5.721   0.697
 1563TIP3   OH226251   4.997   5.326   7.034
 1563TIP3    H126252   5.073   5.350   7.088
 1563TIP3    H226253   4.995   5.230   7.036
 1564TIP3   OH226254   3.774   4.744   1.119
 1564TIP3    H126255   3.777   4.650   1.103
 1564TIP3    H226256   3.707   4.777   1.059
 1565TIP3   OH226257   3.990   0.774   1.311
 1565TIP3    H126258   3.973   0.682   1.290
 1565TIP3    H226259   4.077   0.774   1.350
 1566TIP3   OH226260   0.280   3.951   0.718
 1566TIP3    H126261   0.249   3.950   0.627
 1566TIP3    H226262   0.223   4.015   0.762
 1567TIP3   OH226263   3.916   2.443   7.182
 1567TIP3    H126264   3.849   2.379   7.209
 1567TIP3    H226265   3.884   2.479   7.100
 1568TIP3   OH226266   5.900   2.889   1.864
 1568TIP3    H126267   5.958   2.950   1.910
 1568TIP3    H226268   5.959   2.826   1.823
 1569TIP3   OH226269   3.788   1.581   6.556
 1569TIP3    H126270   3.753   1.669   6.542
 1569TIP3    H226271   3.723   1.538   6.612
 1570TIP3   OH226272   4.411   5.664   7.163
 1570TIP3    H126273   4.495   5.627   7.136
 1570TIP3    H226274   4.347   5.625   7.104
 1571TIP3   OH226275   1.720   0.015   6.243
 1571TIP3    H126276   1.689   0.044   6.328
 1571TIP3    H226277   1.724  -0.080   6.249
 1572TIP3   OH226278   0.912   3.721   1.033
 1572TIP3    H126279   0.957   3.788   0.981
 1572TIP3    H226280   0.979   3.656   1.052
 1573TIP3   OH226281   6.416   2.433   6.710
 1573TIP3    H126282   6.468   2.485   6.649
 1573TIP3    H226283   6.477   2.407   6.778
 1574TIP3   OH226284   5.120   2.168   1.091
 1574TIP3    H126285   5.057   2.123   1.148
 1574TIP3    H226286   5.145   2.101   1.027
 1575TIP3   OH226287   4.069   2.931   6.650
 1575TIP3    H126288   4.066   2.880   6.569
 1575TIP3    H226289   4.086   3.020   6.622
 1576TIP3   OH226290   5.395   4.751   6.930
 1576TIP3    H126291   5.334   4.718   6.996
 1576TIP3    H226292   5.412   4.675   6.874
 1577TIP3   OH226293   2.076   6.906   0.314
 1577TIP3    H126294   2.089   7.000   0.320
 1577TIP3    H226295   2.110   6.882   0.227
 1578TIP3   OH226296   6.916   6.082   0.573
 1578TIP3    H126297   6.999   6.103   0.530
 1578TIP3    H226298   6.925   5.990   0.598
 1579TIP3   OH226299   5.108   2.235   7.565
 1579TIP3    H126300   5.107   2.307   7.628
 1579TIP3    H226301   5.119   2.278   7.480
 1580TIP3   OH226302   4.058   0.358   1.864
 1580TIP3    H126303   4.075   0.381   1.773
 1580TIP3    H226304   4.144   0.339   1.901
 1581TIP3   OH226305   6.519   4.504   0.747
 1581TIP3    H126306   6.531   4.454   0.667
 1581TIP3    H226307   6.562   4.451   0.815
 1582TIP3   OH226308   3.710   4.184   8.187
 1582TIP3    H126309   3.665   4.099   8.189
 1582TIP3    H226310   3.640   4.249   8.194
 1583TIP3   OH226311   2.689   4.152   0.599
 1583TIP3    H126312   2.724   4.064   0.588
 1583TIP3    H226313   2.687   4.165   0.694
 1584TIP3   OH226314   4.533   6.828   7.707
 1584TIP3    H126315   4.586   6.801   7.782
 1584TIP3    H226316   4.539   6.924   7.707
 1585TIP3   OH226317   6.143   6.384   0.994
 1585TIP3    H126318   6.217   6.353   1.046
 1585TIP3    H226319   6.076   6.407   1.059
 1586TIP3   OH226320   1.960   1.845   1.078
 1586TIP3    H126321   1.984   1.909   1.145
 1586TIP3    H226322   2.031   1.781   1.080
 1587TIP3   OH226323   4.244   2.034   7.408
 1587TIP3    H126324   4.196   1.970   7.354
 1587TIP3    H226325   4.189   2.045   7.486
 1588TIP3   OH226326   3.673   0.209   1.963
 1588TIP3    H126327   3.663   0.186   2.055
 1588TIP3    H226328   3.649   0.128   1.916
 1589TIP3   OH226329   6.783   3.589   0.409
 1589TIP3    H126330   6.800   3.675   0.370
 1589TIP3    H226331   6.712   3.605   0.472
 1590TIP3   OH226332   3.924   3.730   0.040
 1590TIP3    H126333   4.009   3.717  -0.001
 1590TIP3    H226334   3.870   3.770  -0.029
 1591TIP3   OH226335   2.207   5.642   0.288
 1591TIP3    H126336   2.195   5.715   0.348
 1591TIP3    H226337   2.166   5.568   0.332
 1592TIP3   OH226338   3.779   6.370   1.218
 1592TIP3    H126339   3.804   6.410   1.134
 1592TIP3    H226340   3.849   6.306   1.236
 1593TIP3   OH226341   5.504   2.444   1.400
 1593TIP3    H126342   5.445   2.471   1.470
 1593TIP3    H226343   5.592   2.461   1.435
 1594TIP3   OH226344   0.881   6.416   7.294
 1594TIP3    H126345   0.795   6.416   7.251
 1594TIP3    H226346   0.885   6.333   7.341
 1595TIP3   OH226347   2.494   4.872   0.374
 1595TIP3    H126348   2.562   4.886   0.308
 1595TIP3    H226349   2.435   4.947   0.365
 1596TIP3   OH226350   2.216   4.066   0.769
 1596TIP3    H126351   2.246   4.156   0.761
 1596TIP3    H226352   2.296   4.013   0.770
 1597TIP3   OH226353   5.685   6.235   6.813
 1597TIP3    H126354   5.619   6.304   6.821
 1597TIP3    H226355   5.668   6.194   6.729
 1598TIP3   OH226356   5.459   6.894   1.373
 1598TIP3    H126357   5.366   6.903   1.392
 1598TIP3    H226358   5.467   6.914   1.280
 1599TIP3   OH226359   3.642   6.944   6.022
 1599TIP3    H126360   3.690   6.865   5.996
 1599TIP3    H226361   3.612   6.927   6.111
 1600TIP3   OH226362   2.139   0.144   7.682
 1600TIP3    H126363   2.131   0.216   7.619
 1600TIP3    H226364   2.228   0.110   7.668
 1601TIP3   OH226365   4.728   2.967   6.797
 1601TIP3    H126366   4.671   2.897   6.829
 1601TIP3    H226367   4.711   2.969   6.703
 1602TIP3   OH226368   2.157   5.728   0.006
 1602TIP3    H126369   2.230   5.790   0.006
 1602TIP3    H226370   2.167   5.679   0.087
 1603TIP3   OH226371   4.634   6.335   5.924
 1603TIP3    H126372   4.681   6.418   5.925
 1603TIP3    H226373   4.552   6.354   5.969
 1604TIP3   OH226374   3.874   2.067   1.052
 1604TIP3    H126375   3.804   2.010   1.020
 1604TIP3    H226376   3.894   2.033   1.139
 1605TIP3   OH226377   3.424   0.082   1.272
 1605TIP3    H126378   3.407   0.052   1.361
 1605TIP3    H226379   3.340   0.115   1.241
 1606TIP3   OH226380   1.847   0.431   6.165
 1606TIP3    H126381   1.804   0.419   6.249
 1606TIP3    H226382   1.791   0.385   6.102
 1607TIP3   OH226383   3.103   3.665   6.410
 1607TIP3    H126384   3.127   3.573   6.418
 1607TIP3    H226385   3.029   3.666   6.350
 1608TIP3   OH226386   2.460   1.555   1.079
 1608TIP3    H126387   2.547   1.576   1.044
 1608TIP3    H226388   2.441   1.468   1.045
 1609TIP3   OH226389   1.443   5.565   7.898
 1609TIP3    H126390   1.454   5.546   7.991
 1609TIP3    H226391   1.369   5.627   7.895
 1610TIP3   OH226392   6.315   0.735   7.680
 1610TIP3    H126393   6.357   0.668   7.735
 1610TIP3    H226394   6.368   0.813   7.693
 1611TIP3   OH226395   5.803   5.691   7.929
 1611TIP3    H126396   5.854   5.716   7.852
 1611TIP3    H226397   5.726   5.647   7.894
 1612TIP3   OH226398   0.360   2.662   7.895
 1612TIP3    H126399   0.302   2.586   7.887
 1612TIP3    H226400   0.443   2.633   7.857
 1613TIP3   OH226401   5.144   3.103   2.030
 1613TIP3    H126402   5.211   3.041   2.061
 1613TIP3    H226403   5.081   3.108   2.101
 1614TIP3   OH226404   0.826   1.566   7.026
 1614TIP3    H126405   0.852   1.479   6.995
 1614TIP3    H226406   0.767   1.599   6.958
 1615TIP3   OH226407   3.215   6.751   7.778
 1615TIP3    H126408   3.195   6.832   7.731
 1615TIP3    H226409   3.303   6.727   7.749
 1616TIP3   OH226410   3.009   6.054   8.335
 1616TIP3    H126411   3.101   6.029   8.334
 1616TIP3    H226412   3.009   6.146   8.360
 1617TIP3   OH226413   4.795   6.707   1.646
 1617TIP3    H126414   4.884   6.673   1.658
 1617TIP3    H226415   4.738   6.632   1.663
 1618TIP3   OH226416   2.300   0.950   7.992
 1618TIP3    H126417   2.266   1.036   7.968
 1618TIP3    H226418   2.231   0.911   8.045
 1619TIP3   OH226419   0.869   1.110   6.903
 1619TIP3    H126420   0.849   1.129   6.812
 1619TIP3    H226421   0.785   1.118   6.949
 1620TIP3   OH226422   4.674   2.711   0.344
 1620TIP3    H126423   4.758   2.688   0.382
 1620TIP3    H226424   4.609   2.670   0.402
 1621TIP3   OH226425   1.137   0.385   6.598
 1621TIP3    H126426   1.192   0.307   6.596
 1621TIP3    H226427   1.114   0.400   6.507
 1622TIP3   OH226428   3.646   4.709   6.345
 1622TIP3    H126429   3.728   4.672   6.313
 1622TIP3    H226430   3.620   4.773   6.279
 1623TIP3   OH226431   2.332   6.177   1.248
 1623TIP3    H126432   2.240   6.178   1.272
 1623TIP3    H226433   2.351   6.085   1.228
 1624TIP3   OH226434   3.092   1.172   6.126
 1624TIP3    H126435   3.037   1.102   6.162
 1624TIP3    H226436   3.037   1.214   6.060
 1625TIP3   OH226437   6.315   5.196   0.076
 1625TIP3    H126438   6.265   5.188  -0.006
 1625TIP3    H226439   6.255   5.163   0.143
 1626TIP3   OH226440   5.453   1.977   8.383
 1626TIP3    H126441   5.445   2.070   8.404
 1626TIP3    H226442   5.447   1.933   8.467
 1627TIP3   OH226443   1.755   2.233   1.039
 1627TIP3    H126444   1.665   2.236   1.005
 1627TIP3    H226445   1.805   2.186   0.972
 1628TIP3   OH226446   6.520   6.475   7.949
 1628TIP3    H126447   6.466   6.539   7.994
 1628TIP3    H226448   6.599   6.523   7.924
 1629TIP3   OH226449   6.868   4.069   7.415
 1629TIP3    H126450   6.917   4.085   7.496
 1629TIP3    H226451   6.846   4.156   7.382
 1630TIP3   OH226452   2.059   3.882   2.049
 1630TIP3    H126453   2.075   3.807   2.105
 1630TIP3    H226454   2.012   3.944   2.105
 1631TIP3   OH226455   1.891   6.595   7.336
 1631TIP3    H126456   1.932   6.513   7.363
 1631TIP3    H226457   1.916   6.658   7.403
 1632TIP3   OH226458   4.526   5.973   5.909
 1632TIP3    H126459   4.602   6.022   5.876
 1632TIP3    H226460   4.466   6.041   5.940
 1633TIP3   OH226461   1.611   1.627   7.884
 1633TIP3    H126462   1.681   1.562   7.874
 1633TIP3    H226463   1.562   1.598   7.960
 1634TIP3   OH226464   4.731   1.359   1.209
 1634TIP3    H126465   4.758   1.292   1.145
 1634TIP3    H226466   4.814   1.394   1.242
 1635TIP3   OH226467   1.478   1.877   8.075
 1635TIP3    H126468   1.413   1.826   8.028
 1635TIP3    H226469   1.446   1.967   8.072
 1636TIP3   OH226470   6.802   5.636   6.446
 1636TIP3    H126471   6.721   5.611   6.402
 1636TIP3    H226472   6.777   5.652   6.536
 1637TIP3   OH226473   1.437   2.528   5.990
 1637TIP3    H126474   1.506   2.496   6.048
 1637TIP3    H226475   1.460   2.619   5.972
 1638TIP3   OH226476   4.280   4.179   1.288
 1638TIP3    H126477   4.375   4.167   1.291
 1638TIP3    H226478   4.250   4.114   1.225
 1639TIP3   OH226479   0.690   1.929   0.330
 1639TIP3    H126480   0.673   1.844   0.370
 1639TIP3    H226481   0.776   1.955   0.361
 1640TIP3   OH226482   3.374   1.112   6.458
 1640TIP3    H126483   3.437   1.152   6.397
 1640TIP3    H226484   3.291   1.157   6.440
 1641TIP3   OH226485   1.094   2.236   0.874
 1641TIP3    H126486   1.040   2.186   0.813
 1641TIP3    H226487   1.122   2.313   0.824
 1642TIP3   OH226488   6.431   6.814   0.513
 1642TIP3    H126489   6.486   6.854   0.446
 1642TIP3    H226490   6.359   6.876   0.525
 1643TIP3   OH226491   4.778   0.098   0.478
 1643TIP3    H126492   4.832   0.058   0.410
 1643TIP3    H226493   4.832   0.168   0.514
 1644TIP3   OH226494   4.042   5.813   7.391
 1644TIP3    H126495   4.020   5.765   7.312
 1644TIP3    H226496   3.958   5.827   7.436
 1645TIP3   OH226497   0.405   6.250   1.717
 1645TIP3    H126498   0.426   6.293   1.634
 1645TIP3    H226499   0.336   6.303   1.756
 1646TIP3   OH226500   1.274   6.228   8.384
 1646TIP3    H126501   1.245   6.211   8.474
 1646TIP3    H226502   1.358   6.273   8.394
 1647TIP3   OH226503   2.217   5.375   7.479
 1647TIP3    H126504   2.176   5.297   7.440
 1647TIP3    H226505   2.310   5.353   7.482
 1648TIP3   OH226506   6.442   4.165   7.188
 1648TIP3    H126507   6.488   4.144   7.107
 1648TIP3    H226508   6.509   4.205   7.243
 1649TIP3   OH226509   1.297   2.686   0.665
 1649TIP3    H126510   1.273   2.756   0.726
 1649TIP3    H226511   1.264   2.716   0.580
 1650TIP3   OH226512   1.905   3.807   1.845
 1650TIP3    H126513   1.953   3.840   1.922
 1650TIP3    H226514   1.819   3.782   1.879
 1651TIP3   OH226515   4.019   0.037   6.735
 1651TIP3    H126516   4.049  -0.054   6.728
 1651TIP3    H226517   3.934   0.037   6.690
 1652TIP3   OH226518   2.790   4.312   0.148
 1652TIP3    H126519   2.700   4.340   0.164
 1652TIP3    H226520   2.827   4.379   0.091
 1653TIP3   OH226521   4.743   5.732   7.155
 1653TIP3    H126522   4.700   5.647   7.147
 1653TIP3    H226523   4.729   5.774   7.070
 1654TIP3   OH226524   2.675   1.210   1.578
 1654TIP3    H126525   2.724   1.196   1.659
 1654TIP3    H226526   2.615   1.136   1.573
 1655TIP3   OH226527   6.542   1.846   7.647
 1655TIP3    H126528   6.509   1.771   7.597
 1655TIP3    H226529   6.636   1.846   7.630
 1656TIP3   OH226530   1.379   0.499   1.091
 1656TIP3    H126531   1.339   0.587   1.090
 1656TIP3    H226532   1.469   0.514   1.063
 1657TIP3   OH226533   3.312   3.412   6.931
 1657TIP3    H126534   3.242   3.404   6.995
 1657TIP3    H226535   3.302   3.500   6.894
 1658TIP3   OH226536   3.666   2.567   6.728
 1658TIP3    H126537   3.573   2.553   6.741
 1658TIP3    H226538   3.672   2.627   6.654
 1659TIP3   OH226539   1.963   4.192   7.734
 1659TIP3    H126540   1.914   4.273   7.749
 1659TIP3    H226541   2.041   4.200   7.788
 1660TIP3   OH226542   4.909   2.652   0.448
 1660TIP3    H126543   4.929   2.721   0.386
 1660TIP3    H226544   4.969   2.667   0.521
 1661TIP3   OH226545   1.765   0.258   6.996
 1661TIP3    H126546   1.674   0.230   6.983
 1661TIP3    H226547   1.816   0.177   6.989
 1662TIP3   OH226548   0.026   2.909   0.818
 1662TIP3    H126549   0.082   2.987   0.820
 1662TIP3    H226550  -0.063   2.943   0.825
 1663TIP3   OH226551   4.068   5.993   7.844
 1663TIP3    H126552   4.148   6.003   7.897
 1663TIP3    H226553   4.050   5.899   7.845
 1664TIP3   OH226554   1.741   3.323   7.884
 1664TIP3    H126555   1.743   3.286   7.973
 1664TIP3    H226556   1.682   3.398   7.891
 1665TIP3   OH226557   5.664   4.730   7.015
 1665TIP3    H126558   5.589   4.771   6.972
 1665TIP3    H226559   5.740   4.771   6.973
 1666TIP3   OH226560   5.594   1.809   8.218
 1666TIP3    H126561   5.530   1.833   8.285
 1666TIP3    H226562   5.656   1.882   8.217
 1667TIP3   OH226563   5.493   5.775   1.026
 1667TIP3    H126564   5.555   5.778   0.953
 1667TIP3    H226565   5.506   5.689   1.065
 1668TIP3   OH226566   4.209   2.917   2.654
 1668TIP3    H126567   4.128   2.866   2.649
 1668TIP3    H226568   4.243   2.919   2.565
 1669TIP3   OH226569   3.245   0.649   8.057
 1669TIP3    H126570   3.290   0.614   7.980
 1669TIP3    H226571   3.278   0.597   8.130
 1670TIP3   OH226572   3.031   2.041   0.469
 1670TIP3    H126573   2.954   2.032   0.413
 1670TIP3    H226574   2.997   2.034   0.558
 1671TIP3   OH226575   3.140   3.934   6.493
 1671TIP3    H126576   3.059   3.982   6.474
 1671TIP3    H226577   3.119   3.843   6.471
 1672TIP3   OH226578   5.581   4.762   0.969
 1672TIP3    H126579   5.656   4.761   0.909
 1672TIP3    H226580   5.505   4.769   0.912
 1673TIP3   OH226581   2.208   3.059   7.998
 1673TIP3    H126582   2.121   3.023   7.982
 1673TIP3    H226583   2.231   3.105   7.917
 1674TIP3   OH226584   0.485   1.116   1.898
 1674TIP3    H126585   0.398   1.110   1.937
 1674TIP3    H226586   0.518   1.026   1.900
 1675TIP3   OH226587   0.808   0.687   0.291
 1675TIP3    H126588   0.877   0.630   0.326
 1675TIP3    H226589   0.834   0.775   0.318
 1676TIP3   OH226590   2.738   6.416   8.385
 1676TIP3    H126591   2.736   6.501   8.342
 1676TIP3    H226592   2.815   6.373   8.347
 1677TIP3   OH226593   2.062   2.829   7.007
 1677TIP3    H126594   2.033   2.899   6.949
 1677TIP3    H226595   2.089   2.874   7.087
 1678TIP3   OH226596   0.720   6.460   8.134
 1678TIP3    H126597   0.785   6.485   8.068
 1678TIP3    H226598   0.636   6.463   8.088
 1679TIP3   OH226599   4.447   5.679   7.460
 1679TIP3    H126600   4.378   5.736   7.493
 1679TIP3    H226601   4.434   5.680   7.365
 1680TIP3   OH226602   0.260   1.785   8.334
 1680TIP3    H126603   0.307   1.743   8.262
 1680TIP3    H226604   0.169   1.760   8.321
 1681TIP3   OH226605   1.002   6.025   6.417
 1681TIP3    H126606   1.052   5.962   6.366
 1681TIP3    H226607   0.918   5.982   6.435
 1682TIP3   OH226608   1.248   2.141   7.638
 1682TIP3    H126609   1.338   2.140   7.605
 1682TIP3    H226610   1.199   2.190   7.573
 1683TIP3   OH226611   4.089   6.141   6.370
 1683TIP3    H126612   4.026   6.109   6.305
 1683TIP3    H226613   4.150   6.194   6.319
 1684TIP3   OH226614   3.562   6.925   0.300
 1684TIP3    H126615   3.587   7.003   0.251
 1684TIP3    H226616   3.589   6.852   0.245
 1685TIP3   OH226617   2.849   2.609   1.387
 1685TIP3    H126618   2.846   2.609   1.482
 1685TIP3    H226619   2.760   2.587   1.359
 1686TIP3   OH226620   2.514   5.189   0.514
 1686TIP3    H126621   2.578   5.235   0.460
 1686TIP3    H226622   2.564   5.163   0.592
 1687TIP3   OH226623   6.098   3.794   6.476
 1687TIP3    H126624   6.054   3.749   6.548
 1687TIP3    H226625   6.080   3.740   6.399
 1688TIP3   OH226626   0.756   3.798   7.792
 1688TIP3    H126627   0.777   3.874   7.846
 1688TIP3    H226628   0.664   3.780   7.812
 1689TIP3   OH226629   2.773   1.140   0.003
 1689TIP3    H126630   2.690   1.183   0.022
 1689TIP3    H226631   2.752   1.077  -0.066
 1690TIP3   OH226632   0.081   5.314   6.609
 1690TIP3    H126633   0.162   5.294   6.656
 1690TIP3    H226634   0.018   5.250   6.642
 1691TIP3   OH226635   0.981   2.030   7.213
 1691TIP3    H126636   0.916   1.963   7.195
 1691TIP3    H226637   1.064   1.983   7.219
 1692TIP3   OH226638   1.752   5.758   0.040
 1692TIP3    H126639   1.802   5.773   0.121
 1692TIP3    H226640   1.765   5.665   0.022
 1693TIP3   OH226641   4.626   2.303   7.594
 1693TIP3    H126642   4.705   2.263   7.557
 1693TIP3    H226643   4.554   2.263   7.545
 1694TIP3   OH226644   4.571   1.401   0.671
 1694TIP3    H126645   4.583   1.420   0.764
 1694TIP3    H226646   4.645   1.345   0.648
 1695TIP3   OH226647   0.801   0.538   7.768
 1695TIP3    H126648   0.865   0.531   7.697
 1695TIP3    H226649   0.843   0.594   7.833
 1696TIP3   OH226650   6.220   2.168   7.644
 1696TIP3    H126651   6.268   2.250   7.655
 1696TIP3    H226652   6.258   2.128   7.566
 1697TIP3   OH226653   2.664   5.279   7.827
 1697TIP3    H126654   2.667   5.348   7.893
 1697TIP3    H226655   2.616   5.208   7.868
 1698TIP3   OH226656   1.618   0.350   7.326
 1698TIP3    H126657   1.584   0.320   7.410
 1698TIP3    H226658   1.590   0.283   7.264
 1699TIP3   OH226659   1.227   6.119   2.512
 1699TIP3    H126660   1.218   6.035   2.467
 1699TIP3    H226661   1.252   6.095   2.601
 1700TIP3   OH226662   1.243   4.452   7.167
 1700TIP3    H126663   1.221   4.359   7.159
 1700TIP3    H226664   1.185   4.485   7.235
 1701TIP3   OH226665   6.806   1.061   0.796
 1701TIP3    H126666   6.828   1.037   0.707
 1701TIP3    H226667   6.736   1.126   0.787
 1702TIP3   OH226668   6.210   4.354   7.144
 1702TIP3    H126669   6.139   4.346   7.208
 1702TIP3    H226670   6.276   4.291   7.172
 1703TIP3   OH226671   0.378   2.306   1.861
 1703TIP3    H126672   0.301   2.353   1.830
 1703TIP3    H226673   0.427   2.371   1.911
 1704TIP3   OH226674   4.941   3.385   1.015
 1704TIP3    H126675   4.943   3.337   0.932
 1704TIP3    H226676   5.012   3.347   1.067
 1705TIP3   OH226677   4.076   1.131   7.615
 1705TIP3    H126678   4.018   1.055   7.613
 1705TIP3    H226679   4.066   1.171   7.529
 1706TIP3   OH226680   4.048   3.998   6.264
 1706TIP3    H126681   4.055   4.051   6.184
 1706TIP3    H226682   4.086   3.913   6.240
 1707TIP3   OH226683   4.787   5.887   1.094
 1707TIP3    H126684   4.827   5.844   1.018
 1707TIP3    H226685   4.794   5.822   1.164
 1708TIP3   OH226686   1.477   2.867   7.227
 1708TIP3    H126687   1.387   2.897   7.213
 1708TIP3    H226688   1.517   2.869   7.140
 1709TIP3   OH226689   5.828   0.668   7.015
 1709TIP3    H126690   5.842   0.598   6.951
 1709TIP3    H226691   5.778   0.626   7.086
 1710TIP3   OH226692   2.821   0.060   0.273
 1710TIP3    H126693   2.830   0.070   0.178
 1710TIP3    H226694   2.906   0.088   0.308
 1711TIP3   OH226695   3.758   0.650   0.676
 1711TIP3    H126696   3.722   0.682   0.593
 1711TIP3    H226697   3.853   0.661   0.667
 1712TIP3   OH226698   0.978   3.827   7.617
 1712TIP3    H126699   1.006   3.739   7.641
 1712TIP3    H226700   0.890   3.835   7.654
 1713TIP3   OH226701   3.597   6.383   0.889
 1713TIP3    H126702   3.599   6.292   0.918
 1713TIP3    H226703   3.661   6.427   0.944
 1714TIP3   OH226704   4.285   4.026   0.587
 1714TIP3    H126705   4.369   3.983   0.603
 1714TIP3    H226706   4.269   4.014   0.494
 1715TIP3   OH226707   5.456   3.522   7.402
 1715TIP3    H126708   5.380   3.475   7.367
 1715TIP3    H226709   5.531   3.468   7.378
 1716TIP3   OH226710   6.965   1.794   7.860
 1716TIP3    H126711   7.018   1.870   7.837
 1716TIP3    H226712   6.896   1.828   7.918
 1717TIP3   OH226713   0.475   1.381   2.010
 1717TIP3    H126714   0.570   1.394   2.008
 1717TIP3    H226715   0.462   1.291   1.978
 1718TIP3   OH226716   1.535   2.081   2.441
 1718TIP3    H126717   1.471   2.141   2.402
 1718TIP3    H226718   1.496   1.994   2.428
 1719TIP3   OH226719   5.317   6.931   7.937
 1719TIP3    H126720   5.246   6.886   7.983
 1719TIP3    H226721   5.356   6.863   7.882
 1720TIP3   OH226722   1.355   6.943   6.001
 1720TIP3    H126723   1.429   6.886   5.980
 1720TIP3    H226724   1.279   6.885   6.000
 1721TIP3   OH226725   5.581   4.537   7.196
 1721TIP3    H126726   5.533   4.583   7.265
 1721TIP3    H226727   5.619   4.607   7.142
 1722TIP3   OH226728   4.431   1.616   6.692
 1722TIP3    H126729   4.339   1.630   6.714
 1722TIP3    H226730   4.445   1.670   6.615
 1723TIP3   OH226731   3.156   5.104   1.483
 1723TIP3    H126732   3.232   5.156   1.457
 1723TIP3    H226733   3.151   5.114   1.578
 1724TIP3   OH226734   1.378   0.693   7.566
 1724TIP3    H126735   1.389   0.788   7.562
 1724TIP3    H226736   1.431   0.659   7.493
 1725TIP3   OH226737   4.295   2.202   1.174
 1725TIP3    H126738   4.316   2.295   1.186
 1725TIP3    H226739   4.264   2.172   1.259
 1726TIP3   OH226740   5.423   2.872   0.087
 1726TIP3    H126741   5.491   2.891   0.022
 1726TIP3    H226742   5.388   2.957   0.111
 1727TIP3   OH226743   5.216   4.638   0.138
 1727TIP3    H126744   5.276   4.703   0.175
 1727TIP3    H226745   5.273   4.577   0.090
 1728TIP3   OH226746   6.188   0.908   1.520
 1728TIP3    H126747   6.246   0.957   1.462
 1728TIP3    H226748   6.232   0.908   1.604
 1729TIP3   OH226749   5.846   6.788   7.510
 1729TIP3    H126750   5.812   6.841   7.583
 1729TIP3    H226751   5.938   6.774   7.532
 1730TIP3   OH226752   2.194   0.247   1.161
 1730TIP3    H126753   2.224   0.162   1.192
 1730TIP3    H226754   2.246   0.263   1.081
 1731TIP3   OH226755   5.077   1.374   1.597
 1731TIP3    H126756   4.992   1.407   1.628
 1731TIP3    H226757   5.111   1.443   1.541
 1732TIP3   OH226758   1.216   5.618   7.438
 1732TIP3    H126759   1.157   5.671   7.385
 1732TIP3    H226760   1.266   5.681   7.489
 1733TIP3   OH226761   2.630   4.270   6.200
 1733TIP3    H126762   2.556   4.283   6.140
 1733TIP3    H226763   2.605   4.316   6.280
 1734TIP3   OH226764   2.818   5.150   6.432
 1734TIP3    H126765   2.873   5.210   6.381
 1734TIP3    H226766   2.771   5.207   6.494
 1735TIP3   OH226767   4.848   5.531   7.912
 1735TIP3    H126768   4.859   5.562   8.002
 1735TIP3    H226769   4.798   5.600   7.868
 1736TIP3   OH226770   1.129   0.862   1.637
 1736TIP3    H126771   1.069   0.846   1.564
 1736TIP3    H226772   1.138   0.777   1.679
 1737TIP3   OH226773   3.767   4.095   0.405
 1737TIP3    H126774   3.709   4.172   0.405
 1737TIP3    H226775   3.783   4.077   0.313
 1738TIP3   OH226776   5.886   4.085   8.072
 1738TIP3    H126777   5.838   4.018   8.120
 1738TIP3    H226778   5.831   4.164   8.079
 1739TIP3   OH226779   6.229   4.255   2.365
 1739TIP3    H126780   6.278   4.212   2.295
 1739TIP3    H226781   6.266   4.343   2.370
 1740TIP3   OH226782   0.484   5.228   6.519
 1740TIP3    H126783   0.490   5.310   6.471
 1740TIP3    H226784   0.419   5.176   6.471
 1741TIP3   OH226785   1.053   1.901   2.099
 1741TIP3    H126786   0.966   1.869   2.076
 1741TIP3    H226787   1.103   1.823   2.122
 1742TIP3   OH226788   1.724   1.896   6.304
 1742TIP3    H126789   1.730   1.941   6.220
 1742TIP3    H226790   1.809   1.911   6.345
 1743TIP3   OH226791   5.778   6.490   1.190
 1743TIP3    H126792   5.724   6.538   1.128
 1743TIP3    H226793   5.730   6.409   1.207
 1744TIP3   OH226794   2.564   6.232   8.118
 1744TIP3    H126795   2.558   6.137   8.108
 1744TIP3    H226796   2.608   6.262   8.039
 1745TIP3   OH226797   4.038   2.974   2.217
 1745TIP3    H126798   4.072   2.929   2.140
 1745TIP3    H226799   4.113   2.978   2.277
 1746TIP3   OH226800   6.528   6.343   0.816
 1746TIP3    H126801   6.508   6.254   0.844
 1746TIP3    H226802   6.572   6.383   0.891
 1747TIP3   OH226803   0.611   6.309   1.888
 1747TIP3    H126804   0.521   6.277   1.876
 1747TIP3    H226805   0.634   6.347   1.803
 1748TIP3   OH226806   4.928   4.605   7.040
 1748TIP3    H126807   4.867   4.665   7.083
 1748TIP3    H226808   4.915   4.521   7.085
 1749TIP3   OH226809   1.884   2.037   7.045
 1749TIP3    H126810   1.931   2.038   6.961
 1749TIP3    H226811   1.857   1.946   7.055
 1750TIP3   OH226812   2.664   0.623   8.035
 1750TIP3    H126813   2.602   0.696   8.033
 1750TIP3    H226814   2.613   0.547   8.006
 1751TIP3   OH226815   5.204   4.359   0.395
 1751TIP3    H126816   5.134   4.320   0.342
 1751TIP3    H226817   5.181   4.452   0.400
 1752TIP3   OH226818   2.998   4.237   1.075
 1752TIP3    H126819   2.927   4.292   1.108
 1752TIP3    H226820   2.975   4.221   0.984
 1753TIP3   OH226821   0.967   4.753   0.663
 1753TIP3    H126822   0.883   4.709   0.678
 1753TIP3    H226823   0.949   4.816   0.594
 1754TIP3   OH226824   1.123   3.422   1.659
 1754TIP3    H126825   1.208   3.466   1.662
 1754TIP3    H226826   1.133   3.348   1.720
 1755TIP3   OH226827   4.854   2.141   7.498
 1755TIP3    H126828   4.928   2.150   7.558
 1755TIP3    H226829   4.892   2.104   7.419
 1756TIP3   OH226830   5.585   0.673   1.195
 1756TIP3    H126831   5.671   0.685   1.157
 1756TIP3    H226832   5.566   0.755   1.240
 1757TIP3   OH226833   5.093   4.645   0.810
 1757TIP3    H126834   5.044   4.617   0.887
 1757TIP3    H226835   5.148   4.570   0.788
 1758TIP3   OH226836   4.280   5.167   7.413
 1758TIP3    H126837   4.278   5.074   7.393
 1758TIP3    H226838   4.207   5.204   7.363
 1759TIP3   OH226839   1.100   5.863   6.192
 1759TIP3    H126840   1.161   5.795   6.164
 1759TIP3    H226841   1.085   5.916   6.115
 1760TIP3   OH226842   1.565   4.433   7.872
 1760TIP3    H126843   1.572   4.528   7.877
 1760TIP3    H226844   1.480   4.413   7.912
 1761TIP3   OH226845   5.549   0.149   2.095
 1761TIP3    H126846   5.500   0.068   2.110
 1761TIP3    H226847   5.496   0.218   2.134
 1762TIP3   OH226848   2.757   2.018   6.108
 1762TIP3    H126849   2.781   1.925   6.110
 1762TIP3    H226850   2.661   2.017   6.102
 1763TIP3   OH226851   3.326   3.980   0.069
 1763TIP3    H126852   3.331   4.002  -0.024
 1763TIP3    H226853   3.411   4.004   0.105
 1764TIP3   OH226854   6.811   0.012   7.870
 1764TIP3    H126855   6.795   0.101   7.837
 1764TIP3    H226856   6.728  -0.013   7.912
 1765TIP3   OH226857   4.378   4.126   6.071
 1765TIP3    H126858   4.371   4.154   6.163
 1765TIP3    H226859   4.439   4.189   6.031
 1766TIP3   OH226860   6.848   2.232   0.512
 1766TIP3    H126861   6.815   2.314   0.549
 1766TIP3    H226862   6.799   2.164   0.558
 1767TIP3   OH226863   0.220   2.446   0.703
 1767TIP3    H126864   0.174   2.368   0.734
 1767TIP3    H226865   0.156   2.516   0.713
 1768TIP3   OH226866   6.537   1.291   7.552
 1768TIP3    H126867   6.601   1.220   7.549
 1768TIP3    H226868   6.467   1.263   7.493
 1769TIP3   OH226869   0.988   4.804   6.310
 1769TIP3    H126870   1.072   4.759   6.303
 1769TIP3    H226871   0.927   4.736   6.339
 1770TIP3   OH226872   2.898   4.616   1.868
 1770TIP3    H126873   2.846   4.536   1.878
 1770TIP3    H226874   2.842   4.675   1.819
 1771TIP3   OH226875   1.231   4.539   0.076
 1771TIP3    H126876   1.269   4.546  -0.011
 1771TIP3    H226877   1.157   4.480   0.066
 1772TIP3   OH226878   6.866   4.298   2.533
 1772TIP3    H126879   6.897   4.212   2.504
 1772TIP3    H226880   6.782   4.280   2.575
 1773TIP3   OH226881   6.563   5.461   7.051
 1773TIP3    H126882   6.580   5.421   6.965
 1773TIP3    H226883   6.501   5.532   7.032
 1774TIP3   OH226884   5.621   0.445   7.620
 1774TIP3    H126885   5.707   0.461   7.659
 1774TIP3    H226886   5.560   0.458   7.692
 1775TIP3   OH226887   3.575   0.611   1.946
 1775TIP3    H126888   3.557   0.612   2.040
 1775TIP3    H226889   3.662   0.573   1.938
 1776TIP3   OH226890   2.427   0.487   1.253
 1776TIP3    H126891   2.381   0.571   1.261
 1776TIP3    H226892   2.406   0.458   1.164
 1777TIP3   OH226893   6.817   1.723   7.614
 1777TIP3    H126894   6.767   1.644   7.632
 1777TIP3    H226895   6.866   1.740   7.695
 1778TIP3   OH226896   4.595   2.160   1.699
 1778TIP3    H126897   4.567   2.211   1.623
 1778TIP3    H226898   4.520   2.160   1.758
 1779TIP3   OH226899   2.463   2.995   7.028
 1779TIP3    H126900   2.455   3.064   7.094
 1779TIP3    H226901   2.439   2.914   7.075
 1780TIP3   OH226902   3.475   1.875   8.131
 1780TIP3    H126903   3.398   1.880   8.187
 1780TIP3    H226904   3.477   1.784   8.101
 1781TIP3   OH226905   1.842   5.298   1.894
 1781TIP3    H126906   1.909   5.354   1.854
 1781TIP3    H226907   1.886   5.260   1.971
 1782TIP3   OH226908   6.283   4.709   0.009
 1782TIP3    H126909   6.301   4.717  -0.085
 1782TIP3    H226910   6.258   4.617   0.021
 1783TIP3   OH226911   5.334   3.849   1.394
 1783TIP3    H126912   5.374   3.798   1.464
 1783TIP3    H226913   5.353   3.940   1.417
 1784TIP3   OH226914   1.923   2.024   2.017
 1784TIP3    H126915   1.887   1.935   2.020
 1784TIP3    H226916   1.856   2.075   1.970
 1785TIP3   OH226917   5.222   0.988   0.125
 1785TIP3    H126918   5.243   1.031   0.208
 1785TIP3    H226919   5.257   0.900   0.134
 1786TIP3   OH226920   3.201   6.224   0.392
 1786TIP3    H126921   3.175   6.286   0.324
 1786TIP3    H226922   3.121   6.210   0.443
 1787TIP3   OH226923   3.808   0.624   7.988
 1787TIP3    H126924   3.800   0.720   7.987
 1787TIP3    H226925   3.758   0.596   8.064
 1788TIP3   OH226926   0.553   4.924   1.465
 1788TIP3    H126927   0.483   4.989   1.462
 1788TIP3    H226928   0.523   4.854   1.407
 1789TIP3   OH226929   0.158   5.580   7.143
 1789TIP3    H126930   0.205   5.575   7.226
 1789TIP3    H226931   0.081   5.525   7.156
 1790TIP3   OH226932   3.515   0.005   1.524
 1790TIP3    H126933   3.510   0.011   1.620
 1790TIP3    H226934   3.499  -0.087   1.505
 1791TIP3   OH226935   0.108   4.783   0.618
 1791TIP3    H126936   0.155   4.848   0.670
 1791TIP3    H226937   0.078   4.719   0.682
 1792TIP3   OH226938   6.816   4.251   1.830
 1792TIP3    H126939   6.891   4.299   1.866
 1792TIP3    H226940   6.856   4.177   1.783
 1793TIP3   OH226941   3.646   2.641   7.822
 1793TIP3    H126942   3.552   2.638   7.842
 1793TIP3    H226943   3.681   2.706   7.882
 1794TIP3   OH226944   3.762   1.611   0.506
 1794TIP3    H126945   3.777   1.582   0.416
 1794TIP3    H226946   3.843   1.589   0.552
 1795TIP3   OH226947   5.057   6.570   1.433
 1795TIP3    H126948   4.984   6.520   1.469
 1795TIP3    H226949   5.079   6.632   1.502
 1796TIP3   OH226950   5.933   2.441   0.253
 1796TIP3    H126951   5.898   2.424   0.340
 1796TIP3    H226952   5.978   2.360   0.228
 1797TIP3   OH226953   1.165   3.583   8.289
 1797TIP3    H126954   1.137   3.674   8.283
 1797TIP3    H226955   1.247   3.579   8.241
 1798TIP3   OH226956   2.020   2.173   7.736
 1798TIP3    H126957   2.095   2.227   7.760
 1798TIP3    H226958   1.944   2.225   7.761
 1799TIP3   OH226959   1.308   4.056   0.661
 1799TIP3    H126960   1.350   4.141   0.678
 1799TIP3    H226961   1.381   3.994   0.655
 1800TIP3   OH226962   6.917   5.152   7.224
 1800TIP3    H126963   6.916   5.098   7.303
 1800TIP3    H226964   6.920   5.089   7.152
 1801TIP3   OH226965   6.575   5.193   7.167
 1801TIP3    H126966   6.508   5.262   7.167
 1801TIP3    H226967   6.657   5.240   7.181
 1802TIP3   OH226968   2.672   0.350   6.839
 1802TIP3    H126969   2.745   0.410   6.830
 1802TIP3    H226970   2.656   0.318   6.750
 1803TIP3   OH226971   6.909   5.928   7.903
 1803TIP3    H126972   6.835   5.985   7.883
 1803TIP3    H226973   6.884   5.886   7.986
 1804TIP3   OH226974   2.329   0.286   0.719
 1804TIP3    H126975   2.328   0.350   0.648
 1804TIP3    H226976   2.368   0.208   0.681
 1805TIP3   OH226977   3.511   2.634   0.967
 1805TIP3    H126978   3.437   2.694   0.953
 1805TIP3    H226979   3.583   2.674   0.918
 1806TIP3   OH226980   2.704   6.880   6.914
 1806TIP3    H126981   2.716   6.812   6.980
 1806TIP3    H226982   2.687   6.833   6.833
 1807TIP3   OH226983   4.337   3.729   0.389
 1807TIP3    H126984   4.422   3.710   0.429
 1807TIP3    H226985   4.277   3.667   0.431
 1808TIP3   OH226986   0.925   2.676   8.229
 1808TIP3    H126987   0.943   2.753   8.283
 1808TIP3    H226988   0.836   2.689   8.196
 1809TIP3   OH226989   3.886   1.352   1.423
 1809TIP3    H126990   3.870   1.297   1.500
 1809TIP3    H226991   3.978   1.378   1.431
 1810TIP3   OH226992   6.638   4.335   7.628
 1810TIP3    H126993   6.659   4.274   7.699
 1810TIP3    H226994   6.556   4.377   7.654
 1811TIP3   OH226995   0.704   2.257   6.171
 1811TIP3    H126996   0.631   2.313   6.196
 1811TIP3    H226997   0.781   2.315   6.176
 1812TIP3   OH226998   0.597   4.096   7.566
 1812TIP3    H126999   0.561   4.065   7.483
 1812TIP3    H227000   0.558   4.183   7.578
 1813TIP3   OH227001   0.644   0.352   7.264
 1813TIP3    H127002   0.715   0.349   7.200
 1813TIP3    H227003   0.635   0.444   7.285
 1814TIP3   OH227004   6.784   3.033   0.771
 1814TIP3    H127005   6.734   3.102   0.815
 1814TIP3    H227006   6.772   3.051   0.678
 1815TIP3   OH227007   6.222   4.488   6.505
 1815TIP3    H127008   6.252   4.413   6.556
 1815TIP3    H227009   6.285   4.496   6.434
 1816TIP3   OH227010   1.678   1.544   0.885
 1816TIP3    H127011   1.591   1.519   0.916
 1816TIP3    H227012   1.704   1.617   0.942
 1817TIP3   OH227013   4.617   0.603   1.361
 1817TIP3    H127014   4.664   0.655   1.427
 1817TIP3    H227015   4.679   0.537   1.333
 1818TIP3   OH227016   6.166   1.008   0.968
 1818TIP3    H127017   6.116   1.081   1.006
 1818TIP3    H227018   6.102   0.962   0.914
 1819TIP3   OH227019   5.429   2.858   8.126
 1819TIP3    H127020   5.407   2.949   8.149
 1819TIP3    H227021   5.513   2.865   8.082
 1820TIP3   OH227022   6.434   0.444   6.871
 1820TIP3    H127023   6.385   0.484   6.799
 1820TIP3    H227024   6.435   0.510   6.940
 1821TIP3   OH227025   1.870   5.128   2.298
 1821TIP3    H127026   1.919   5.190   2.244
 1821TIP3    H227027   1.791   5.177   2.324
 1822TIP3   OH227028   1.487   5.566   5.752
 1822TIP3    H127029   1.518   5.656   5.748
 1822TIP3    H227030   1.391   5.573   5.749
 1823TIP3   OH227031   0.500   2.381   6.351
 1823TIP3    H127032   0.518   2.366   6.444
 1823TIP3    H227033   0.501   2.477   6.341
 1824TIP3   OH227034   3.678   6.134   8.080
 1824TIP3    H127035   3.591   6.095   8.068
 1824TIP3    H227036   3.663   6.228   8.072
 1825TIP3   OH227037   5.138   6.463   1.950
 1825TIP3    H127038   5.184   6.393   1.996
 1825TIP3    H227039   5.082   6.502   2.017
 1826TIP3   OH227040   4.365   4.487   7.603
 1826TIP3    H127041   4.436   4.523   7.549
 1826TIP3    H227042   4.366   4.540   7.682
 1827TIP3   OH227043   3.615   1.184   7.518
 1827TIP3    H127044   3.559   1.115   7.552
 1827TIP3    H227045   3.622   1.247   7.590
 1828TIP3   OH227046   6.416   3.117   8.188
 1828TIP3    H127047   6.359   3.117   8.265
 1828TIP3    H227048   6.379   3.050   8.131
 1829TIP3   OH227049   4.817   5.035   7.688
 1829TIP3    H127050   4.829   5.063   7.597
 1829TIP3    H227051   4.856   4.948   7.692
 1830TIP3   OH227052   4.585   3.412   6.147
 1830TIP3    H127053   4.511   3.445   6.199
 1830TIP3    H227054   4.546   3.351   6.085
 1831TIP3   OH227055   5.379   1.887   7.408
 1831TIP3    H127056   5.284   1.883   7.401
 1831TIP3    H227057   5.410   1.891   7.318
 1832TIP3   OH227058   5.096   3.148   0.419
 1832TIP3    H127059   5.137   3.150   0.332
 1832TIP3    H227060   5.099   3.239   0.449
 1833TIP3   OH227061   6.867   5.537   7.627
 1833TIP3    H127062   6.805   5.603   7.594
 1833TIP3    H227063   6.839   5.522   7.717
 1834TIP3   OH227064   1.961   2.938   6.097
 1834TIP3    H127065   1.937   3.030   6.088
 1834TIP3    H227066   1.973   2.925   6.191
 1835TIP3   OH227067   2.932   6.209   1.273
 1835TIP3    H127068   2.863   6.212   1.340
 1835TIP3    H227069   2.909   6.277   1.211
 1836TIP3   OH227070   5.530   6.176   0.136
 1836TIP3    H127071   5.618   6.139   0.151
 1836TIP3    H227072   5.476   6.138   0.205
 1837TIP3   OH227073   6.883   5.564   6.918
 1837TIP3    H127074   6.974   5.585   6.896
 1837TIP3    H227075   6.884   5.551   7.013
 1838TIP3   OH227076   6.615   6.233   7.627
 1838TIP3    H127077   6.682   6.243   7.695
 1838TIP3    H227078   6.605   6.139   7.617
 1839TIP3   OH227079   6.726   1.673   1.680
 1839TIP3    H127080   6.644   1.646   1.720
 1839TIP3    H227081   6.794   1.641   1.739
 1840TIP3   OH227082   5.984   3.844   7.545
 1840TIP3    H127083   5.939   3.905   7.486
 1840TIP3    H227084   5.978   3.886   7.631
 1841TIP3   OH227085   2.719   3.620   8.068
 1841TIP3    H127086   2.799   3.653   8.028
 1841TIP3    H227087   2.680   3.696   8.111
 1842TIP3   OH227088   1.476   5.181   1.099
 1842TIP3    H127089   1.552   5.139   1.139
 1842TIP3    H227090   1.435   5.111   1.048
 1843TIP3   OH227091   4.153   5.185   0.977
 1843TIP3    H127092   4.102   5.117   0.931
 1843TIP3    H227093   4.090   5.256   0.991
 1844TIP3   OH227094   2.139   0.133   0.877
 1844TIP3    H127095   2.214   0.165   0.827
 1844TIP3    H227096   2.063   0.166   0.829
 1845TIP3   OH227097   1.068   3.927   0.903
 1845TIP3    H127098   1.019   4.007   0.886
 1845TIP3    H227099   1.099   3.899   0.817
 1846TIP3   OH227100   2.493   5.547   0.531
 1846TIP3    H127101   2.423   5.524   0.471
 1846TIP3    H227102   2.482   5.488   0.605
 1847TIP3   OH227103   3.531   3.845   1.420
 1847TIP3    H127104   3.515   3.930   1.460
 1847TIP3    H227105   3.625   3.831   1.429
 1848TIP3   OH227106   2.198   1.840   7.027
 1848TIP3    H127107   2.208   1.919   7.080
 1848TIP3    H227108   2.169   1.773   7.088
 1849TIP3   OH227109   0.746   6.034   0.312
 1849TIP3    H127110   0.677   6.095   0.288
 1849TIP3    H227111   0.825   6.069   0.270
 1850TIP3   OH227112   3.107   3.397   6.501
 1850TIP3    H127113   3.159   3.346   6.563
 1850TIP3    H227114   3.066   3.332   6.445
 1851TIP3   OH227115   1.906   3.541   1.950
 1851TIP3    H127116   1.957   3.510   2.025
 1851TIP3    H227117   1.913   3.636   1.953
 1852TIP3   OH227118   3.809   3.672   8.184
 1852TIP3    H127119   3.878   3.606   8.172
 1852TIP3    H227120   3.741   3.646   8.123
 1853TIP3   OH227121   1.154   6.756   6.053
 1853TIP3    H127122   1.180   6.733   6.143
 1853TIP3    H227123   1.076   6.703   6.037
 1854TIP3   OH227124   2.131   6.979   6.608
 1854TIP3    H127125   2.159   7.038   6.538
 1854TIP3    H227126   2.132   6.892   6.567
 1855TIP3   OH227127   2.842   6.880   6.577
 1855TIP3    H127128   2.862   6.787   6.568
 1855TIP3    H227129   2.747   6.883   6.591
 1856TIP3   OH227130   3.052   4.616   8.298
 1856TIP3    H127131   3.099   4.545   8.343
 1856TIP3    H227132   3.118   4.684   8.286
 1857TIP3   OH227133   5.212   2.160   7.249
 1857TIP3    H127134   5.295   2.169   7.202
 1857TIP3    H227135   5.203   2.242   7.299
 1858TIP3   OH227136   2.460   3.023   0.381
 1858TIP3    H127137   2.522   2.953   0.364
 1858TIP3    H227138   2.404   2.990   0.452
 1859TIP3   OH227139   2.282   4.783   7.522
 1859TIP3    H127140   2.254   4.699   7.558
 1859TIP3    H227141   2.301   4.764   7.430
 1860TIP3   OH227142   4.320   1.672   1.553
 1860TIP3    H127143   4.255   1.710   1.612
 1860TIP3    H227144   4.290   1.697   1.465
 1861TIP3   OH227145   4.918   6.911   0.299
 1861TIP3    H127146   5.009   6.891   0.321
 1861TIP3    H227147   4.919   6.931   0.205
 1862TIP3   OH227148   1.202   0.210   7.083
 1862TIP3    H127149   1.177   0.279   7.021
 1862TIP3    H227150   1.164   0.238   7.166
 1863TIP3   OH227151   5.292   5.834   6.770
 1863TIP3    H127152   5.261   5.750   6.803
 1863TIP3    H227153   5.339   5.812   6.689
 1864TIP3   OH227154   6.619   4.762   0.056
 1864TIP3    H127155   6.566   4.714   0.120
 1864TIP3    H227156   6.557   4.794  -0.009
 1865TIP3   OH227157   3.825   2.909   2.384
 1865TIP3    H127158   3.893   2.932   2.320
 1865TIP3    H227159   3.745   2.951   2.350
 1866TIP3   OH227160   5.782   1.126   7.970
 1866TIP3    H127161   5.824   1.204   8.005
 1866TIP3    H227162   5.751   1.079   8.047
 1867TIP3   OH227163   3.494   1.900   7.528
 1867TIP3    H127164   3.486   1.887   7.623
 1867TIP3    H227165   3.522   1.814   7.495
 1868TIP3   OH227166   2.564   3.398   7.323
 1868TIP3    H127167   2.626   3.428   7.389
 1868TIP3    H227168   2.554   3.473   7.264
 1869TIP3   OH227169   4.746   0.542   0.967
 1869TIP3    H127170   4.738   0.623   1.017
 1869TIP3    H227171   4.838   0.517   0.976
 1870TIP3   OH227172   1.873   5.396   1.524
 1870TIP3    H127173   1.916   5.451   1.458
 1870TIP3    H227174   1.871   5.450   1.602
 1871TIP3   OH227175   4.613   3.151   1.396
 1871TIP3    H127176   4.524   3.116   1.392
 1871TIP3    H227177   4.615   3.203   1.476
 1872TIP3   OH227178   0.248   0.925   6.884
 1872TIP3    H127179   0.215   0.835   6.878
 1872TIP3    H227180   0.257   0.941   6.978
 1873TIP3   OH227181   3.506   1.370   1.464
 1873TIP3    H127182   3.486   1.434   1.533
 1873TIP3    H227183   3.552   1.300   1.510
 1874TIP3   OH227184   3.080   1.465   2.261
 1874TIP3    H127185   3.082   1.521   2.339
 1874TIP3    H227186   2.987   1.449   2.245
 1875TIP3   OH227187   2.185   6.392   8.047
 1875TIP3    H127188   2.134   6.432   7.977
 1875TIP3    H227189   2.123   6.387   8.121
 1876TIP3   OH227190   0.272   1.130   1.027
 1876TIP3    H127191   0.302   1.095   0.943
 1876TIP3    H227192   0.213   1.202   1.004
 1877TIP3   OH227193   5.807   2.664   7.668
 1877TIP3    H127194   5.809   2.681   7.574
 1877TIP3    H227195   5.785   2.571   7.675
 1878TIP3   OH227196   6.363   0.770   0.507
 1878TIP3    H127197   6.382   0.678   0.490
 1878TIP3    H227198   6.268   0.773   0.520
 1879TIP3   OH227199   1.953   1.411   5.871
 1879TIP3    H127200   2.009   1.452   5.937
 1879TIP3    H227201   1.872   1.390   5.917
 1880TIP3   OH227202   1.690   3.826   0.885
 1880TIP3    H127203   1.774   3.870   0.873
 1880TIP3    H227204   1.691   3.796   0.976
 1881TIP3   OH227205   6.561   0.567   0.218
 1881TIP3    H127206   6.491   0.625   0.188
 1881TIP3    H227207   6.606   0.541   0.138
 1882TIP3   OH227208   0.844   0.394   1.494
 1882TIP3    H127209   0.805   0.464   1.547
 1882TIP3    H227210   0.806   0.314   1.527
 1883TIP3   OH227211   4.095   3.151   6.977
 1883TIP3    H127212   4.166   3.101   7.018
 1883TIP3    H227213   4.064   3.210   7.047
 1884TIP3   OH227214   4.740   4.181   7.560
 1884TIP3    H127215   4.726   4.266   7.602
 1884TIP3    H227216   4.658   4.133   7.573
 1885TIP3   OH227217   3.777   4.058   0.681
 1885TIP3    H127218   3.739   4.075   0.594
 1885TIP3    H227219   3.866   4.029   0.662
 1886TIP3   OH227220   1.238   2.404   0.723
 1886TIP3    H127221   1.325   2.362   0.722
 1886TIP3    H227222   1.257   2.496   0.742
 1887TIP3   OH227223   5.450   6.053   1.345
 1887TIP3    H127224   5.399   6.003   1.282
 1887TIP3    H227225   5.538   6.055   1.309
 1888TIP3   OH227226   1.947   4.585   6.909
 1888TIP3    H127227   1.936   4.639   6.988
 1888TIP3    H227228   1.996   4.641   6.849
 1889TIP3   OH227229   6.259   5.787   7.875
 1889TIP3    H127230   6.189   5.736   7.836
 1889TIP3    H227231   6.232   5.798   7.967
 1890TIP3   OH227232   6.050   5.591   6.632
 1890TIP3    H127233   5.991   5.665   6.647
 1890TIP3    H227234   6.122   5.604   6.694
 1891TIP3   OH227235   1.979   3.405   0.960
 1891TIP3    H127236   1.897   3.435   0.923
 1891TIP3    H227237   1.973   3.425   1.053
 1892TIP3   OH227238   5.350   0.776   7.077
 1892TIP3    H127239   5.313   0.841   7.137
 1892TIP3    H227240   5.316   0.692   7.108
 1893TIP3   OH227241   3.222   6.524   6.677
 1893TIP3    H127242   3.239   6.527   6.582
 1893TIP3    H227243   3.206   6.431   6.695
 1894TIP3   OH227244   1.278   6.311   0.283
 1894TIP3    H127245   1.340   6.379   0.256
 1894TIP3    H227246   1.259   6.331   0.374
 1895TIP3   OH227247   1.863   4.239   1.717
 1895TIP3    H127248   1.954   4.213   1.729
 1895TIP3    H227249   1.812   4.167   1.753
 1896TIP3   OH227250   1.798   1.394   1.157
 1896TIP3    H127251   1.854   1.372   1.083
 1896TIP3    H227252   1.838   1.472   1.195
 1897TIP3   OH227253   5.650   1.561   0.473
 1897TIP3    H127254   5.741   1.571   0.444
 1897TIP3    H227255   5.645   1.472   0.506
 1898TIP3   OH227256   6.318   5.247   1.919
 1898TIP3    H127257   6.359   5.251   2.006
 1898TIP3    H227258   6.319   5.337   1.888
 1899TIP3   OH227259   5.697   0.927   0.382
 1899TIP3    H127260   5.663   0.880   0.458
 1899TIP3    H227261   5.654   0.885   0.307
 1900TIP3   OH227262   6.748   1.452   6.427
 1900TIP3    H127263   6.825   1.397   6.415
 1900TIP3    H227264   6.705   1.417   6.505
 1901TIP3   OH227265   5.082   2.276   8.195
 1901TIP3    H127266   4.998   2.307   8.228
 1901TIP3    H227267   5.061   2.236   8.111
 1902TIP3   OH227268   5.657   4.200   7.126
 1902TIP3    H127269   5.587   4.138   7.145
 1902TIP3    H227270   5.623   4.254   7.055
 1903TIP3   OH227271   4.542   5.140   7.671
 1903TIP3    H127272   4.624   5.094   7.684
 1903TIP3    H227273   4.537   5.154   7.576
 1904TIP3   OH227274   1.126   0.733   2.125
 1904TIP3    H127275   1.188   0.747   2.197
 1904TIP3    H227276   1.129   0.639   2.109
 1905TIP3   OH227277   2.241   5.110   1.105
 1905TIP3    H127278   2.282   5.158   1.177
 1905TIP3    H227279   2.296   5.131   1.029
 1906TIP3   OH227280   2.598   6.801   7.957
 1906TIP3    H127281   2.668   6.767   7.900
 1906TIP3    H227282   2.518   6.787   7.907
 1907TIP3   OH227283   1.667   3.188   6.638
 1907TIP3    H127284   1.754   3.172   6.601
 1907TIP3    H227285   1.618   3.229   6.566
 1908TIP3   OH227286   2.622   2.757   8.230
 1908TIP3    H127287   2.682   2.686   8.254
 1908TIP3    H227288   2.663   2.798   8.154
 1909TIP3   OH227289   0.353   3.924   1.230
 1909TIP3    H127290   0.351   3.846   1.175
 1909TIP3    H227291   0.268   3.926   1.273
 1910TIP3   OH227292   0.728   4.678   7.565
 1910TIP3    H127293   0.635   4.667   7.582
 1910TIP3    H227294   0.734   4.754   7.507
 1911TIP3   OH227295   5.721   1.449   6.181
 1911TIP3    H127296   5.804   1.422   6.142
 1911TIP3    H227297   5.744   1.525   6.235
 1912TIP3   OH227298   3.337   0.650   7.791
 1912TIP3    H127299   3.406   0.604   7.743
 1912TIP3    H227300   3.376   0.735   7.811
 1913TIP3   OH227301   5.775   3.724   8.238
 1913TIP3    H127302   5.697   3.712   8.183
 1913TIP3    H227303   5.742   3.720   8.327
 1914TIP3   OH227304   0.526   1.008   8.154
 1914TIP3    H127305   0.477   0.951   8.214
 1914TIP3    H227306   0.611   0.965   8.145
 1915TIP3   OH227307   0.053   1.551   7.941
 1915TIP3    H127308   0.035   1.626   7.884
 1915TIP3    H227309  -0.011   1.558   8.012
 1916TIP3   OH227310   0.171   6.621   1.407
 1916TIP3    H127311   0.202   6.626   1.317
 1916TIP3    H227312   0.173   6.711   1.439
 1917TIP3   OH227313   0.537   4.777   7.821
 1917TIP3    H127314   0.589   4.855   7.801
 1917TIP3    H227315   0.447   4.804   7.806
 1918TIP3   OH227316   4.026   6.598   1.948
 1918TIP3    H127317   4.073   6.681   1.956
 1918TIP3    H227318   3.985   6.585   2.033
 1919TIP3   OH227319   6.347   4.148   0.060
 1919TIP3    H127320   6.305   4.063   0.074
 1919TIP3    H227321   6.277   4.212   0.075
 1920TIP3   OH227322   3.143   4.189   0.514
 1920TIP3    H127323   3.232   4.197   0.478
 1920TIP3    H227324   3.086   4.200   0.439
 1921TIP3   OH227325   1.085   2.988   7.332
 1921TIP3    H127326   1.110   2.909   7.379
 1921TIP3    H227327   1.059   2.957   7.245
 1922TIP3   OH227328   0.494   2.060   1.431
 1922TIP3    H127329   0.434   2.000   1.476
 1922TIP3    H227330   0.580   2.038   1.467
 1923TIP3   OH227331   2.083   1.623   0.286
 1923TIP3    H127332   2.058   1.560   0.219
 1923TIP3    H227333   2.178   1.628   0.279
 1924TIP3   OH227334   2.251   2.869   0.052
 1924TIP3    H127335   2.234   2.865  -0.042
 1924TIP3    H227336   2.330   2.922   0.060
 1925TIP3   OH227337   0.400   3.532   1.655
 1925TIP3    H127338   0.383   3.605   1.715
 1925TIP3    H227339   0.477   3.560   1.606
 1926TIP3   OH227340   0.504   6.686   2.294
 1926TIP3    H127341   0.416   6.724   2.290
 1926TIP3    H227342   0.503   6.616   2.229
 1927TIP3   OH227343   1.802   1.677   8.185
 1927TIP3    H127344   1.776   1.592   8.149
 1927TIP3    H227345   1.801   1.663   8.280
 1928TIP3   OH227346   4.144   4.129   7.298
 1928TIP3    H127347   4.236   4.154   7.299
 1928TIP3    H227348   4.124   4.104   7.388
 1929TIP3   OH227349   5.902   4.714   6.636
 1929TIP3    H127350   5.856   4.646   6.686
 1929TIP3    H227351   5.832   4.769   6.600
 1930TIP3   OH227352   4.766   3.364   0.232
 1930TIP3    H127353   4.714   3.387   0.155
 1930TIP3    H227354   4.761   3.441   0.288
 1931TIP3   OH227355   5.794   6.158   0.799
 1931TIP3    H127356   5.866   6.212   0.767
 1931TIP3    H227357   5.789   6.177   0.893
 1932TIP3   OH227358   4.282   2.450   7.714
 1932TIP3    H127359   4.308   2.526   7.767
 1932TIP3    H227360   4.349   2.445   7.646
 1933TIP3   OH227361   4.364   6.723   0.019
 1933TIP3    H127362   4.400   6.646   0.064
 1933TIP3    H227363   4.436   6.786   0.017
 1934TIP3   OH227364   2.293   5.796   8.065
 1934TIP3    H127365   2.218   5.849   8.036
 1934TIP3    H227366   2.307   5.822   8.156
 1935TIP3   OH227367   3.544   3.295   7.195
 1935TIP3    H127368   3.541   3.218   7.139
 1935TIP3    H227369   3.624   3.340   7.170
 1936TIP3   OH227370   0.646   1.024   1.141
 1936TIP3    H127371   0.601   1.095   1.094
 1936TIP3    H227372   0.650   1.053   1.232
 1937TIP3   OH227373   6.510   3.402   1.677
 1937TIP3    H127374   6.552   3.475   1.723
 1937TIP3    H227375   6.581   3.360   1.628
 1938TIP3   OH227376   1.581   1.239   6.588
 1938TIP3    H127377   1.607   1.157   6.630
 1938TIP3    H227378   1.531   1.212   6.511
 1939TIP3   OH227379   1.418   5.074   7.568
 1939TIP3    H127380   1.421   5.036   7.656
 1939TIP3    H227381   1.508   5.104   7.552
 1940TIP3   OH227382   5.002   1.566   7.295
 1940TIP3    H127383   4.924   1.559   7.241
 1940TIP3    H227384   5.049   1.484   7.281
 1941TIP3   OH227385   0.902   0.410   8.015
 1941TIP3    H127386   0.847   0.336   8.042
 1941TIP3    H227387   0.934   0.386   7.929
 1942TIP3   OH227388   0.997   3.595   2.539
 1942TIP3    H127389   1.018   3.516   2.590
 1942TIP3    H227390   0.975   3.562   2.452
 1943TIP3   OH227391   3.574   3.157   1.463
 1943TIP3    H127392   3.574   3.111   1.380
 1943TIP3    H227393   3.658   3.133   1.503
 1944TIP3   OH227394   2.806   5.077   6.169
 1944TIP3    H127395   2.719   5.058   6.135
 1944TIP3    H227396   2.796   5.073   6.265
 1945TIP3   OH227397   1.075   3.175   8.362
 1945TIP3    H127398   1.137   3.248   8.371
 1945TIP3    H227399   0.989   3.216   8.360
 1946TIP3   OH227400   2.410   6.908   1.577
 1946TIP3    H127401   2.316   6.907   1.596
 1946TIP3    H227402   2.438   6.997   1.596
 1947TIP3   OH227403   2.465   2.115   1.167
 1947TIP3    H127404   2.439   2.147   1.081
 1947TIP3    H227405   2.467   2.020   1.158
 1948TIP3   OH227406   5.191   5.578   1.066
 1948TIP3    H127407   5.245   5.528   1.127
 1948TIP3    H227408   5.196   5.528   0.984
 1949TIP3   OH227409   0.103   5.553   8.030
 1949TIP3    H127410   0.015   5.586   8.048
 1949TIP3    H227411   0.094   5.458   8.026
 1950TIP3   OH227412   5.130   2.774   8.141
 1950TIP3    H127413   5.197   2.835   8.173
 1950TIP3    H227414   5.103   2.811   8.057
 1951TIP3   OH227415   2.833   3.469   2.071
 1951TIP3    H127416   2.892   3.412   2.023
 1951TIP3    H227417   2.884   3.497   2.148
 1952TIP3   OH227418   4.065   0.599   2.068
 1952TIP3    H127419   4.043   0.680   2.114
 1952TIP3    H227420   4.024   0.608   1.982
 1953TIP3   OH227421   1.992   1.088   2.282
 1953TIP3    H127422   1.952   1.135   2.356
 1953TIP3    H227423   2.079   1.127   2.273
 1954TIP3   OH227424   2.367   0.080   8.241
 1954TIP3    H127425   2.308   0.048   8.173
 1954TIP3    H227426   2.419   0.003   8.265
 1955TIP3   OH227427   2.965   2.030   0.739
 1955TIP3    H127428   2.891   1.978   0.771
 1955TIP3    H227429   2.951   2.116   0.780
 1956TIP3   OH227430   1.139   6.818   7.915
 1956TIP3    H127431   1.118   6.816   7.821
 1956TIP3    H227432   1.092   6.895   7.948
 1957TIP3   OH227433   1.604   3.115   7.275
 1957TIP3    H127434   1.581   3.026   7.300
 1957TIP3    H227435   1.539   3.139   7.209
 1958TIP3   OH227436   5.241   6.459   7.443
 1958TIP3    H127437   5.246   6.471   7.348
 1958TIP3    H227438   5.204   6.372   7.455
 1959TIP3   OH227439   2.425   1.716   1.933
 1959TIP3    H127440   2.405   1.682   2.020
 1959TIP3    H227441   2.521   1.723   1.932
 1960TIP3   OH227442   5.605   3.306   7.350
 1960TIP3    H127443   5.556   3.225   7.337
 1960TIP3    H227444   5.681   3.281   7.402
 1961TIP3   OH227445   0.695   4.915   1.173
 1961TIP3    H127446   0.627   4.849   1.159
 1961TIP3    H227447   0.758   4.898   1.103
 1962TIP3   OH227448   2.808   0.668   7.075
 1962TIP3    H127449   2.793   0.674   6.981
 1962TIP3    H227450   2.899   0.698   7.086
 1963TIP3   OH227451   0.553   3.405   8.096
 1963TIP3    H127452   0.507   3.374   8.174
 1963TIP3    H227453   0.558   3.500   8.107
 1964TIP3   OH227454   2.122   0.671   0.638
 1964TIP3    H127455   2.125   0.765   0.657
 1964TIP3    H227456   2.169   0.630   0.710
 1965TIP3   OH227457   6.050   0.931   8.192
 1965TIP3    H127458   6.078   1.022   8.195
 1965TIP3    H227459   5.957   0.934   8.171
 1966TIP3   OH227460   2.682   4.839   7.256
 1966TIP3    H127461   2.757   4.896   7.240
 1966TIP3    H227462   2.663   4.800   7.171
 1967TIP3   OH227463   5.784   1.905   0.919
 1967TIP3    H127464   5.827   1.820   0.927
 1967TIP3    H227465   5.796   1.947   1.004
 1968TIP3   OH227466   1.431   5.481   0.094
 1968TIP3    H127467   1.521   5.482   0.125
 1968TIP3    H227468   1.410   5.573   0.078
 1969TIP3   OH227469   0.948   4.704   8.393
 1969TIP3    H127470   0.969   4.731   8.483
 1969TIP3    H227471   0.930   4.611   8.399
 1970TIP3   OH227472   1.565   4.948   7.931
 1970TIP3    H127473   1.553   4.932   8.025
 1970TIP3    H227474   1.659   4.936   7.917
 1971TIP3   OH227475   5.671   3.344   6.929
 1971TIP3    H127476   5.678   3.439   6.936
 1971TIP3    H227477   5.743   3.318   6.871
 1972TIP3   OH227478   2.170   1.478   1.278
 1972TIP3    H127479   2.168   1.448   1.369
 1972TIP3    H227480   2.081   1.507   1.260
 1973TIP3   OH227481   1.818   0.414   0.505
 1973TIP3    H127482   1.767   0.495   0.519
 1973TIP3    H227483   1.907   0.445   0.487
 1974TIP3   OH227484   5.769   4.128   0.566
 1974TIP3    H127485   5.689   4.162   0.526
 1974TIP3    H227486   5.768   4.034   0.545
 1975TIP3   OH227487   0.621   6.588   1.354
 1975TIP3    H127488   0.674   6.553   1.282
 1975TIP3    H227489   0.542   6.621   1.312
 1976TIP3   OH227490   3.999   6.682   1.466
 1976TIP3    H127491   3.971   6.773   1.457
 1976TIP3    H227492   4.054   6.666   1.389
 1977TIP3   OH227493   5.013   2.355   7.099
 1977TIP3    H127494   5.105   2.341   7.075
 1977TIP3    H227495   4.971   2.271   7.085
 1978TIP3   OH227496   3.859   2.511   2.518
 1978TIP3    H127497   3.788   2.505   2.454
 1978TIP3    H227498   3.923   2.445   2.489
 1979TIP3   OH227499   0.565   0.280   0.310
 1979TIP3    H127500   0.603   0.353   0.261
 1979TIP3    H227501   0.487   0.255   0.260
 1980TIP3   OH227502   1.958   3.013   8.075
 1980TIP3    H127503   1.873   3.057   8.083
 1980TIP3    H227504   1.941   2.923   8.104
 1981TIP3   OH227505   0.208   0.413   1.181
 1981TIP3    H127506   0.223   0.507   1.196
 1981TIP3    H227507   0.289   0.371   1.209
 1982TIP3   OH227508   3.802   5.185   1.062
 1982TIP3    H127509   3.777   5.273   1.034
 1982TIP3    H227510   3.748   5.167   1.138
 1983TIP3   OH227511   4.624   2.952   0.035
 1983TIP3    H127512   4.700   3.008   0.053
 1983TIP3    H227513   4.655   2.864   0.055
 1984TIP3   OH227514   6.826   2.704   0.817
 1984TIP3    H127515   6.797   2.777   0.872
 1984TIP3    H227516   6.921   2.711   0.816
 1985TIP3   OH227517   4.356   5.693   0.035
 1985TIP3    H127518   4.264   5.669   0.049
 1985TIP3    H227519   4.393   5.694   0.123
 1986TIP3   OH227520   2.941   6.511   0.475
 1986TIP3    H127521   2.978   6.472   0.396
 1986TIP3    H227522   3.011   6.566   0.509
 1987TIP3   OH227523   3.897   6.082   8.286
 1987TIP3    H127524   3.834   6.059   8.218
 1987TIP3    H227525   3.981   6.085   8.241
 1988TIP3   OH227526   1.168   5.947   2.141
 1988TIP3    H127527   1.122   6.010   2.085
 1988TIP3    H227528   1.115   5.868   2.136
 1989TIP3   OH227529   1.715   1.407   6.762
 1989TIP3    H127530   1.719   1.493   6.722
 1989TIP3    H227531   1.668   1.352   6.699
 1990TIP3   OH227532   0.330   1.291   7.437
 1990TIP3    H127533   0.344   1.254   7.524
 1990TIP3    H227534   0.417   1.317   7.407
 1991TIP3   OH227535   3.844   6.395   7.340
 1991TIP3    H127536   3.811   6.309   7.366
 1991TIP3    H227537   3.857   6.389   7.246
 1992TIP3   OH227538   0.221   3.401   7.868
 1992TIP3    H127539   0.129   3.380   7.856
 1992TIP3    H227540   0.256   3.326   7.917
 1993TIP3   OH227541   2.111   6.688   6.771
 1993TIP3    H127542   2.049   6.647   6.710
 1993TIP3    H227543   2.061   6.700   6.851
 1994TIP3   OH227544   5.032   6.713   8.246
 1994TIP3    H127545   5.050   6.628   8.286
 1994TIP3    H227546   5.062   6.777   8.310
 1995TIP3   OH227547   3.046   4.325   8.018
 1995TIP3    H127548   3.014   4.242   8.055
 1995TIP3    H227549   2.988   4.391   8.056
 1996TIP3   OH227550   1.074   1.237   7.053
 1996TIP3    H127551   1.073   1.325   7.015
 1996TIP3    H227552   1.010   1.188   7.002
 1997TIP3   OH227553   5.483   2.128   7.604
 1997TIP3    H127554   5.413   2.140   7.669
 1997TIP3    H227555   5.449   2.061   7.544
 1998TIP3   OH227556   0.462   3.743   0.781
 1998TIP3    H127557   0.540   3.754   0.728
 1998TIP3    H227558   0.416   3.827   0.775
 1999TIP3   OH227559   1.917   5.120   6.099
 1999TIP3    H127560   2.006   5.129   6.132
 1999TIP3    H227561   1.894   5.208   6.068
 2000TIP3   OH227562   6.448   0.786   6.879
 2000TIP3    H127563   6.511   0.844   6.921
 2000TIP3    H227564   6.502   0.721   6.833
 2001TIP3   OH227565   0.589   5.752   0.638
 2001TIP3    H127566   0.561   5.843   0.634
 2001TIP3    H227567   0.666   5.748   0.582
 2002TIP3   OH227568   6.411   4.718   0.613
 2002TIP3    H127569   6.439   4.666   0.688
 2002TIP3    H227570   6.320   4.738   0.631
 2003TIP3   OH227571   2.505   5.086   5.850
 2003TIP3    H127572   2.473   5.151   5.912
 2003TIP3    H227573   2.509   5.004   5.900
 2004TIP3   OH227574   0.996   4.212   7.277
 2004TIP3    H127575   0.949   4.289   7.243
 2004TIP3    H227576   0.929   4.144   7.283
 2005TIP3   OH227577   2.336   0.457   6.009
 2005TIP3    H127578   2.248   0.495   6.005
 2005TIP3    H227579   2.333   0.399   6.085
 2006TIP3   OH227580   4.143   3.221   1.884
 2006TIP3    H127581   4.129   3.316   1.875
 2006TIP3    H227582   4.231   3.214   1.921
 2007TIP3   OH227583   1.171   6.580   0.348
 2007TIP3    H127584   1.173   6.653   0.410
 2007TIP3    H227585   1.263   6.554   0.340
 2008TIP3   OH227586   5.935   1.389   8.008
 2008TIP3    H127587   6.022   1.362   8.036
 2008TIP3    H227588   5.884   1.390   8.089
 2009TIP3   OH227589   1.519   1.022   1.572
 2009TIP3    H127590   1.577   1.031   1.648
 2009TIP3    H227591   1.437   1.061   1.600
 2010TIP3   OH227592   1.411   6.162   7.922
 2010TIP3    H127593   1.373   6.189   7.839
 2010TIP3    H227594   1.435   6.244   7.966
 2011TIP3   OH227595   6.174   1.327   0.734
 2011TIP3    H127596   6.228   1.249   0.724
 2011TIP3    H227597   6.206   1.370   0.813
 2012TIP3   OH227598   2.319   3.993   6.694
 2012TIP3    H127599   2.233   4.025   6.721
 2012TIP3    H227600   2.349   4.058   6.629
 2013TIP3   OH227601   2.601   2.535   1.331
 2013TIP3    H127602   2.517   2.510   1.370
 2013TIP3    H227603   2.578   2.579   1.250
 2014TIP3   OH227604   4.343   3.785   1.995
 2014TIP3    H127605   4.387   3.868   2.009
 2014TIP3    H227606   4.252   3.800   2.020
 2015TIP3   OH227607   2.316   5.091   0.364
 2015TIP3    H127608   2.374   5.108   0.438
 2015TIP3    H227609   2.231   5.072   0.404
 2016TIP3   OH227610   3.400   4.741   0.418
 2016TIP3    H127611   3.487   4.767   0.449
 2016TIP3    H227612   3.412   4.722   0.325
 2017TIP3   OH227613   6.251   2.997   0.192
 2017TIP3    H127614   6.283   2.928   0.133
 2017TIP3    H227615   6.322   3.061   0.194
 2018TIP3   OH227616   1.602   1.981   1.541
 2018TIP3    H127617   1.676   2.039   1.524
 2018TIP3    H227618   1.634   1.921   1.609
 2019TIP3   OH227619   4.027   5.226   1.621
 2019TIP3    H127620   4.100   5.166   1.605
 2019TIP3    H227621   3.971   5.179   1.683
 2020TIP3   OH227622   2.009   5.311   2.118
 2020TIP3    H127623   2.018   5.404   2.098
 2020TIP3    H227624   2.098   5.276   2.113
 2021TIP3   OH227625   0.458   5.452   7.066
 2021TIP3    H127626   0.400   5.425   7.137
 2021TIP3    H227627   0.494   5.371   7.032
 2022TIP3   OH227628   6.843   3.822   0.582
 2022TIP3    H127629   6.880   3.910   0.583
 2022TIP3    H227630   6.918   3.765   0.602
 2023TIP3   OH227631   0.479   6.774   6.911
 2023TIP3    H127632   0.534   6.695   6.913
 2023TIP3    H227633   0.459   6.787   6.818
 2024TIP3   OH227634   5.063   3.070   7.997
 2024TIP3    H127635   5.111   3.010   7.939
 2024TIP3    H227636   5.108   3.062   8.081
 2025TIP3   OH227637   5.875   0.619   1.415
 2025TIP3    H127638   5.917   0.705   1.419
 2025TIP3    H227639   5.888   0.590   1.324
 2026TIP3   OH227640   1.340   3.964   2.494
 2026TIP3    H127641   1.246   3.955   2.506
 2026TIP3    H227642   1.379   3.903   2.558
 2027TIP3   OH227643   1.742   6.887   5.977
 2027TIP3    H127644   1.727   6.938   6.056
 2027TIP3    H227645   1.763   6.952   5.910
 2028TIP3   OH227646   2.391   6.483   7.350
 2028TIP3    H127647   2.374   6.421   7.421
 2028TIP3    H227648   2.431   6.559   7.393
 2029TIP3   OH227649   2.212   1.660   8.273
 2029TIP3    H127650   2.210   1.742   8.322
 2029TIP3    H227651   2.145   1.606   8.314
 2030TIP3   OH227652   2.194   0.911   7.435
 2030TIP3    H127653   2.133   0.977   7.466
 2030TIP3    H227654   2.159   0.882   7.351
 2031TIP3   OH227655   3.551   0.693   6.864
 2031TIP3    H127656   3.523   0.731   6.947
 2031TIP3    H227657   3.513   0.751   6.797
 2032TIP3   OH227658   0.538   3.549   0.546
 2032TIP3    H127659   0.543   3.515   0.635
 2032TIP3    H227660   0.627   3.546   0.513
 2033TIP3   OH227661   0.455   6.312   8.363
 2033TIP3    H127662   0.537   6.360   8.361
 2033TIP3    H227663   0.476   6.230   8.409
 2034TIP3   OH227664   3.895   4.747   0.710
 2034TIP3    H127665   3.931   4.759   0.798
 2034TIP3    H227666   3.889   4.652   0.700
 2035TIP3   OH227667   1.380   3.260   6.177
 2035TIP3    H127668   1.335   3.179   6.202
 2035TIP3    H227669   1.336   3.287   6.096
 2036TIP3   OH227670   3.439   4.939   1.089
 2036TIP3    H127671   3.358   4.913   1.045
 2036TIP3    H227672   3.440   4.886   1.169
 2037TIP3   OH227673   1.835   1.004   7.396
 2037TIP3    H127674   1.770   0.935   7.391
 2037TIP3    H227675   1.905   0.976   7.337
 2038TIP3   OH227676   0.901   1.698   7.587
 2038TIP3    H127677   0.839   1.757   7.543
 2038TIP3    H227678   0.963   1.757   7.629
 2039TIP3   OH227679   2.813   6.219   6.360
 2039TIP3    H127680   2.864   6.203   6.280
 2039TIP3    H227681   2.876   6.258   6.420
 2040TIP3   OH227682   2.939   1.510   6.623
 2040TIP3    H127683   2.925   1.435   6.565
 2040TIP3    H227684   2.934   1.586   6.565
 2041TIP3   OH227685   0.187   1.380   0.510
 2041TIP3    H127686   0.120   1.318   0.536
 2041TIP3    H227687   0.169   1.458   0.563
 2042TIP3   OH227688   2.086   6.802   0.054
 2042TIP3    H127689   2.086   6.874  -0.009
 2042TIP3    H227690   2.150   6.740   0.019
 2043TIP3   OH227691   2.445   1.545   8.176
 2043TIP3    H127692   2.362   1.566   8.219
 2043TIP3    H227693   2.421   1.481   8.108
 2044TIP3   OH227694   3.139   2.326   0.167
 2044TIP3    H127695   3.181   2.249   0.203
 2044TIP3    H227696   3.181   2.400   0.212
 2045TIP3   OH227697   1.899   5.040   8.200
 2045TIP3    H127698   1.963   5.002   8.259
 2045TIP3    H227699   1.927   5.130   8.187
 2046TIP3   OH227700   1.591   2.613   6.813
 2046TIP3    H127701   1.576   2.550   6.883
 2046TIP3    H227702   1.547   2.693   6.842
 2047TIP3   OH227703   1.402   4.105   6.944
 2047TIP3    H127704   1.389   4.130   7.036
 2047TIP3    H227705   1.420   4.011   6.947
 2048TIP3   OH227706   5.822   2.088   7.818
 2048TIP3    H127707   5.834   2.150   7.889
 2048TIP3    H227708   5.740   2.043   7.838
 2049TIP3   OH227709   0.777   0.938   8.177
 2049TIP3    H127710   0.796   0.859   8.228
 2049TIP3    H227711   0.854   0.949   8.121
 2050TIP3   OH227712   2.980   0.068   7.772
 2050TIP3    H127713   2.933   0.150   7.781
 2050TIP3    H227714   3.049   0.072   7.838
 2051TIP3   OH227715   5.672   2.703   7.404
 2051TIP3    H127716   5.637   2.648   7.334
 2051TIP3    H227717   5.700   2.783   7.360
 2052TIP3   OH227718   0.092   4.007   8.329
 2052TIP3    H127719   0.149   4.056   8.269
 2052TIP3    H227720   0.069   4.070   8.397
 2053TIP3   OH227721   3.370   2.501   0.641
 2053TIP3    H127722   3.439   2.451   0.685
 2053TIP3    H227723   3.290   2.455   0.663
 2054TIP3   OH227724   2.928   5.300   8.068
 2054TIP3    H127725   2.921   5.373   8.007
 2054TIP3    H227726   2.971   5.231   8.018
 2055TIP3   OH227727   0.451   6.094   0.142
 2055TIP3    H127728   0.386   6.023   0.143
 2055TIP3    H227729   0.437   6.140   0.224
 2056TIP3   OH227730   3.163   5.457   0.259
 2056TIP3    H127731   3.081   5.443   0.211
 2056TIP3    H227732   3.220   5.386   0.231
 2057TIP3   OH227733   6.759   6.047   6.767
 2057TIP3    H127734   6.729   6.138   6.768
 2057TIP3    H227735   6.695   6.001   6.712
 2058TIP3   OH227736   3.668   4.644   8.233
 2058TIP3    H127737   3.638   4.686   8.152
 2058TIP3    H227738   3.624   4.693   8.302
 2059TIP3   OH227739   5.127   5.687   7.170
 2059TIP3    H127740   5.198   5.637   7.211
 2059TIP3    H227741   5.047   5.648   7.204
 2060TIP3   OH227742   1.092   4.131   1.542
 2060TIP3    H127743   1.095   4.178   1.626
 2060TIP3    H227744   1.081   4.039   1.568
 2061TIP3   OH227745   0.111   1.976   1.165
 2061TIP3    H127746   0.133   2.065   1.136
 2061TIP3    H227747   0.188   1.945   1.211
 2062TIP3   OH227748   5.205   2.422   6.896
 2062TIP3    H127749   5.165   2.504   6.866
 2062TIP3    H227750   5.299   2.439   6.896
 2063TIP3   OH227751   0.460   1.707   0.581
 2063TIP3    H127752   0.520   1.704   0.506
 2063TIP3    H227753   0.461   1.618   0.616
 2064TIP3   OH227754   0.864   5.845   0.055
 2064TIP3    H127755   0.807   5.772   0.081
 2064TIP3    H227756   0.804   5.917   0.036
 2065TIP3   OH227757   5.431   2.611   0.058
 2065TIP3    H127758   5.434   2.604  -0.037
 2065TIP3    H227759   5.433   2.705   0.075
 2066TIP3   OH227760   4.548   3.935   0.555
 2066TIP3    H127761   4.569   3.842   0.564
 2066TIP3    H227762   4.618   3.980   0.602
 2067TIP3   OH227763   5.765   1.256   6.892
 2067TIP3    H127764   5.752   1.349   6.910
 2067TIP3    H227765   5.677   1.219   6.891
 2068TIP3   OH227766   3.083   5.474   6.654
 2068TIP3    H127767   2.992   5.446   6.668
 2068TIP3    H227768   3.136   5.400   6.684
 2069TIP3   OH227769   0.073   4.227   7.158
 2069TIP3    H127770   0.157   4.258   7.190
 2069TIP3    H227771   0.084   4.132   7.147
 2070TIP3   OH227772   2.175   3.626   0.789
 2070TIP3    H127773   2.234   3.575   0.846
 2070TIP3    H227774   2.110   3.562   0.760
 2071TIP3   OH227775   6.400   0.799   2.070
 2071TIP3    H127776   6.457   0.875   2.059
 2071TIP3    H227777   6.311   0.835   2.068
 2072TIP3   OH227778   2.712   1.069   7.802
 2072TIP3    H127779   2.748   1.098   7.886
 2072TIP3    H227780   2.737   1.138   7.740
 2073TIP3   OH227781   5.375   1.383   1.659
 2073TIP3    H127782   5.405   1.384   1.750
 2073TIP3    H227783   5.318   1.460   1.652
 2074TIP3   OH227784   2.792   3.888   0.592
 2074TIP3    H127785   2.828   3.842   0.516
 2074TIP3    H227786   2.862   3.886   0.657
 2075TIP3   OH227787   0.480   5.318   7.899
 2075TIP3    H127788   0.567   5.345   7.869
 2075TIP3    H227789   0.477   5.344   7.991
 2076TIP3   OH227790   2.802   4.438   7.303
 2076TIP3    H127791   2.780   4.441   7.210
 2076TIP3    H227792   2.721   4.462   7.347
 2077TIP3   OH227793   0.604   2.967   1.271
 2077TIP3    H127794   0.546   2.986   1.345
 2077TIP3    H227795   0.583   2.877   1.247
 2078TIP3   OH227796   4.837   2.297   1.767
 2078TIP3    H127797   4.843   2.309   1.862
 2078TIP3    H227798   4.759   2.243   1.754
 2079TIP3   OH227799   4.076   4.284   8.217
 2079TIP3    H127800   4.155   4.230   8.211
 2079TIP3    H227801   4.080   4.342   8.140
 2080TIP3   OH227802   3.767   4.983   1.872
 2080TIP3    H127803   3.776   5.062   1.925
 2080TIP3    H227804   3.782   4.911   1.933
 2081TIP3   OH227805   2.955   1.334   1.556
 2081TIP3    H127806   2.916   1.248   1.568
 2081TIP3    H227807   3.042   1.317   1.520
 2082TIP3   OH227808   6.354   3.668   6.883
 2082TIP3    H127809   6.296   3.606   6.839
 2082TIP3    H227810   6.414   3.697   6.814
 2083TIP3   OH227811   0.540   4.145   7.867
 2083TIP3    H127812   0.600   4.212   7.900
 2083TIP3    H227813   0.576   4.122   7.781
 2084TIP3   OH227814   5.810   5.640   0.938
 2084TIP3    H127815   5.821   5.729   0.972
 2084TIP3    H227816   5.876   5.588   0.985
 2085TIP3   OH227817   5.463   2.538   0.824
 2085TIP3    H127818   5.425   2.531   0.911
 2085TIP3    H227819   5.509   2.622   0.825
 2086TIP3   OH227820   3.975   5.981   0.720
 2086TIP3    H127821   3.886   6.013   0.735
 2086TIP3    H227822   3.994   5.925   0.796
 2087TIP3   OH227823   3.111   1.027   5.799
 2087TIP3    H127824   3.170   1.048   5.726
 2087TIP3    H227825   3.169   1.010   5.873
 2088TIP3   OH227826   3.322   6.380   0.969
 2088TIP3    H127827   3.398   6.417   0.925
 2088TIP3    H227828   3.356   6.346   1.052
 2089TIP3   OH227829   1.789   1.439   7.872
 2089TIP3    H127830   1.712   1.385   7.853
 2089TIP3    H227831   1.862   1.393   7.829
 2090TIP3   OH227832   3.578   1.698   1.326
 2090TIP3    H127833   3.610   1.649   1.402
 2090TIP3    H227834   3.497   1.738   1.356
 2091TIP3   OH227835   5.954   3.978   7.787
 2091TIP3    H127836   5.920   4.067   7.797
 2091TIP3    H227837   5.899   3.924   7.844
 2092TIP3   OH227838   5.777   2.264   8.192
 2092TIP3    H127839   5.706   2.328   8.185
 2092TIP3    H227840   5.817   2.281   8.277
 2093TIP3   OH227841   0.315   0.901   0.113
 2093TIP3    H127842   0.350   0.988   0.132
 2093TIP3    H227843   0.310   0.898   0.017
 2094TIP3   OH227844   3.510   0.252   6.774
 2094TIP3    H127845   3.537   0.188   6.708
 2094TIP3    H227846   3.517   0.336   6.728
 2095TIP3   OH227847   5.231   3.551   6.788
 2095TIP3    H127848   5.209   3.495   6.862
 2095TIP3    H227849   5.275   3.492   6.726
 2096TIP3   OH227850   6.358   4.553   0.978
 2096TIP3    H127851   6.266   4.538   0.957
 2096TIP3    H227852   6.402   4.552   0.893
 2097TIP3   OH227853   5.840   5.856   1.561
 2097TIP3    H127854   5.802   5.826   1.644
 2097TIP3    H227855   5.775   5.831   1.495
 2098TIP3   OH227856   3.821   0.715   6.891
 2098TIP3    H127857   3.819   0.792   6.948
 2098TIP3    H227858   3.730   0.689   6.881
 2099TIP3   OH227859   5.899   3.120   1.309
 2099TIP3    H127860   5.926   3.062   1.380
 2099TIP3    H227861   5.805   3.109   1.303
 2100TIP3   OH227862   4.908   4.474   1.538
 2100TIP3    H127863   4.878   4.562   1.517
 2100TIP3    H227864   5.003   4.476   1.526
 2101TIP3   OH227865   0.144   3.559   6.240
 2101TIP3    H127866   0.063   3.536   6.195
 2101TIP3    H227867   0.119   3.565   6.332
 2102TIP3   OH227868   4.889   1.078   7.312
 2102TIP3    H127869   4.887   1.096   7.406
 2102TIP3    H227870   4.956   1.010   7.302
 2103TIP3   OH227871   3.013   2.458   1.220
 2103TIP3    H127872   2.977   2.478   1.134
 2103TIP3    H227873   2.959   2.507   1.281
 2104TIP3   OH227874   3.958   0.501   0.399
 2104TIP3    H127875   3.965   0.573   0.337
 2104TIP3    H227876   3.992   0.537   0.481
 2105TIP3   OH227877   4.484   3.974   6.493
 2105TIP3    H127878   4.432   3.898   6.520
 2105TIP3    H227879   4.559   3.936   6.447
 2106TIP3   OH227880   1.558   1.817   8.359
 2106TIP3    H127881   1.492   1.848   8.297
 2106TIP3    H227882   1.590   1.735   8.321
 2107TIP3   OH227883   6.307   0.974   8.388
 2107TIP3    H127884   6.272   1.035   8.322
 2107TIP3    H227885   6.356   0.909   8.336
 2108TIP3   OH227886   3.193   4.876   0.194
 2108TIP3    H127887   3.237   4.906   0.273
 2108TIP3    H227888   3.126   4.815   0.226
 2109TIP3   OH227889   3.509   5.167   0.423
 2109TIP3    H127890   3.572   5.190   0.355
 2109TIP3    H227891   3.556   5.107   0.481
 2110TIP3   OH227892   5.094   6.198   7.521
 2110TIP3    H127893   5.022   6.154   7.475
 2110TIP3    H227894   5.050   6.251   7.587
 2111TIP3   OH227895   2.152   6.764   6.416
 2111TIP3    H127896   2.164   6.673   6.388
 2111TIP3    H227897   2.067   6.790   6.381
 2112TIP3   OH227898   1.392   0.950   2.074
 2112TIP3    H127899   1.413   0.861   2.101
 2112TIP3    H227900   1.413   1.004   2.151
 2113TIP3   OH227901   5.172   1.582   1.795
 2113TIP3    H127902   5.089   1.560   1.838
 2113TIP3    H227903   5.237   1.582   1.864
 2114TIP3   OH227904   4.217   0.055   8.136
 2114TIP3    H127905   4.135   0.096   8.160
 2114TIP3    H227906   4.208  -0.036   8.165
 2115TIP3   OH227907   3.409   0.249   0.386
 2115TIP3    H127908   3.495   0.290   0.377
 2115TIP3    H227909   3.354   0.290   0.320
 2116TIP3   OH227910   4.051   3.895   6.538
 2116TIP3    H127911   4.007   3.935   6.463
 2116TIP3    H227912   4.139   3.874   6.505
 2117TIP3   OH227913   0.546   6.511   6.815
 2117TIP3    H127914   0.555   6.521   6.720
 2117TIP3    H227915   0.462   6.466   6.826
 2118TIP3   OH227916   4.148   5.959   1.609
 2118TIP3    H127917   4.214   5.917   1.554
 2118TIP3    H227918   4.072   5.901   1.604
 2119TIP3   OH227919   2.487   0.592   1.505
 2119TIP3    H127920   2.408   0.617   1.458
 2119TIP3    H227921   2.553   0.656   1.475
 2120TIP3   OH227922   3.642   3.653   0.370
 2120TIP3    H127923   3.638   3.643   0.275
 2120TIP3    H227924   3.722   3.703   0.385
 2121TIP3   OH227925   1.522   5.925   8.005
 2121TIP3    H127926   1.447   5.984   8.007
 2121TIP3    H227927   1.497   5.852   8.062
 2122TIP3   OH227928   2.718   4.785   1.723
 2122TIP3    H127929   2.803   4.824   1.702
 2122TIP3    H227930   2.685   4.838   1.797
 2123TIP3   OH227931   6.532   5.689   1.125
 2123TIP3    H127932   6.550   5.595   1.122
 2123TIP3    H227933   6.439   5.697   1.102
 2124TIP3   OH227934   0.086   5.899   7.022
 2124TIP3    H127935   0.015   5.961   7.043
 2124TIP3    H227936   0.082   5.890   6.926
 2125TIP3   OH227937   6.562   3.097   1.719
 2125TIP3    H127938   6.553   3.168   1.782
 2125TIP3    H227939   6.642   3.051   1.745
 2126TIP3   OH227940   1.702   2.195   6.789
 2126TIP3    H127941   1.693   2.259   6.719
 2126TIP3    H227942   1.677   2.243   6.868
 2127TIP3   OH227943   2.844   4.115   6.241
 2127TIP3    H127944   2.775   4.179   6.226
 2127TIP3    H227945   2.925   4.167   6.244
 2128TIP3   OH227946   2.122   4.993   0.806
 2128TIP3    H127947   2.184   4.922   0.791
 2128TIP3    H227948   2.041   4.948   0.830
 2129TIP3   OH227949   5.279   5.455   7.740
 2129TIP3    H127950   5.185   5.447   7.723
 2129TIP3    H227951   5.288   5.544   7.775
 2130TIP3   OH227952   3.326   4.569   7.226
 2130TIP3    H127953   3.279   4.588   7.145
 2130TIP3    H227954   3.328   4.653   7.273
 2131TIP3   OH227955   1.974   1.208   1.414
 2131TIP3    H127956   2.030   1.284   1.430
 2131TIP3    H227957   1.996   1.181   1.325
 2132TIP3   OH227958   0.941   0.259   7.723
 2132TIP3    H127959   0.869   0.314   7.693
 2132TIP3    H227960   1.010   0.272   7.657
 2133TIP3   OH227961   5.749   3.136   7.111
 2133TIP3    H127962   5.823   3.186   7.148
 2133TIP3    H227963   5.690   3.202   7.075
 2134TIP3   OH227964   2.634   1.335   7.595
 2134TIP3    H127965   2.610   1.398   7.527
 2134TIP3    H227966   2.689   1.270   7.551
 2135TIP3   OH227967   6.914   1.999   8.117
 2135TIP3    H127968   6.999   2.041   8.108
 2135TIP3    H227969   6.926   1.934   8.187
 2136TIP3   OH227970   1.751   2.630   1.363
 2136TIP3    H127971   1.777   2.627   1.271
 2136TIP3    H227972   1.737   2.539   1.387
 2137TIP3   OH227973   5.137   2.525   8.281
 2137TIP3    H127974   5.130   2.438   8.241
 2137TIP3    H227975   5.163   2.582   8.209
 2138TIP3   OH227976   5.548   1.463   1.232
 2138TIP3    H127977   5.628   1.461   1.285
 2138TIP3    H227978   5.562   1.534   1.170
 2139TIP3   OH227979   3.810   3.386   7.137
 2139TIP3    H127980   3.857   3.452   7.087
 2139TIP3    H227981   3.879   3.331   7.176
 2140TIP3   OH227982   1.526   1.584   7.152
 2140TIP3    H127983   1.566   1.504   7.119
 2140TIP3    H227984   1.507   1.565   7.244
 2141TIP3   OH227985   2.076   1.576   7.181
 2141TIP3    H127986   1.997   1.552   7.229
 2141TIP3    H227987   2.123   1.493   7.171
 2142TIP3   OH227988   4.189   3.204   6.698
 2142TIP3    H127989   4.266   3.150   6.715
 2142TIP3    H227990   4.131   3.188   6.772
 2143TIP3   OH227991   4.392   3.152   0.242
 2143TIP3    H127992   4.338   3.136   0.164
 2143TIP3    H227993   4.422   3.065   0.267
 2144TIP3   OH227994   1.234   5.209   1.554
 2144TIP3    H127995   1.199   5.122   1.574
 2144TIP3    H227996   1.316   5.191   1.507
 2145TIP3   OH227997   3.929   3.090   6.386
 2145TIP3    H127998   3.967   3.002   6.384
 2145TIP3    H227999   3.896   3.104   6.298
 2146TIP3   OH228000   3.719   1.333   8.148
 2146TIP3    H128001   3.642   1.288   8.114
 2146TIP3    H228002   3.745   1.282   8.225
 2147TIP3   OH228003   3.577   0.640   1.378
 2147TIP3    H128004   3.494   0.687   1.377
 2147TIP3    H228005   3.603   0.639   1.470
 2148TIP3   OH228006   1.311   2.314   5.849
 2148TIP3    H128007   1.237   2.373   5.862
 2148TIP3    H228008   1.386   2.360   5.886
 2149TIP3   OH228009   4.027   3.812   1.767
 2149TIP3    H128010   4.020   3.890   1.711
 2149TIP3    H228011   4.043   3.847   1.855
 2150TIP3   OH228012   3.890   1.796   7.608
 2150TIP3    H128013   3.986   1.796   7.601
 2150TIP3    H228014   3.864   1.879   7.569
 2151TIP3   OH228015   6.772   5.681   7.242
 2151TIP3    H128016   6.789   5.588   7.228
 2151TIP3    H228017   6.813   5.701   7.326
 2152TIP3   OH228018   6.452   3.424   5.974
 2152TIP3    H128019   6.437   3.345   5.923
 2152TIP3    H228020   6.545   3.421   5.997
 2153TIP3   OH228021   2.316   3.682   0.534
 2153TIP3    H128022   2.252   3.692   0.605
 2153TIP3    H228023   2.401   3.694   0.577
 2154TIP3   OH228024   4.243   4.671   0.824
 2154TIP3    H128025   4.242   4.742   0.888
 2154TIP3    H228026   4.201   4.707   0.747
 2155TIP3   OH228027   6.311   6.008   7.675
 2155TIP3    H128028   6.307   5.934   7.736
 2155TIP3    H228029   6.337   5.970   7.591
 2156TIP3   OH228030   4.622   5.220   8.224
 2156TIP3    H128031   4.589   5.136   8.257
 2156TIP3    H228032   4.657   5.264   8.302
 2157TIP3   OH228033   0.142   2.766   0.563
 2157TIP3    H128034   0.115   2.832   0.627
 2157TIP3    H228035   0.221   2.801   0.523
 2158TIP3   OH228036   3.817   0.988   7.583
 2158TIP3    H128037   3.835   1.054   7.650
 2158TIP3    H228038   3.783   0.913   7.632
 2159TIP3   OH228039   4.112   6.613   1.204
 2159TIP3    H128040   4.193   6.581   1.165
 2159TIP3    H228041   4.073   6.667   1.135
 2160TIP3   OH228042   1.249   1.975   7.283
 2160TIP3    H128043   1.298   1.957   7.363
 2160TIP3    H228044   1.316   1.978   7.214
 2161TIP3   OH228045   4.229   5.813   7.602
 2161TIP3    H128046   4.170   5.826   7.528
 2161TIP3    H228047   4.175   5.830   7.679
 2162TIP3   OH228048   4.256   5.518   6.968
 2162TIP3    H128049   4.246   5.590   6.906
 2162TIP3    H228050   4.180   5.526   7.026
 2163TIP3   OH228051   4.514   3.568   7.171
 2163TIP3    H128052   4.487   3.478   7.157
 2163TIP3    H228053   4.508   3.581   7.265
 2164TIP3   OH228054   2.984   0.024   0.987
 2164TIP3    H128055   2.908   0.067   0.950
 2164TIP3    H228056   3.057   0.053   0.932
 2165TIP3   OH228057   5.780   4.827   0.553
 2165TIP3    H128058   5.814   4.912   0.579
 2165TIP3    H228059   5.821   4.765   0.614
 2166TIP3   OH228060   6.850   0.978   8.263
 2166TIP3    H128061   6.864   0.884   8.278
 2166TIP3    H228062   6.783   1.002   8.327
 2167TIP3   OH228063   5.839   3.641   7.360
 2167TIP3    H128064   5.896   3.682   7.425
 2167TIP3    H228065   5.889   3.565   7.330
 2168TIP3   OH228066   3.151   2.923   7.142
 2168TIP3    H128067   3.057   2.936   7.126
 2168TIP3    H228068   3.185   3.012   7.155
 2169TIP3   OH228069   1.328   2.967   2.019
 2169TIP3    H128070   1.260   2.925   2.072
 2169TIP3    H228071   1.321   3.060   2.041
 2170TIP3   OH228072   4.819   3.788   7.472
 2170TIP3    H128073   4.770   3.765   7.551
 2170TIP3    H228074   4.752   3.824   7.412
 2171TIP3   OH228075   4.557   2.129   8.259
 2171TIP3    H128076   4.549   2.065   8.330
 2171TIP3    H228077   4.481   2.112   8.203
 2172TIP3   OH228078   5.823   5.521   1.750
 2172TIP3    H128079   5.906   5.554   1.781
 2172TIP3    H228080   5.785   5.475   1.825
 2173TIP3   OH228081   1.053   0.899   1.016
 2173TIP3    H128082   1.016   0.813   1.038
 2173TIP3    H228083   1.054   0.947   1.098
 2174TIP3   OH228084   1.434   3.761   7.974
 2174TIP3    H128085   1.408   3.707   8.049
 2174TIP3    H228086   1.479   3.835   8.014
 2175TIP3   OH228087   1.562   6.066   6.779
 2175TIP3    H128088   1.556   6.153   6.820
 2175TIP3    H228089   1.546   6.082   6.686
 2176TIP3   OH228090   6.612   3.696   0.602
 2176TIP3    H128091   6.691   3.751   0.599
 2176TIP3    H228092   6.543   3.752   0.566
 2177TIP3   OH228093   2.664   0.539   7.276
 2177TIP3    H128094   2.718   0.585   7.211
 2177TIP3    H228095   2.600   0.491   7.224
 2178TIP3   OH228096   1.110   6.989   0.247
 2178TIP3    H128097   1.083   7.056   0.184
 2178TIP3    H228098   1.201   6.970   0.225
 2179TIP3   OH228099   4.677   0.973   1.313
 2179TIP3    H128100   4.619   0.923   1.255
 2179TIP3    H228101   4.763   0.932   1.302
 2180TIP3   OH228102   4.615   0.323   1.874
 2180TIP3    H128103   4.690   0.278   1.834
 2180TIP3    H228104   4.548   0.255   1.883
 2181TIP3   OH228105   3.295   6.813   0.386
 2181TIP3    H128106   3.366   6.875   0.368
 2181TIP3    H228107   3.229   6.833   0.319
 2182TIP3   OH228108   0.195   5.291   8.118
 2182TIP3    H128109   0.266   5.239   8.081
 2182TIP3    H228110   0.178   5.252   8.204
 2183TIP3   OH228111   3.667   4.939   6.157
 2183TIP3    H128112   3.762   4.950   6.154
 2183TIP3    H228113   3.631   5.015   6.112
 2184TIP3   OH228114   2.616   6.517   0.300
 2184TIP3    H128115   2.538   6.524   0.244
 2184TIP3    H228116   2.687   6.553   0.246
 2185TIP3   OH228117   2.036   2.343   2.309
 2185TIP3    H128118   1.959   2.292   2.333
 2185TIP3    H228119   2.104   2.278   2.291
 2186TIP3   OH228120   3.969   3.248   0.412
 2186TIP3    H128121   3.942   3.159   0.388
 2186TIP3    H228122   4.065   3.243   0.415
 2187TIP3   OH228123   2.546   2.650   6.952
 2187TIP3    H128124   2.633   2.674   6.983
 2187TIP3    H228125   2.491   2.726   6.970
 2188TIP3   OH228126   5.988   4.594   0.205
 2188TIP3    H128127   5.893   4.604   0.207
 2188TIP3    H228128   6.004   4.534   0.132
 2189TIP3   OH228129   6.224   2.589   6.112
 2189TIP3    H128130   6.135   2.555   6.103
 2189TIP3    H228131   6.255   2.598   6.022
 2190TIP3   OH228132   3.724   1.295   2.412
 2190TIP3    H128133   3.781   1.321   2.340
 2190TIP3    H228134   3.765   1.217   2.449
 2191TIP3   OH228135   1.754   6.476   0.544
 2191TIP3    H128136   1.687   6.492   0.609
 2191TIP3    H228137   1.778   6.563   0.512
 2192TIP3   OH228138   4.054   4.649   8.165
 2192TIP3    H128139   4.131   4.599   8.189
 2192TIP3    H228140   4.085   4.739   8.154
 2193TIP3   OH228141   2.630   4.520   1.771
 2193TIP3    H128142   2.541   4.519   1.808
 2193TIP3    H228143   2.640   4.608   1.736
 2194TIP3   OH228144   6.606   1.323   1.711
 2194TIP3    H128145   6.674   1.283   1.766
 2194TIP3    H228146   6.562   1.384   1.770
 2195TIP3   OH228147   3.686   1.816   7.933
 2195TIP3    H128148   3.778   1.791   7.946
 2195TIP3    H228149   3.681   1.905   7.967
 2196TIP3   OH228150   0.863   5.931   1.152
 2196TIP3    H128151   0.889   5.840   1.162
 2196TIP3    H228152   0.883   5.971   1.236
 2197TIP3   OH228153   6.008   5.105   7.795
 2197TIP3    H128154   6.061   5.162   7.739
 2197TIP3    H228155   5.969   5.163   7.860
 2198TIP3   OH228156   4.471   4.688   1.871
 2198TIP3    H128157   4.550   4.635   1.866
 2198TIP3    H228158   4.502   4.778   1.862
 2199TIP3   OH228159   2.444   5.384   6.510
 2199TIP3    H128160   2.368   5.347   6.466
 2199TIP3    H228161   2.408   5.431   6.585
 2200TIP3   OH228162   1.364   6.206   1.306
 2200TIP3    H128163   1.330   6.289   1.273
 2200TIP3    H228164   1.289   6.165   1.349
 2201TIP3   OH228165   2.781   2.441   7.070
 2201TIP3    H128166   2.686   2.442   7.076
 2201TIP3    H228167   2.800   2.384   6.995
 2202TIP3   OH228168   3.634   2.937   1.027
 2202TIP3    H128169   3.609   2.935   0.934
 2202TIP3    H228170   3.730   2.937   1.026
 2203TIP3   OH228171   1.899   5.415   0.640
 2203TIP3    H128172   1.807   5.391   0.637
 2203TIP3    H228173   1.900   5.510   0.655
 2204TIP3   OH228174   5.125   2.681   1.747
 2204TIP3    H128175   5.131   2.618   1.675
 2204TIP3    H228176   5.167   2.637   1.821
 2205TIP3   OH228177   4.851   0.718   0.177
 2205TIP3    H128178   4.822   0.804   0.206
 2205TIP3    H228179   4.807   0.705   0.093
 2206TIP3   OH228180   3.122   4.537   1.731
 2206TIP3    H128181   3.084   4.621   1.707
 2206TIP3    H228182   3.063   4.503   1.799
 2207TIP3   OH228183   2.667   5.328   1.872
 2207TIP3    H128184   2.581   5.288   1.859
 2207TIP3    H228185   2.706   5.330   1.784
 2208TIP3   OH228186   2.304   0.049   1.301
 2208TIP3    H128187   2.298  -0.008   1.224
 2208TIP3    H228188   2.356  -0.001   1.364
 2209TIP3   OH228189   1.303   3.035   7.655
 2209TIP3    H128190   1.370   2.967   7.643
 2209TIP3    H228191   1.351   3.117   7.645
 2210TIP3   OH228192   4.390   3.172   1.999
 2210TIP3    H128193   4.429   3.111   2.061
 2210TIP3    H228194   4.383   3.254   2.048
 2211TIP3   OH228195   0.795   0.596   1.702
 2211TIP3    H128196   0.835   0.636   1.779
 2211TIP3    H228197   0.729   0.659   1.673
 2212TIP3   OH228198   0.512   4.012   7.324
 2212TIP3    H128199   0.518   3.954   7.248
 2212TIP3    H228200   0.549   4.095   7.294
 2213TIP3   OH228201   6.878   4.085   0.379
 2213TIP3    H128202   6.820   4.158   0.357
 2213TIP3    H228203   6.960   4.126   0.407
 2214TIP3   OH228204   6.874   6.824   7.655
 2214TIP3    H128205   6.790   6.778   7.664
 2214TIP3    H228206   6.860   6.907   7.701
 2215TIP3   OH228207   2.692   6.607   8.163
 2215TIP3    H128208   2.733   6.554   8.094
 2215TIP3    H228209   2.600   6.611   8.138
 2216TIP3   OH228210   0.742   3.372   1.264
 2216TIP3    H128211   0.744   3.419   1.348
 2216TIP3    H228212   0.649   3.358   1.246
 2217TIP3   OH228213   4.496   5.666   0.283
 2217TIP3    H128214   4.564   5.627   0.229
 2217TIP3    H228215   4.516   5.760   0.282
 2218TIP3   OH228216   5.039   5.985   6.865
 2218TIP3    H128217   5.093   5.971   6.787
 2218TIP3    H228218   5.097   5.966   6.938
 2219TIP3   OH228219   2.550   6.274   0.424
 2219TIP3    H128220   2.561   6.360   0.383
 2219TIP3    H228221   2.581   6.286   0.514
 2220TIP3   OH228222   6.748   4.393   0.312
 2220TIP3    H128223   6.795   4.461   0.361
 2220TIP3    H228224   6.769   4.411   0.221
 2221TIP3   OH228225   5.558   6.970   0.017
 2221TIP3    H128226   5.583   6.955   0.108
 2221TIP3    H228227   5.621   6.918  -0.034
 2222TIP3   OH228228   5.120   0.124   6.662
 2222TIP3    H128229   5.044   0.094   6.611
 2222TIP3    H228230   5.190   0.133   6.597
 2223TIP3   OH228231   2.336   2.470   6.742
 2223TIP3    H128232   2.414   2.427   6.707
 2223TIP3    H228233   2.291   2.505   6.665
 2224TIP3   OH228234   5.277   0.338   1.031
 2224TIP3    H128235   5.207   0.296   0.981
 2224TIP3    H228236   5.281   0.427   0.996
 2225TIP3   OH228237   5.787   5.364   1.524
 2225TIP3    H128238   5.801   5.417   1.603
 2225TIP3    H228239   5.814   5.276   1.550
 2226TIP3   OH228240   4.062   3.758   1.347
 2226TIP3    H128241   4.114   3.736   1.270
 2226TIP3    H228242   4.116   3.728   1.421
 2227TIP3   OH228243   0.208   5.319   6.316
 2227TIP3    H128244   0.214   5.236   6.269
 2227TIP3    H228245   0.299   5.345   6.330
 2228TIP3   OH228246   3.870   5.976   7.585
 2228TIP3    H128247   3.825   5.917   7.645
 2228TIP3    H228248   3.889   6.054   7.638
 2229TIP3   OH228249   2.140   5.859   0.466
 2229TIP3    H128250   2.201   5.847   0.538
 2229TIP3    H228251   2.152   5.949   0.438
 2230TIP3   OH228252   3.636   4.509   1.408
 2230TIP3    H128253   3.611   4.558   1.487
 2230TIP3    H228254   3.728   4.532   1.394
 2231TIP3   OH228255   6.161   4.793   0.658
 2231TIP3    H128256   6.083   4.740   0.677
 2231TIP3    H228257   6.145   4.827   0.570
 2232TIP3   OH228258   6.672   0.418   2.328
 2232TIP3    H128259   6.707   0.329   2.327
 2232TIP3    H228260   6.580   0.407   2.354
 2233TIP3   OH228261   3.664   2.745   1.213
 2233TIP3    H128262   3.622   2.824   1.179
 2233TIP3    H228263   3.604   2.674   1.193
 2234TIP3   OH228264   0.992   3.181   8.042
 2234TIP3    H128265   1.081   3.159   8.014
 2234TIP3    H228266   0.995   3.274   8.064
 2235TIP3   OH228267   6.759   2.819   0.546
 2235TIP3    H128268   6.732   2.728   0.530
 2235TIP3    H228269   6.779   2.822   0.639
 2236TIP3   OH228270   0.405   2.018   8.021
 2236TIP3    H128271   0.466   1.990   8.089
 2236TIP3    H228272   0.414   1.953   7.952
 2237TIP3   OH228273   4.989   2.344   6.526
 2237TIP3    H128274   4.930   2.357   6.452
 2237TIP3    H228275   5.075   2.331   6.486
 2238TIP3   OH228276   3.718   2.963   7.566
 2238TIP3    H128277   3.688   3.039   7.515
 2238TIP3    H228278   3.771   3.001   7.636
 2239TIP3   OH228279   3.207   2.561   6.587
 2239TIP3    H128280   3.167   2.480   6.555
 2239TIP3    H228281   3.271   2.585   6.520
 2240TIP3   OH228282   0.251   6.780   2.368
 2240TIP3    H128283   0.219   6.863   2.333
 2240TIP3    H228284   0.175   6.741   2.411
 2241TIP3   OH228285   3.009   3.503   6.819
 2241TIP3    H128286   3.088   3.510   6.766
 2241TIP3    H228287   2.950   3.569   6.784
 2242TIP3   OH228288   2.661   3.045   6.544
 2242TIP3    H128289   2.722   3.103   6.590
 2242TIP3    H228290   2.597   3.103   6.505
 2243TIP3   OH228291   0.666   1.774   7.743
 2243TIP3    H128292   0.619   1.800   7.664
 2243TIP3    H228293   0.733   1.712   7.711
 2244TIP3   OH228294   2.446   3.367   7.033
 2244TIP3    H128295   2.442   3.449   6.982
 2244TIP3    H228296   2.442   3.396   7.124
 2245TIP3   OH228297   6.776   2.426   1.387
 2245TIP3    H128298   6.847   2.477   1.425
 2245TIP3    H228299   6.719   2.491   1.346
 2246TIP3   OH228300   3.797   6.840   7.935
 2246TIP3    H128301   3.798   6.929   7.971
 2246TIP3    H228302   3.704   6.818   7.928
 2247TIP3   OH228303   4.836   1.538   8.084
 2247TIP3    H128304   4.823   1.594   8.160
 2247TIP3    H228305   4.833   1.597   8.009
 2248TIP3   OH228306   2.471   6.682   7.641
 2248TIP3    H128307   2.533   6.611   7.657
 2248TIP3    H228308   2.524   6.753   7.604
 2249TIP3   OH228309   6.292   0.882   8.045
 2249TIP3    H128310   6.210   0.923   8.072
 2249TIP3    H228311   6.320   0.931   7.968
 2250TIP3   OH228312   3.413   3.613   1.378
 2250TIP3    H128313   3.414   3.603   1.473
 2250TIP3    H228314   3.475   3.683   1.360
 2251TIP3   OH228315   0.712   3.949   0.926
 2251TIP3    H128316   0.637   3.998   0.959
 2251TIP3    H228317   0.684   3.917   0.840
 2252TIP3   OH228318   3.084   0.581   7.277
 2252TIP3    H128319   3.148   0.611   7.340
 2252TIP3    H228320   3.084   0.648   7.209
 2253TIP3   OH228321   3.913   2.298   0.174
 2253TIP3    H128322   3.867   2.336   0.249
 2253TIP3    H228323   3.843   2.273   0.113
 2254TIP3   OH228324   6.577   2.622   2.674
 2254TIP3    H128325   6.618   2.625   2.760
 2254TIP3    H228326   6.647   2.592   2.616
 2255TIP3   OH228327   4.402   4.825   8.290
 2255TIP3    H128328   4.379   4.917   8.297
 2255TIP3    H228329   4.371   4.786   8.371
 2256TIP3   OH228330   6.811   3.314   0.386
 2256TIP3    H128331   6.775   3.260   0.457
 2256TIP3    H228332   6.793   3.404   0.412
 2257TIP3   OH228333   0.929   3.250   0.378
 2257TIP3    H128334   0.920   3.201   0.459
 2257TIP3    H228335   1.012   3.221   0.341
 2258TIP3   OH228336   2.287   5.712   7.059
 2258TIP3    H128337   2.198   5.745   7.070
 2258TIP3    H228338   2.342   5.790   7.056
 2259TIP3   OH228339   1.572   5.359   7.569
 2259TIP3    H128340   1.541   5.397   7.651
 2259TIP3    H228341   1.492   5.340   7.520
 2260TIP3   OH228342   2.472   3.639   8.243
 2260TIP3    H128343   2.478   3.731   8.218
 2260TIP3    H228344   2.413   3.638   8.318
 2261TIP3   OH228345   1.243   1.727   7.972
 2261TIP3    H128346   1.220   1.661   7.907
 2261TIP3    H228347   1.226   1.685   8.056
 2262TIP3   OH228348   0.573   6.329   1.152
 2262TIP3    H128349   0.546   6.264   1.088
 2262TIP3    H228350   0.590   6.279   1.232
 2263TIP3   OH228351   0.189   4.683   7.712
 2263TIP3    H128352   0.223   4.596   7.734
 2263TIP3    H228353   0.237   4.742   7.770
 2264TIP3   OH228354   6.983   3.748   6.463
 2264TIP3    H128355   7.034   3.812   6.512
 2264TIP3    H228356   7.026   3.664   6.481
 2265TIP3   OH228357   6.052   3.510   7.990
 2265TIP3    H128358   6.106   3.433   7.974
 2265TIP3    H228359   6.034   3.546   7.903
 2266TIP3   OH228360   3.014   4.240   1.858
 2266TIP3    H128361   3.106   4.213   1.864
 2266TIP3    H228362   2.990   4.262   1.948
 2267TIP3   OH228363   4.937   2.057   7.264
 2267TIP3    H128364   5.029   2.083   7.263
 2267TIP3    H228365   4.902   2.089   7.181
 2268TIP3   OH228366   0.629   3.429   0.755
 2268TIP3    H128367   0.647   3.337   0.771
 2268TIP3    H228368   0.667   3.475   0.830
 2269TIP3   OH228369   6.864   5.677   8.186
 2269TIP3    H128370   6.797   5.625   8.229
 2269TIP3    H228371   6.863   5.761   8.233
 2270TIP3   OH228372   6.820   0.554   7.780
 2270TIP3    H128373   6.832   0.574   7.873
 2270TIP3    H228374   6.767   0.475   7.779
 2271TIP3   OH228375   2.413   4.282   0.733
 2271TIP3    H128376   2.450   4.201   0.769
 2271TIP3    H228377   2.471   4.351   0.763
 2272TIP3   OH228378   4.274   0.370   2.088
 2272TIP3    H128379   4.340   0.438   2.096
 2272TIP3    H228380   4.191   0.416   2.094
 2273TIP3   OH228381   4.807   1.227   0.954
 2273TIP3    H128382   4.762   1.185   0.880
 2273TIP3    H228383   4.809   1.320   0.930
 2274TIP3   OH228384   2.356   5.911   8.294
 2274TIP3    H128385   2.346   5.958   8.377
 2274TIP3    H228386   2.450   5.914   8.276
 2275TIP3   OH228387   5.489   4.309   7.393
 2275TIP3    H128388   5.518   4.358   7.316
 2275TIP3    H228389   5.424   4.248   7.359
 2276TIP3   OH228390   4.857   4.494   7.873
 2276TIP3    H128391   4.884   4.444   7.951
 2276TIP3    H228392   4.831   4.579   7.908
 2277TIP3   OH228393   2.092   4.745   8.207
 2277TIP3    H128394   2.022   4.680   8.210
 2277TIP3    H228395   2.116   4.751   8.115
 2278TIP3   OH228396   4.796   3.737   2.087
 2278TIP3    H128397   4.810   3.759   2.179
 2278TIP3    H228398   4.883   3.739   2.047
 2279TIP3   OH228399   1.651   2.563   8.269
 2279TIP3    H128400   1.582   2.615   8.228
 2279TIP3    H228401   1.706   2.534   8.197
 2280TIP3   OH228402   4.328   6.281   1.061
 2280TIP3    H128403   4.407   6.258   1.110
 2280TIP3    H228404   4.338   6.375   1.042
 2281TIP3   OH228405   3.976   2.758   2.538
 2281TIP3    H128406   3.924   2.823   2.491
 2281TIP3    H228407   3.915   2.687   2.558
 2282TIP3   OH228408   2.669   2.360   1.682
 2282TIP3    H128409   2.695   2.446   1.715
 2282TIP3    H228410   2.579   2.373   1.652
 2283TIP3   OH228411   2.907   3.307   1.475
 2283TIP3    H128412   2.894   3.367   1.548
 2283TIP3    H228413   2.902   3.220   1.513
 2284TIP3   OH228414   1.823   4.186   0.440
 2284TIP3    H128415   1.913   4.177   0.471
 2284TIP3    H228416   1.773   4.210   0.517
 2285TIP3   OH228417   0.624   6.179   7.463
 2285TIP3    H128418   0.612   6.144   7.552
 2285TIP3    H228419   0.596   6.271   7.470
 2286TIP3   OH228420   3.458   3.296   6.432
 2286TIP3    H128421   3.536   3.340   6.398
 2286TIP3    H228422   3.439   3.228   6.368
 2287TIP3   OH228423   5.162   5.109   0.901
 2287TIP3    H128424   5.130   5.045   0.964
 2287TIP3    H228425   5.249   5.077   0.877
 2288TIP3   OH228426   5.417   6.552   0.416
 2288TIP3    H128427   5.448   6.625   0.470
 2288TIP3    H228428   5.497   6.505   0.392
 2289TIP3   OH228429   0.744   2.872   0.117
 2289TIP3    H128430   0.660   2.833   0.091
 2289TIP3    H228431   0.721   2.961   0.142
 2290TIP3   OH228432   2.337   0.384   0.448
 2290TIP3    H128433   2.279   0.454   0.418
 2290TIP3    H228434   2.418   0.397   0.399
 2291TIP3   OH228435   6.724   0.205   1.793
 2291TIP3    H128436   6.733   0.300   1.783
 2291TIP3    H228437   6.814   0.173   1.795
 2292TIP3   OH228438   2.688   0.390   7.609
 2292TIP3    H128439   2.731   0.381   7.694
 2292TIP3    H228440   2.759   0.381   7.546
 2293TIP3   OH228441   5.432   3.317   7.769
 2293TIP3    H128442   5.463   3.339   7.857
 2293TIP3    H228443   5.380   3.392   7.742
 2294TIP3   OH228444   6.297   1.705   0.773
 2294TIP3    H128445   6.208   1.734   0.752
 2294TIP3    H228446   6.296   1.691   0.868
 2295TIP3   OH228447   0.364   3.185   6.889
 2295TIP3    H128448   0.453   3.186   6.854
 2295TIP3    H228449   0.350   3.275   6.917
 2296TIP3   OH228450   0.106   3.058   6.548
 2296TIP3    H128451   0.051   3.101   6.482
 2296TIP3    H228452   0.103   2.965   6.524
 2297TIP3   OH228453   4.945   0.762   7.316
 2297TIP3    H128454   4.963   0.815   7.393
 2297TIP3    H228455   5.029   0.723   7.292
 2298TIP3   OH228456   6.789   5.515   7.888
 2298TIP3    H128457   6.734   5.440   7.868
 2298TIP3    H228458   6.728   5.585   7.910
 2299TIP3   OH228459   2.423   6.006   0.733
 2299TIP3    H128460   2.367   5.929   0.726
 2299TIP3    H228461   2.421   6.029   0.826
 2300TIP3   OH228462   0.573   4.970   0.418
 2300TIP3    H128463   0.535   5.057   0.405
 2300TIP3    H228464   0.497   4.913   0.434
 2301TIP3   OH228465   6.143   3.922   6.985
 2301TIP3    H128466   6.061   3.873   6.984
 2301TIP3    H228467   6.125   4.000   6.932
 2302TIP3   OH228468   5.945   4.665   0.762
 2302TIP3    H128469   5.895   4.731   0.809
 2302TIP3    H228470   5.881   4.599   0.736
 2303TIP3   OH228471   6.284   2.369   0.872
 2303TIP3    H128472   6.194   2.383   0.842
 2303TIP3    H228473   6.299   2.275   0.859
 2304TIP3   OH228474   2.507   2.952   7.687
 2304TIP3    H128475   2.508   2.983   7.778
 2304TIP3    H228476   2.441   3.007   7.645
 2305TIP3   OH228477   6.652   3.589   0.860
 2305TIP3    H128478   6.579   3.625   0.911
 2305TIP3    H228479   6.655   3.642   0.781
 2306TIP3   OH228480   6.444   3.085   1.468
 2306TIP3    H128481   6.496   3.107   1.545
 2306TIP3    H228482   6.507   3.053   1.404
 2307TIP3   OH228483   4.752   3.496   8.163
 2307TIP3    H128484   4.842   3.471   8.143
 2307TIP3    H228485   4.743   3.480   8.257
 2308TIP3   OH228486   6.004   4.041   1.498
 2308TIP3    H128487   5.923   4.093   1.503
 2308TIP3    H228488   6.068   4.092   1.547
 2309TIP3   OH228489   6.862   6.392   6.459
 2309TIP3    H128490   6.950   6.379   6.493
 2309TIP3    H228491   6.834   6.305   6.431
 2310TIP3   OH228492   3.153   3.824   7.004
 2310TIP3    H128493   3.173   3.890   7.070
 2310TIP3    H228494   3.221   3.836   6.937
 2311TIP3   OH228495   1.135   6.686   0.039
 2311TIP3    H128496   1.055   6.736   0.058
 2311TIP3    H228497   1.167   6.660   0.126
 2312TIP3   OH228498   3.842   4.968   0.238
 2312TIP3    H128499   3.908   4.952   0.171
 2312TIP3    H228500   3.868   4.911   0.311
 2313TIP3   OH228501   3.152   3.690   1.951
 2313TIP3    H128502   3.203   3.770   1.965
 2313TIP3    H228503   3.216   3.626   1.920
 2314TIP3   OH228504   2.044   2.205   6.003
 2314TIP3    H128505   1.971   2.176   5.947
 2314TIP3    H228506   2.073   2.287   5.964
 2315TIP3   OH228507   0.767   6.673   0.495
 2315TIP3    H128508   0.812   6.756   0.475
 2315TIP3    H228509   0.775   6.664   0.590
 2316TIP3   OH228510   1.506   5.991   1.851
 2316TIP3    H128511   1.569   5.928   1.814
 2316TIP3    H228512   1.443   5.936   1.898
 2317TIP3   OH228513   5.856   0.009   0.869
 2317TIP3    H128514   5.882  -0.049   0.941
 2317TIP3    H228515   5.869   0.097   0.904
 2318TIP3   OH228516   4.322   2.057   1.466
 2318TIP3    H128517   4.407   2.074   1.425
 2318TIP3    H228518   4.327   2.101   1.551
 2319TIP3   OH228519   4.721   2.314   1.440
 2319TIP3    H128520   4.658   2.372   1.481
 2319TIP3    H228521   4.673   2.233   1.423
 2320TIP3   OH228522   1.821   5.216   6.416
 2320TIP3    H128523   1.913   5.206   6.440
 2320TIP3    H228524   1.775   5.152   6.470
 2321TIP3   OH228525   1.124   1.352   0.265
 2321TIP3    H128526   1.197   1.403   0.229
 2321TIP3    H228527   1.110   1.390   0.352
 2322TIP3   OH228528   0.257   5.017   0.677
 2322TIP3    H128529   0.170   5.055   0.681
 2322TIP3    H228530   0.302   5.050   0.755
 2323TIP3   OH228531   5.838   4.688   2.383
 2323TIP3    H128532   5.821   4.666   2.292
 2323TIP3    H228533   5.762   4.656   2.431
 2324TIP3   OH228534   0.054   0.013   0.700
 2324TIP3    H128535  -0.025   0.034   0.751
 2324TIP3    H228536   0.030  -0.066   0.651
 2325TIP3   OH228537   2.097   6.934   7.297
 2325TIP3    H128538   2.080   6.898   7.384
 2325TIP3    H228539   2.070   7.026   7.303
 2326TIP3   OH228540   5.052   6.063   8.105
 2326TIP3    H128541   5.110   6.040   8.032
 2326TIP3    H228542   5.108   6.105   8.169
 2327TIP3   OH228543   0.424   1.301   7.718
 2327TIP3    H128544   0.514   1.328   7.736
 2327TIP3    H228545   0.389   1.276   7.804
 2328TIP3   OH228546   2.161   3.129   1.287
 2328TIP3    H128547   2.224   3.169   1.347
 2328TIP3    H228548   2.171   3.179   1.206
 2329TIP3   OH228549   1.655   5.370   6.983
 2329TIP3    H128550   1.600   5.400   6.910
 2329TIP3    H228551   1.723   5.437   6.990
 2330TIP3   OH228552   2.660   0.030   2.169
 2330TIP3    H128553   2.580  -0.023   2.164
 2330TIP3    H228554   2.703   0.015   2.085
 2331TIP3   OH228555   2.892   5.341   7.607
 2331TIP3    H128556   2.933   5.257   7.585
 2331TIP3    H228557   2.799   5.320   7.619
 2332TIP3   OH228558   2.107   0.137   8.392
 2332TIP3    H128559   2.092   0.075   8.320
 2332TIP3    H228560   2.195   0.117   8.423
 2333TIP3   OH228561   0.061   2.748   8.167
 2333TIP3    H128562   0.062   2.834   8.125
 2333TIP3    H228563  -0.006   2.755   8.235
 2334TIP3   OH228564   2.834   6.448   7.949
 2334TIP3    H128565   2.854   6.362   7.911
 2334TIP3    H228566   2.918   6.493   7.952
 2335TIP3   OH228567   0.853   5.868   0.871
 2335TIP3    H128568   0.942   5.889   0.843
 2335TIP3    H228569   0.844   5.910   0.957
 2336TIP3   OH228570   6.344   4.521   0.447
 2336TIP3    H128571   6.398   4.582   0.496
 2336TIP3    H228572   6.254   4.540   0.474
 2337TIP3   OH228573   1.750   1.959   8.130
 2337TIP3    H128574   1.660   1.939   8.103
 2337TIP3    H228575   1.781   1.878   8.170
 2338TIP3   OH228576   1.228   0.742   5.912
 2338TIP3    H128577   1.172   0.665   5.899
 2338TIP3    H228578   1.175   0.802   5.965
 2339TIP3   OH228579   2.997   1.421   7.679
 2339TIP3    H128580   2.952   1.387   7.756
 2339TIP3    H228581   3.026   1.343   7.631
 2340TIP3   OH228582   5.872   0.402   1.572
 2340TIP3    H128583   5.830   0.486   1.552
 2340TIP3    H228584   5.947   0.425   1.627
 2341TIP3   OH228585   2.026   0.803   1.624
 2341TIP3    H128586   1.962   0.875   1.628
 2341TIP3    H228587   2.004   0.748   1.699
 2342TIP3   OH228588   6.645   2.796   8.058
 2342TIP3    H128589   6.687   2.742   7.991
 2342TIP3    H228590   6.717   2.848   8.095
 2343TIP3   OH228591   4.708   3.028   1.831
 2343TIP3    H128592   4.761   2.973   1.773
 2343TIP3    H228593   4.622   2.987   1.832
 2344TIP3   OH228594   5.252   0.555   0.821
 2344TIP3    H128595   5.225   0.614   0.891
 2344TIP3    H228596   5.213   0.593   0.742
 2345TIP3   OH228597   6.573   3.605   1.860
 2345TIP3    H128598   6.492   3.644   1.890
 2345TIP3    H228599   6.631   3.679   1.841
 2346TIP3   OH228600   2.982   3.380   1.183
 2346TIP3    H128601   2.975   3.469   1.218
 2346TIP3    H228602   2.995   3.325   1.260
 2347TIP3   OH228603   0.316   1.633   0.157
 2347TIP3    H128604   0.250   1.672   0.215
 2347TIP3    H228605   0.348   1.707   0.105
 2348TIP3   OH228606   1.310   3.723   0.525
 2348TIP3    H128607   1.322   3.785   0.453
 2348TIP3    H228608   1.387   3.735   0.581
 2349TIP3   OH228609   4.633   0.113   1.372
 2349TIP3    H128610   4.569   0.061   1.420
 2349TIP3    H228611   4.712   0.059   1.371
 2350TIP3   OH228612   2.683   3.566   6.354
 2350TIP3    H128613   2.608   3.580   6.296
 2350TIP3    H228614   2.749   3.525   6.297
 2351TIP3   OH228615   0.305   5.406   0.352
 2351TIP3    H128616   0.322   5.337   0.415
 2351TIP3    H228617   0.353   5.482   0.386
 2352TIP3   OH228618   3.154   3.111   7.796
 2352TIP3    H128619   3.095   3.172   7.839
 2352TIP3    H228620   3.097   3.056   7.743
 2353TIP3   OH228621   2.053   0.585   0.134
 2353TIP3    H128622   2.045   0.516   0.068
 2353TIP3    H228623   2.148   0.594   0.147
 2354TIP3   OH228624   6.548   3.905   7.362
 2354TIP3    H128625   6.591   3.823   7.339
 2354TIP3    H228626   6.577   3.967   7.295
 2355TIP3   OH228627   6.061   2.762   1.063
 2355TIP3    H128628   6.125   2.798   1.124
 2355TIP3    H228629   6.090   2.672   1.048
 2356TIP3   OH228630   1.019   6.896   0.710
 2356TIP3    H128631   1.053   6.836   0.777
 2356TIP3    H228632   0.965   6.959   0.759
 2357TIP3   OH228633   6.998   0.840   7.866
 2357TIP3    H128634   7.026   0.807   7.781
 2357TIP3    H228635   6.969   0.930   7.849
 2358TIP3   OH228636   2.197   0.853   0.402
 2358TIP3    H128637   2.266   0.798   0.439
 2358TIP3    H228638   2.164   0.904   0.476
 2359TIP3   OH228639   6.572   2.179   1.117
 2359TIP3    H128640   6.573   2.198   1.024
 2359TIP3    H228641   6.484   2.146   1.134
 2360TIP3   OH228642   5.910   0.836   5.855
 2360TIP3    H128643   5.851   0.910   5.867
 2360TIP3    H228644   5.992   0.864   5.895
 2361TIP3   OH228645   6.283   0.113   0.518
 2361TIP3    H128646   6.351   0.148   0.461
 2361TIP3    H228647   6.217   0.079   0.458
 2362TIP3   OH228648   3.558   6.494   7.020
 2362TIP3    H128649   3.548   6.587   7.000
 2362TIP3    H228650   3.486   6.474   7.079
 2363TIP3   OH228651   5.865   0.115   6.372
 2363TIP3    H128652   5.795   0.051   6.361
 2363TIP3    H228653   5.943   0.072   6.338
 2364TIP3   OH228654   5.326   5.583   7.324
 2364TIP3    H128655   5.405   5.585   7.270
 2364TIP3    H228656   5.326   5.667   7.369
 2365TIP3   OH228657   5.242   4.581   2.339
 2365TIP3    H128658   5.284   4.563   2.423
 2365TIP3    H228659   5.199   4.499   2.315
 2366TIP3   OH228660   3.252   1.224   8.215
 2366TIP3    H128661   3.217   1.309   8.242
 2366TIP3    H228662   3.300   1.192   8.292
 2367TIP3   OH228663   3.826   3.528   0.997
 2367TIP3    H128664   3.909   3.528   0.950
 2367TIP3    H228665   3.759   3.520   0.928
 2368TIP3   OH228666   5.234   0.504   8.175
 2368TIP3    H128667   5.159   0.563   8.185
 2368TIP3    H228668   5.304   0.547   8.223
 2369TIP3   OH228669   6.297   5.880   0.477
 2369TIP3    H128670   6.260   5.968   0.470
 2369TIP3    H228671   6.232   5.830   0.527
 2370TIP3   OH228672   6.470   1.087   6.720
 2370TIP3    H128673   6.527   1.155   6.683
 2370TIP3    H228674   6.414   1.061   6.646
 2371TIP3   OH228675   0.905   3.551   1.770
 2371TIP3    H128676   0.879   3.502   1.848
 2371TIP3    H228677   0.972   3.497   1.728
 2372TIP3   OH228678   6.379   1.359   0.940
 2372TIP3    H128679   6.445   1.334   0.877
 2372TIP3    H228680   6.411   1.324   1.024
 2373TIP3   OH228681   0.813   3.065   7.422
 2373TIP3    H128682   0.890   3.029   7.379
 2373TIP3    H228683   0.828   3.159   7.426
 2374TIP3   OH228684   2.050   0.295   1.399
 2374TIP3    H128685   2.113   0.272   1.331
 2374TIP3    H228686   2.081   0.378   1.434
 2375TIP3   OH228687   0.079   3.781   1.011
 2375TIP3    H128688   0.042   3.806   1.096
 2375TIP3    H228689   0.162   3.739   1.034
 2376TIP3   OH228690   2.368   6.878   7.804
 2376TIP3    H128691   2.282   6.870   7.847
 2376TIP3    H228692   2.348   6.917   7.719
 2377TIP3   OH228693   4.854   3.292   7.462
 2377TIP3    H128694   4.846   3.381   7.428
 2377TIP3    H228695   4.826   3.298   7.553
 2378TIP3   OH228696   4.329   2.826   8.041
 2378TIP3    H128697   4.388   2.762   8.081
 2378TIP3    H228698   4.385   2.901   8.020
 2379TIP3   OH228699   3.320   2.534   7.687
 2379TIP3    H128700   3.269   2.550   7.608
 2379TIP3    H228701   3.304   2.442   7.708
 2380TIP3   OH228702   5.292   2.765   0.416
 2380TIP3    H128703   5.347   2.738   0.342
 2380TIP3    H228704   5.255   2.683   0.448
 2381TIP3   OH228705   3.006   0.600   1.335
 2381TIP3    H128706   3.053   0.675   1.370
 2381TIP3    H228707   2.937   0.638   1.281
 2382TIP3   OH228708   6.603   0.059   6.229
 2382TIP3    H128709   6.515   0.028   6.253
 2382TIP3    H228710   6.588   0.141   6.182
 2383TIP3   OH228711   6.530   5.330   6.692
 2383TIP3    H128712   6.593   5.395   6.722
 2383TIP3    H228713   6.525   5.266   6.763
 2384TIP3   OH228714   6.984   3.527   7.844
 2384TIP3    H128715   6.990   3.599   7.782
 2384TIP3    H228716   6.930   3.561   7.916
 2385TIP3   OH228717   2.187   4.842   7.958
 2385TIP3    H128718   2.193   4.938   7.962
 2385TIP3    H228719   2.189   4.822   7.864
 2386TIP3   OH228720   2.512   3.983   0.794
 2386TIP3    H128721   2.592   3.936   0.773
 2386TIP3    H228722   2.540   4.055   0.850
 2387TIP3   OH228723   3.058   1.029   8.148
 2387TIP3    H128724   3.121   1.099   8.164
 2387TIP3    H228725   3.091   0.984   8.070
 2388TIP3   OH228726   3.195   6.570   1.668
 2388TIP3    H128727   3.101   6.560   1.682
 2388TIP3    H228728   3.234   6.495   1.713
 2389TIP3   OH228729   5.410   5.362   6.899
 2389TIP3    H128730   5.470   5.432   6.924
 2389TIP3    H228731   5.344   5.361   6.968
 2390TIP3   OH228732   3.289   5.547   7.297
 2390TIP3    H128733   3.242   5.530   7.216
 2390TIP3    H228734   3.273   5.639   7.316
 2391TIP3   OH228735   3.169   5.901   8.038
 2391TIP3    H128736   3.181   5.838   8.108
 2391TIP3    H228737   3.087   5.946   8.060
 2392TIP3   OH228738   0.054   1.747   7.480
 2392TIP3    H128739   0.050   1.670   7.423
 2392TIP3    H228740  -0.034   1.753   7.517
 2393TIP3   OH228741   2.141   1.815   1.663
 2393TIP3    H128742   2.179   1.755   1.727
 2393TIP3    H228743   2.183   1.899   1.682
 2394TIP3   OH228744   1.064   3.255   7.311
 2394TIP3    H128745   1.022   3.278   7.394
 2394TIP3    H228746   1.097   3.166   7.325
 2395TIP3   OH228747   3.957   5.045   0.883
 2395TIP3    H128748   3.914   5.005   0.808
 2395TIP3    H228749   3.886   5.084   0.934
 2396TIP3   OH228750   4.343   0.230   1.599
 2396TIP3    H128751   4.407   0.300   1.585
 2396TIP3    H228752   4.350   0.176   1.521
 2397TIP3   OH228753   5.716   5.310   0.958
 2397TIP3    H128754   5.768   5.241   0.998
 2397TIP3    H228755   5.652   5.335   1.025
 2398TIP3   OH228756   3.525   2.076   7.945
 2398TIP3    H128757   3.504   2.006   7.882
 2398TIP3    H228758   3.512   2.036   8.031
 2399TIP3   OH228759   6.468   3.694   7.116
 2399TIP3    H128760   6.459   3.706   7.022
 2399TIP3    H228761   6.421   3.769   7.154
 2400TIP3   OH228762   6.882   5.412   7.150
 2400TIP3    H128763   6.825   5.422   7.226
 2400TIP3    H228764   6.880   5.318   7.131
 2401TIP3   OH228765   4.674   1.659   0.525
 2401TIP3    H128766   4.668   1.725   0.456
 2401TIP3    H228767   4.700   1.579   0.479
 2402TIP3   OH228768   1.847   6.782   0.493
 2402TIP3    H128769   1.922   6.828   0.454
 2402TIP3    H228770   1.793   6.851   0.530
 2403TIP3   OH228771   1.903   5.880   2.329
 2403TIP3    H128772   1.954   5.807   2.365
 2403TIP3    H228773   1.850   5.841   2.260
 2404TIP3   OH228774   1.107   6.016   0.252
 2404TIP3    H128775   1.060   6.081   0.199
 2404TIP3    H228776   1.137   6.064   0.329
 2405TIP3   OH228777   6.068   4.200   1.191
 2405TIP3    H128778   6.028   4.255   1.258
 2405TIP3    H228779   6.009   4.207   1.116
 2406TIP3   OH228780   5.894   0.257   7.312
 2406TIP3    H128781   5.959   0.240   7.243
 2406TIP3    H228782   5.822   0.197   7.292
 2407TIP3   OH228783   0.115   1.289   6.735
 2407TIP3    H128784   0.146   1.210   6.691
 2407TIP3    H228785   0.183   1.309   6.799
 2408TIP3   OH228786   3.266   2.153   0.361
 2408TIP3    H128787   3.318   2.204   0.423
 2408TIP3    H228788   3.187   2.128   0.410
 2409TIP3   OH228789   2.109   4.683   7.745
 2409TIP3    H128790   2.046   4.642   7.805
 2409TIP3    H228791   2.129   4.615   7.681
 2410TIP3   OH228792   6.755   5.719   1.995
 2410TIP3    H128793   6.807   5.644   1.967
 2410TIP3    H228794   6.667   5.701   1.961
 2411TIP3   OH228795   3.557   1.425   6.671
 2411TIP3    H128796   3.505   1.402   6.594
 2411TIP3    H228797   3.546   1.520   6.680
 2412TIP3   OH228798   1.958   2.649   0.066
 2412TIP3    H128799   1.992   2.587   0.002
 2412TIP3    H228800   1.942   2.729   0.016
 2413TIP3   OH228801   3.659   0.170   0.118
 2413TIP3    H128802   3.587   0.223   0.084
 2413TIP3    H228803   3.683   0.112   0.046
 2414TIP3   OH228804   0.982   1.805   7.025
 2414TIP3    H128805   1.062   1.752   7.027
 2414TIP3    H228806   0.911   1.741   7.034
 2415TIP3   OH228807   0.370   3.797   0.014
 2415TIP3    H128808   0.425   3.733  -0.032
 2415TIP3    H228809   0.416   3.880   0.004
 2416TIP3   OH228810   1.144   3.540   0.371
 2416TIP3    H128811   1.206   3.593   0.421
 2416TIP3    H228812   1.136   3.459   0.422
 2417TIP3   OH228813   3.197   6.858   8.120
 2417TIP3    H128814   3.266   6.829   8.180
 2417TIP3    H228815   3.138   6.782   8.114
 2418TIP3   OH228816   6.035   2.050   1.634
 2418TIP3    H128817   6.075   2.119   1.687
 2418TIP3    H228818   6.081   1.970   1.660
 2419TIP3   OH228819   6.398   4.465   7.749
 2419TIP3    H128820   6.354   4.512   7.678
 2419TIP3    H228821   6.455   4.530   7.789
 2420TIP3   OH228822   3.427   4.786   8.284
 2420TIP3    H128823   3.476   4.861   8.318
 2420TIP3    H228824   3.443   4.789   8.189
 2421TIP3   OH228825   3.840   6.533   6.777
 2421TIP3    H128826   3.767   6.473   6.763
 2421TIP3    H228827   3.808   6.618   6.746
 2422TIP3   OH228828   4.996   4.634   8.100
 2422TIP3    H128829   5.080   4.681   8.103
 2422TIP3    H228830   5.016   4.548   8.137
 2423TIP3   OH228831   0.893   1.103   7.339
 2423TIP3    H128832   0.973   1.059   7.368
 2423TIP3    H228833   0.909   1.121   7.247
 2424TIP3   OH228834   1.146   2.415   2.218
 2424TIP3    H128835   1.053   2.418   2.194
 2424TIP3    H228836   1.151   2.347   2.286
 2425TIP3   OH228837   3.575   5.141   1.240
 2425TIP3    H128838   3.549   5.055   1.206
 2425TIP3    H228839   3.550   5.203   1.171
 2426TIP3   OH228840   1.435   2.042   7.061
 2426TIP3    H128841   1.404   2.092   6.986
 2426TIP3    H228842   1.512   1.995   7.029
 2427TIP3   OH228843   0.571   5.310   8.182
 2427TIP3    H128844   0.589   5.399   8.211
 2427TIP3    H228845   0.539   5.265   8.260
 2428TIP3   OH228846   0.257   5.857   0.816
 2428TIP3    H128847   0.209   5.775   0.809
 2428TIP3    H228848   0.316   5.845   0.889
 2429TIP3   OH228849   1.579   5.422   0.951
 2429TIP3    H128850   1.569   5.345   1.007
 2429TIP3    H228851   1.527   5.490   0.994
 2430TIP3   OH228852   0.291   2.041   1.772
 2430TIP3    H128853   0.307   1.980   1.845
 2430TIP3    H228854   0.356   2.110   1.785
 2431TIP3   OH228855   5.226   3.571   1.185
 2431TIP3    H128856   5.149   3.581   1.241
 2431TIP3    H228857   5.278   3.502   1.226
 2432TIP3   OH228858   5.470   6.271   7.011
 2432TIP3    H128859   5.486   6.212   6.938
 2432TIP3    H228860   5.506   6.226   7.088
 2433TIP3   OH228861   1.824   2.121   1.483
 2433TIP3    H128862   1.783   2.207   1.478
 2433TIP3    H228863   1.882   2.118   1.407
 2434TIP3   OH228864   1.319   0.019   7.603
 2434TIP3    H128865   1.336  -0.072   7.580
 2434TIP3    H228866   1.369   0.034   7.684
 2435TIP3   OH228867   1.332   6.957   1.133
 2435TIP3    H128868   1.258   6.930   1.188
 2435TIP3    H228869   1.320   7.052   1.122
 2436TIP3   OH228870   2.349   4.612   0.172
 2436TIP3    H128871   2.288   4.565   0.116
 2436TIP3    H228872   2.380   4.685   0.118
 2437TIP3   OH228873   4.928   1.930   8.081
 2437TIP3    H128874   4.907   1.963   8.168
 2437TIP3    H228875   5.023   1.937   8.074
 2438TIP3   OH228876   0.231   6.985   7.069
 2438TIP3    H128877   0.309   7.002   7.016
 2438TIP3    H228878   0.230   6.890   7.081
 2439TIP3   OH228879   2.066   2.199   7.408
 2439TIP3    H128880   2.113   2.266   7.458
 2439TIP3    H228881   2.116   2.119   7.421
 2440TIP3   OH228882   4.755   0.885   6.646
 2440TIP3    H128883   4.747   0.790   6.651
 2440TIP3    H228884   4.665   0.917   6.648
 2441TIP3   OH228885   0.216   5.864   1.786
 2441TIP3    H128886   0.208   5.838   1.878
 2441TIP3    H228887   0.127   5.857   1.751
 2442TIP3   OH228888   1.383   1.891   2.312
 2442TIP3    H128889   1.302   1.941   2.299
 2442TIP3    H228890   1.356   1.799   2.303
 2443TIP3   OH228891   2.762   2.618   7.490
 2443TIP3    H128892   2.837   2.558   7.497
 2443TIP3    H228893   2.796   2.693   7.441
 2444TIP3   OH228894   2.342   6.253   7.866
 2444TIP3    H128895   2.283   6.285   7.935
 2444TIP3    H228896   2.327   6.311   7.792
 2445TIP3   OH228897   3.448   4.093   6.594
 2445TIP3    H128898   3.454   4.177   6.639
 2445TIP3    H228899   3.537   4.059   6.594
 2446TIP3   OH228900   2.554   5.606   1.145
 2446TIP3    H128901   2.496   5.631   1.216
 2446TIP3    H228902   2.640   5.638   1.172
 2447TIP3   OH228903   4.489   2.658   8.198
 2447TIP3    H128904   4.514   2.690   8.285
 2447TIP3    H228905   4.480   2.564   8.208
 2448TIP3   OH228906   2.092   4.116   0.515
 2448TIP3    H128907   2.119   4.074   0.596
 2448TIP3    H228908   2.146   4.196   0.510
 2449TIP3   OH228909   1.929   6.090   7.774
 2449TIP3    H128910   1.996   6.113   7.709
 2449TIP3    H228911   1.873   6.167   7.778
 2450TIP3   OH228912   5.034   5.129   7.355
 2450TIP3    H128913   5.049   5.182   7.434
 2450TIP3    H228914   4.945   5.095   7.366
 2451TIP3   OH228915   1.790   2.162   1.797
 2451TIP3    H128916   1.748   2.244   1.823
 2451TIP3    H228917   1.798   2.168   1.702
 2452TIP3   OH228918   2.027   2.519   1.389
 2452TIP3    H128919   1.973   2.595   1.367
 2452TIP3    H228920   1.987   2.446   1.341
 2453TIP3   OH228921   3.093   1.718   1.653
 2453TIP3    H128922   3.072   1.811   1.662
 2453TIP3    H228923   3.028   1.673   1.707
 2454TIP3   OH228924   1.422   5.022   8.204
 2454TIP3    H128925   1.373   4.943   8.225
 2454TIP3    H228926   1.416   5.075   8.284
 2455TIP3   OH228927   6.143   0.399   1.027
 2455TIP3    H128928   6.140   0.385   0.933
 2455TIP3    H228929   6.172   0.315   1.063
 2456TIP3   OH228930   0.802   6.749   2.336
 2456TIP3    H128931   0.758   6.774   2.417
 2456TIP3    H228932   0.758   6.800   2.268
 2457TIP3   OH228933   1.101   3.841   2.489
 2457TIP3    H128934   1.072   3.770   2.546
 2457TIP3    H228935   1.037   3.842   2.417
 2458TIP3   OH228936   0.833   6.437   1.090
 2458TIP3    H128937   0.751   6.389   1.104
 2458TIP3    H228938   0.898   6.389   1.142
 2459TIP3   OH228939   5.521   0.217   1.085
 2459TIP3    H128940   5.528   0.253   1.174
 2459TIP3    H228941   5.468   0.282   1.038
 2460TIP3   OH228942   3.882   2.572   6.518
 2460TIP3    H128943   3.861   2.505   6.453
 2460TIP3    H228944   3.805   2.630   6.518
 2461TIP3   OH228945   5.659   4.875   7.452
 2461TIP3    H128946   5.639   4.950   7.396
 2461TIP3    H228947   5.600   4.885   7.527
 2462TIP3   OH228948   1.372   0.154   1.329
 2462TIP3    H128949   1.345   0.080   1.383
 2462TIP3    H228950   1.319   0.227   1.360
 2463TIP3   OH228951   2.821   0.847   1.359
 2463TIP3    H128952   2.903   0.874   1.317
 2463TIP3    H228953   2.846   0.826   1.449
 2464TIP3   OH228954   5.986   6.095   2.172
 2464TIP3    H128955   6.056   6.161   2.169
 2464TIP3    H228956   6.028   6.018   2.211
 2465TIP3   OH228957   4.675   1.017   1.799
 2465TIP3    H128958   4.712   0.948   1.854
 2465TIP3    H228959   4.727   1.015   1.719
 2466TIP3   OH228960   6.397   4.063   6.667
 2466TIP3    H128961   6.479   4.101   6.700
 2466TIP3    H228962   6.391   4.093   6.576
 2467TIP3   OH228963   1.822   0.638   1.155
 2467TIP3    H128964   1.905   0.595   1.136
 2467TIP3    H228965   1.846   0.728   1.176
 2468TIP3   OH228966   5.772   3.368   7.836
 2468TIP3    H128967   5.845   3.312   7.811
 2468TIP3    H228968   5.742   3.408   7.754
 2469TIP3   OH228969   6.669   1.296   6.913
 2469TIP3    H128970   6.693   1.380   6.953
 2469TIP3    H228971   6.691   1.231   6.980
 2470TIP3   OH228972   6.533   0.280   1.053
 2470TIP3    H128973   6.443   0.246   1.045
 2470TIP3    H228974   6.544   0.337   0.977
 2471TIP3   OH228975   4.820   6.519   0.544
 2471TIP3    H128976   4.882   6.527   0.471
 2471TIP3    H228977   4.761   6.594   0.534
 2472TIP3   OH228978   4.433   2.876   0.314
 2472TIP3    H128979   4.382   2.805   0.275
 2472TIP3    H228980   4.518   2.836   0.335
 2473TIP3   OH228981   1.945   3.494   6.622
 2473TIP3    H128982   1.952   3.449   6.707
 2473TIP3    H228983   1.956   3.424   6.557
 2474TIP3   OH228984   3.969   4.790   0.403
 2474TIP3    H128985   3.956   4.838   0.485
 2474TIP3    H228986   3.960   4.698   0.427
 2475TIP3   OH228987   6.621   2.329   7.866
 2475TIP3    H128988   6.591   2.265   7.930
 2475TIP3    H228989   6.560   2.403   7.874
 2476TIP3   OH228990   6.897   2.721   7.916
 2476TIP3    H128991   6.898   2.652   7.850
 2476TIP3    H228992   6.985   2.720   7.953
 2477TIP3   OH228993   5.917   0.405   7.990
 2477TIP3    H128994   5.928   0.499   8.003
 2477TIP3    H228995   5.965   0.365   8.063
 2478TIP3   OH228996   6.293   0.950   7.156
 2478TIP3    H128997   6.210   0.903   7.160
 2478TIP3    H228998   6.300   0.979   7.065
 2479TIP3   OH228999   4.985   1.263   0.514
 2479TIP3    H129000   5.062   1.256   0.458
 2479TIP3    H229001   5.013   1.318   0.587
 2480TIP3   OH229002   5.084   0.115   1.000
 2480TIP3    H129003   5.051   0.133   1.088
 2480TIP3    H229004   5.021   0.157   0.942
 2481TIP3   OH229005   1.230   6.749   1.395
 2481TIP3    H129006   1.255   6.761   1.487
 2481TIP3    H229007   1.190   6.831   1.370
 2482TIP3   OH229008   3.508   2.161   7.432
 2482TIP3    H129009   3.487   2.190   7.343
 2482TIP3    H229010   3.464   2.077   7.441
 2483TIP3   OH229011   3.081   4.863   1.382
 2483TIP3    H129012   3.152   4.800   1.370
 2483TIP3    H229013   3.125   4.941   1.415
 2484TIP3   OH229014   5.296   3.830   1.118
 2484TIP3    H129015   5.311   3.842   1.212
 2484TIP3    H229016   5.254   3.744   1.112
 2485TIP3   OH229017   0.081   0.058   0.104
 2485TIP3    H129018   0.062   0.029   0.194
 2485TIP3    H229019  -0.001   0.043   0.056
 2486TIP3   OH229020   5.730   5.957   6.579
 2486TIP3    H129021   5.715   5.914   6.494
 2486TIP3    H229022   5.661   6.024   6.584
 2487TIP3   OH229023   0.549   1.696   1.524
 2487TIP3    H129024   0.463   1.734   1.543
 2487TIP3    H229025   0.610   1.770   1.530
 2488TIP3   OH229026   5.200   2.897   6.622
 2488TIP3    H129027   5.265   2.922   6.688
 2488TIP3    H229028   5.247   2.906   6.539
 2489TIP3   OH229029   3.594   2.860   8.256
 2489TIP3    H129030   3.617   2.772   8.286
 2489TIP3    H229031   3.557   2.903   8.333
 2490TIP3   OH229032   0.492   1.321   8.294
 2490TIP3    H129033   0.582   1.326   8.262
 2490TIP3    H229034   0.454   1.246   8.248
 2491TIP3   OH229035   2.328   2.968   0.617
 2491TIP3    H129036   2.317   3.063   0.613
 2491TIP3    H229037   2.399   2.954   0.680
 2492TIP3   OH229038   1.387   2.765   0.358
 2492TIP3    H129039   1.431   2.807   0.432
 2492TIP3    H229040   1.457   2.730   0.304
 2493TIP3   OH229041   0.730   5.097   8.080
 2493TIP3    H129042   0.785   5.094   8.159
 2493TIP3    H229043   0.694   5.185   8.079
 2494TIP3   OH229044   6.179   6.017   0.785
 2494TIP3    H129045   6.184   6.044   0.693
 2494TIP3    H229046   6.142   5.929   0.782
 2495TIP3   OH229047   3.171   0.392   0.239
 2495TIP3    H129048   3.204   0.481   0.225
 2495TIP3    H229049   3.150   0.360   0.151
 2496TIP3   OH229050   2.378   1.347   0.265
 2496TIP3    H129051   2.412   1.293   0.336
 2496TIP3    H229052   2.418   1.310   0.186
 2497TIP3   OH229053   6.288   4.618   7.558
 2497TIP3    H129054   6.205   4.579   7.531
 2497TIP3    H229055   6.312   4.676   7.486
 2498TIP3   OH229056   0.957   5.746   1.627
 2498TIP3    H129057   0.869   5.709   1.619
 2498TIP3    H229058   0.967   5.766   1.720
 2499TIP3   OH229059   2.014   4.126   1.260
 2499TIP3    H129060   1.992   4.049   1.206
 2499TIP3    H229061   2.073   4.092   1.327
 2500TIP3   OH229062   5.060   2.960   0.033
 2500TIP3    H129063   4.985   3.019   0.036
 2500TIP3    H229064   5.020   2.872   0.028
 2501TIP3   OH229065   0.371   4.084   7.059
 2501TIP3    H129066   0.311   4.077   7.133
 2501TIP3    H229067   0.321   4.051   6.984
 2502TIP3   OH229068   6.412   6.791   1.298
 2502TIP3    H129069   6.502   6.813   1.275
 2502TIP3    H229070   6.412   6.695   1.306
 2503TIP3   OH229071   3.407   2.577   6.783
 2503TIP3    H129072   3.329   2.575   6.726
 2503TIP3    H229073   3.407   2.491   6.825
 2504TIP3   OH229074   2.860   3.091   7.675
 2504TIP3    H129075   2.854   3.125   7.585
 2504TIP3    H229076   2.875   2.997   7.664
 2505TIP3   OH229077   1.299   6.789   7.224
 2505TIP3    H129078   1.228   6.727   7.241
 2505TIP3    H229079   1.266   6.845   7.154
 2506TIP3   OH229080   4.642   0.419   2.137
 2506TIP3    H129081   4.638   0.376   2.051
 2506TIP3    H229082   4.558   0.464   2.145
 2507TIP3   OH229083   6.661   3.698   1.281
 2507TIP3    H129084   6.675   3.788   1.253
 2507TIP3    H229085   6.640   3.705   1.374
 2508TIP3   OH229086   4.784   5.881   6.015
 2508TIP3    H129087   4.713   5.817   6.017
 2508TIP3    H229088   4.767   5.935   5.937
 2509TIP3   OH229089   3.726   0.799   0.139
 2509TIP3    H129090   3.672   0.863   0.185
 2509TIP3    H229091   3.736   0.835   0.051
 2510TIP3   OH229092   4.967   3.787   1.663
 2510TIP3    H129093   4.879   3.750   1.669
 2510TIP3    H229094   4.994   3.771   1.573
 2511TIP3   OH229095   2.084   5.981   0.951
 2511TIP3    H129096   2.149   5.916   0.975
 2511TIP3    H229097   2.134   6.061   0.936
 2512TIP3   OH229098   6.081   2.007   0.848
 2512TIP3    H129099   6.055   2.026   0.938
 2512TIP3    H229100   5.999   1.985   0.803
 2513TIP3   OH229101   5.567   5.553   7.173
 2513TIP3    H129102   5.630   5.485   7.194
 2513TIP3    H229103   5.613   5.635   7.191
 2514TIP3   OH229104   6.297   2.872   7.785
 2514TIP3    H129105   6.260   2.784   7.778
 2514TIP3    H229106   6.267   2.917   7.706
 2515TIP3   OH229107   5.377   6.564   8.023
 2515TIP3    H129108   5.420   6.627   7.965
 2515TIP3    H229109   5.368   6.611   8.106
 2516TIP3   OH229110   1.294   4.972   6.454
 2516TIP3    H129111   1.388   4.984   6.472
 2516TIP3    H229112   1.289   4.888   6.409
 2517TIP3   OH229113   6.963   0.366   0.332
 2517TIP3    H129114   6.927   0.441   0.286
 2517TIP3    H229115   7.025   0.403   0.395
 2518TIP3   OH229116   6.201   5.812   0.102
 2518TIP3    H129117   6.251   5.734   0.125
 2518TIP3    H229118   6.111   5.791   0.124
 2519TIP3   OH229119   2.671   4.936   7.689
 2519TIP3    H129120   2.627   4.874   7.631
 2519TIP3    H229121   2.662   4.897   7.776
 2520TIP3   OH229122   1.168   6.619   6.613
 2520TIP3    H129123   1.144   6.550   6.551
 2520TIP3    H229124   1.164   6.700   6.561
 2521TIP3   OH229125   0.111   5.162   0.337
 2521TIP3    H129126   0.200   5.143   0.307
 2521TIP3    H229127   0.102   5.257   0.325
 2522TIP3   OH229128   6.472   0.757   1.444
 2522TIP3    H129129   6.464   0.816   1.519
 2522TIP3    H229130   6.403   0.692   1.458
 2523TIP3   OH229131   2.004   6.434   8.298
 2523TIP3    H129132   1.947   6.420   8.222
 2523TIP3    H229133   1.986   6.360   8.356
 2524TIP3   OH229134   0.285   0.341   0.432
 2524TIP3    H129135   0.315   0.409   0.371
 2524TIP3    H229136   0.255   0.389   0.509
 2525TIP3   OH229137   0.127   3.924   6.587
 2525TIP3    H129138   0.183   3.856   6.625
 2525TIP3    H229139   0.188   3.987   6.549
 2526TIP3   OH229140   6.099   6.257   1.593
 2526TIP3    H129141   6.107   6.205   1.673
 2526TIP3    H229142   6.053   6.201   1.532
 2527TIP3   OH229143   0.546   4.123   0.502
 2527TIP3    H129144   0.550   4.035   0.541
 2527TIP3    H229145   0.453   4.139   0.489
 2528TIP3   OH229146   4.364   3.755   6.597
 2528TIP3    H129147   4.411   3.726   6.675
 2528TIP3    H229148   4.333   3.675   6.556
 2529TIP3   OH229149   6.867   2.129   1.972
 2529TIP3    H129150   6.845   2.052   1.920
 2529TIP3    H229151   6.831   2.112   2.058
 2530TIP3   OH229152   0.676   3.766   8.373
 2530TIP3    H129153   0.676   3.764   8.469
 2530TIP3    H229154   0.706   3.854   8.351
 2531TIP3   OH229155   3.014   3.255   7.989
 2531TIP3    H129156   2.969   3.209   8.060
 2531TIP3    H229157   3.037   3.340   8.026
 2532TIP3   OH229158   4.991   6.294   0.905
 2532TIP3    H129159   5.041   6.280   0.985
 2532TIP3    H229160   5.058   6.302   0.836
 2533TIP3   OH229161   5.631   4.281   6.422
 2533TIP3    H129162   5.637   4.253   6.513
 2533TIP3    H229163   5.563   4.348   6.422
 2534TIP3   OH229164   5.330   5.052   6.973
 2534TIP3    H129165   5.385   5.107   7.028
 2534TIP3    H229166   5.369   4.965   6.980
 2535TIP3   OH229167   5.076   2.655   6.816
 2535TIP3    H129168   5.085   2.732   6.872
 2535TIP3    H229169   4.982   2.649   6.800
 2536TIP3   OH229170   3.842   2.995   7.925
 2536TIP3    H129171   3.900   3.033   7.991
 2536TIP3    H229172   3.811   2.914   7.966
 2537TIP3   OH229173   1.282   1.000   7.129
 2537TIP3    H129174   1.200   1.019   7.083
 2537TIP3    H229175   1.313   1.086   7.159
 2538TIP3   OH229176   1.942   6.690   8.179
 2538TIP3    H129177   2.014   6.654   8.232
 2538TIP3    H229178   1.867   6.636   8.201
 2539TIP3   OH229179   0.380   5.044   0.201
 2539TIP3    H129180   0.460   5.016   0.246
 2539TIP3    H229181   0.331   4.962   0.186
 2540TIP3   OH229182   5.599   3.762   0.070
 2540TIP3    H129183   5.567   3.727   0.153
 2540TIP3    H229184   5.626   3.852   0.090
 2541TIP3   OH229185   1.198   4.237   7.480
 2541TIP3    H129186   1.157   4.303   7.537
 2541TIP3    H229187   1.146   4.238   7.400
 2542TIP3   OH229188   3.929   6.866   1.108
 2542TIP3    H129189   3.837   6.892   1.113
 2542TIP3    H229190   3.959   6.900   1.024
 2543TIP3   OH229191   0.357   5.533   0.952
 2543TIP3    H129192   0.292   5.472   0.917
 2543TIP3    H229193   0.417   5.547   0.879
 2544TIP3   OH229194   5.790   0.033   0.531
 2544TIP3    H129195   5.737   0.112   0.519
 2544TIP3    H229196   5.791   0.019   0.626
 2545TIP3   OH229197   6.586   5.794   1.633
 2545TIP3    H129198   6.551   5.771   1.720
 2545TIP3    H229199   6.650   5.862   1.650
 2546TIP3   OH229200   4.937   3.828   0.489
 2546TIP3    H129201   4.888   3.897   0.445
 2546TIP3    H229202   5.024   3.865   0.504
 2547TIP3   OH229203   4.334   4.687   6.488
 2547TIP3    H129204   4.375   4.753   6.542
 2547TIP3    H229205   4.400   4.665   6.422
 2548TIP3   OH229206   2.001   6.185   7.324
 2548TIP3    H129207   1.934   6.119   7.306
 2548TIP3    H229208   2.031   6.214   7.238
 2549TIP3   OH229209   1.159   5.513   7.691
 2549TIP3    H129210   1.253   5.500   7.701
 2549TIP3    H229211   1.149   5.557   7.607
 2550TIP3   OH229212   2.469   3.533   1.839
 2550TIP3    H129213   2.469   3.603   1.903
 2550TIP3    H229214   2.518   3.567   1.765
 2551TIP3   OH229215   4.762   0.042   2.281
 2551TIP3    H129216   4.778   0.050   2.187
 2551TIP3    H229217   4.845   0.068   2.322
 2552TIP3   OH229218   2.310   3.324   8.276
 2552TIP3    H129219   2.260   3.309   8.196
 2552TIP3    H229220   2.244   3.348   8.341
 2553TIP3   OH229221   3.118   6.935   7.567
 2553TIP3    H129222   3.069   6.988   7.630
 2553TIP3    H229223   3.117   6.986   7.486
 2554TIP3   OH229224   3.870   4.480   7.733
 2554TIP3    H129225   3.911   4.499   7.817
 2554TIP3    H229226   3.924   4.410   7.695
 2555TIP3   OH229227   5.239   2.528   0.536
 2555TIP3    H129228   5.217   2.452   0.590
 2555TIP3    H229229   5.307   2.496   0.476
 2556TIP3   OH229230   2.721   5.095   1.612
 2556TIP3    H129231   2.627   5.108   1.598
 2556TIP3    H229232   2.739   5.009   1.576
 2557TIP3   OH229233   6.560   5.090   0.052
 2557TIP3    H129234   6.482   5.122   0.097
 2557TIP3    H229235   6.530   5.066  -0.035
 2558TIP3   OH229236   1.522   5.918   7.712
 2558TIP3    H129237   1.545   6.009   7.695
 2558TIP3    H229238   1.501   5.915   7.805
 2559TIP3   OH229239   2.254   3.505   7.395
 2559TIP3    H129240   2.211   3.492   7.310
 2559TIP3    H229241   2.341   3.540   7.372
 2560TIP3   OH229242   1.367   2.086   1.299
 2560TIP3    H129243   1.316   2.151   1.252
 2560TIP3    H229244   1.445   2.133   1.330
 2561TIP3   OH229245   6.026   6.989   6.615
 2561TIP3    H129246   5.967   6.913   6.616
 2561TIP3    H229247   6.058   6.993   6.525
 2562TIP3   OH229248   5.623   0.389   6.959
 2562TIP3    H129249   5.634   0.434   7.043
 2562TIP3    H229250   5.701   0.335   6.949
 2563TIP3   OH229251   2.293   3.271   2.425
 2563TIP3    H129252   2.364   3.334   2.411
 2563TIP3    H229253   2.269   3.281   2.517
 2564TIP3   OH229254   0.156   3.108   7.718
 2564TIP3    H129255   0.089   3.157   7.766
 2564TIP3    H229256   0.189   3.045   7.782
 2565TIP3   OH229257   1.337   2.873   1.025
 2565TIP3    H129258   1.312   2.965   1.034
 2565TIP3    H229259   1.402   2.873   0.954
 2566TIP3   OH229260   0.034   0.772   0.999
 2566TIP3    H129261   0.015   0.865   1.013
 2566TIP3    H229262   0.021   0.758   0.905
 2567TIP3   OH229263   3.897   5.860   0.206
 2567TIP3    H129264   3.831   5.886   0.141
 2567TIP3    H229265   3.849   5.804   0.267
 2568TIP3   OH229266   6.476   3.654   1.081
 2568TIP3    H129267   6.403   3.685   1.134
 2568TIP3    H229268   6.553   3.669   1.136
 2569TIP3   OH229269   4.354   5.573   0.491
 2569TIP3    H129270   4.356   5.647   0.552
 2569TIP3    H229271   4.399   5.606   0.413
 2570TIP3   OH229272   1.118   0.638   1.335
 2570TIP3    H129273   1.047   0.690   1.372
 2570TIP3    H229274   1.198   0.677   1.370
 2571TIP3   OH229275   3.516   3.661   8.266
 2571TIP3    H129276   3.431   3.646   8.225
 2571TIP3    H229277   3.527   3.756   8.263
 2572TIP3   OH229278   2.595   6.619   1.144
 2572TIP3    H129279   2.576   6.670   1.222
 2572TIP3    H229280   2.572   6.529   1.168
 2573TIP3   OH229281   5.767   0.998   1.596
 2573TIP3    H129282   5.723   1.066   1.546
 2573TIP3    H229283   5.701   0.965   1.657
 2574TIP3   OH229284   5.737   2.729   1.424
 2574TIP3    H129285   5.707   2.740   1.514
 2574TIP3    H229286   5.831   2.712   1.432
 2575TIP3   OH229287   6.546   1.268   8.217
 2575TIP3    H129288   6.462   1.225   8.198
 2575TIP3    H229289   6.540   1.353   8.174
 2576TIP3   OH229290   0.388   0.505   6.952
 2576TIP3    H129291   0.419   0.549   7.030
 2576TIP3    H229292   0.333   0.433   6.984
 2577TIP3   OH229293   1.763   1.884   1.742
 2577TIP3    H129294   1.776   1.969   1.783
 2577TIP3    H229295   1.820   1.824   1.791
 2578TIP3   OH229296   5.915   4.418   1.354
 2578TIP3    H129297   6.004   4.451   1.339
 2578TIP3    H229298   5.861   4.464   1.290
 2579TIP3   OH229299   2.121   6.784   6.138
 2579TIP3    H129300   2.174   6.864   6.141
 2579TIP3    H229301   2.185   6.713   6.132
 2580TIP3   OH229302   5.768   4.007   7.461
 2580TIP3    H129303   5.682   3.964   7.464
 2580TIP3    H229304   5.789   4.012   7.367
 2581TIP3   OH229305   1.736   4.097   6.716
 2581TIP3    H129306   1.803   4.162   6.693
 2581TIP3    H229307   1.663   4.116   6.657
 2582TIP3   OH229308   1.505   0.208   8.361
 2582TIP3    H129309   1.491   0.152   8.284
 2582TIP3    H229310   1.433   0.187   8.420
 2583TIP3   OH229311   3.830   6.071   2.099
 2583TIP3    H129312   3.892   6.119   2.154
 2583TIP3    H229313   3.804   5.996   2.153
 2584TIP3   OH229314   5.793   1.801   7.172
 2584TIP3    H129315   5.885   1.781   7.190
 2584TIP3    H229316   5.789   1.810   7.077
 2585TIP3   OH229317   0.487   3.257   1.265
 2585TIP3    H129318   0.479   3.267   1.170
 2585TIP3    H229319   0.497   3.163   1.278
 2586TIP3   OH229320   6.457   3.649   0.242
 2586TIP3    H129321   6.461   3.744   0.255
 2586TIP3    H229322   6.537   3.628   0.194
 2587TIP3   OH229323   3.343   6.071   7.744
 2587TIP3    H129324   3.428   6.110   7.766
 2587TIP3    H229325   3.279   6.139   7.766
 2588TIP3   OH229326   4.173   6.979   0.037
 2588TIP3    H129327   4.116   6.903   0.027
 2588TIP3    H229328   4.212   6.969   0.123
 2589TIP3   OH229329   1.165   0.627   1.753
 2589TIP3    H129330   1.087   0.651   1.803
 2589TIP3    H229331   1.144   0.543   1.713
 2590TIP3   OH229332   2.607   0.132   7.502
 2590TIP3    H129333   2.608   0.111   7.409
 2590TIP3    H229334   2.606   0.228   7.505
 2591TIP3   OH229335   6.946   1.319   7.612
 2591TIP3    H129336   7.004   1.243   7.607
 2591TIP3    H229337   6.932   1.344   7.520
 2592TIP3   OH229338   5.165   5.613   6.911
 2592TIP3    H129339   5.170   5.614   7.007
 2592TIP3    H229340   5.074   5.632   6.891
 2593TIP3   OH229341   1.574   3.941   8.155
 2593TIP3    H129342   1.565   4.001   8.081
 2593TIP3    H229343   1.512   3.974   8.220
 2594TIP3   OH229344   3.604   1.773   6.991
 2594TIP3    H129345   3.524   1.736   7.028
 2594TIP3    H229346   3.664   1.699   6.983
 2595TIP3   OH229347   2.727   1.293   0.661
 2595TIP3    H129348   2.802   1.308   0.717
 2595TIP3    H229349   2.755   1.320   0.574
 2596TIP3   OH229350   4.275   2.436   1.794
 2596TIP3    H129351   4.313   2.491   1.725
 2596TIP3    H229352   4.350   2.397   1.838
 2597TIP3   OH229353   3.288   0.904   1.873
 2597TIP3    H129354   3.216   0.841   1.874
 2597TIP3    H229355   3.340   0.883   1.950
 2598TIP3   OH229356   0.240   0.142   1.417
 2598TIP3    H129357   0.166   0.202   1.427
 2598TIP3    H229358   0.235   0.113   1.326
 2599TIP3   OH229359   4.615   3.736   8.089
 2599TIP3    H129360   4.693   3.738   8.145
 2599TIP3    H229361   4.545   3.705   8.146
 2600TIP3   OH229362   0.108   3.738   0.044
 2600TIP3    H129363   0.202   3.752   0.032
 2600TIP3    H229364   0.066   3.804  -0.011
 2601TIP3   OH229365   0.325   2.318   2.240
 2601TIP3    H129366   0.262   2.308   2.168
 2601TIP3    H229367   0.355   2.409   2.233
 2602TIP3   OH229368   4.099   6.902   6.466
 2602TIP3    H129369   4.190   6.927   6.481
 2602TIP3    H229370   4.071   6.864   6.550
 2603TIP3   OH229371   6.689   5.568   1.481
 2603TIP3    H129372   6.687   5.527   1.567
 2603TIP3    H229373   6.671   5.661   1.499
 2604TIP3   OH229374   3.280   1.215   7.318
 2604TIP3    H129375   3.261   1.220   7.224
 2604TIP3    H229376   3.367   1.176   7.323
 2605TIP3   OH229377   1.710   1.889   7.839
 2605TIP3    H129378   1.665   1.806   7.851
 2605TIP3    H229379   1.787   1.884   7.897
 2606TIP3   OH229380   5.806   3.100   1.704
 2606TIP3    H129381   5.760   3.150   1.636
 2606TIP3    H229382   5.848   3.029   1.657
 2607TIP3   OH229383   0.768   2.568   0.665
 2607TIP3    H129384   0.678   2.593   0.642
 2607TIP3    H229385   0.758   2.495   0.726
 2608TIP3   OH229386   0.566   0.878   7.800
 2608TIP3    H129387   0.646   0.925   7.776
 2608TIP3    H229388   0.594   0.814   7.866
 2609TIP3   OH229389   2.838   6.286   7.203
 2609TIP3    H129390   2.887   6.359   7.241
 2609TIP3    H229391   2.820   6.313   7.113
 2610TIP3   OH229392   0.263   3.145   7.463
 2610TIP3    H129393   0.294   3.062   7.428
 2610TIP3    H229394   0.222   3.122   7.547
 2611TIP3   OH229395   5.767   1.334   8.223
 2611TIP3    H129396   5.696   1.397   8.241
 2611TIP3    H229397   5.817   1.331   8.305
 2612TIP3   OH229398   6.350   3.615   8.213
 2612TIP3    H129399   6.269   3.662   8.234
 2612TIP3    H229400   6.420   3.676   8.234
 2613TIP3   OH229401   1.724   3.835   6.796
 2613TIP3    H129402   1.746   3.917   6.751
 2613TIP3    H229403   1.630   3.823   6.779
 2614TIP3   OH229404   5.591   6.911   0.810
 2614TIP3    H129405   5.682   6.933   0.832
 2614TIP3    H229406   5.548   6.996   0.800
 2615TIP3   OH229407   6.807   1.313   7.909
 2615TIP3    H129408   6.807   1.395   7.959
 2615TIP3    H229409   6.893   1.312   7.866
 2616TIP3   OH229410   1.898   2.769   7.560
 2616TIP3    H129411   1.895   2.679   7.526
 2616TIP3    H229412   1.894   2.824   7.481
 2617TIP3   OH229413   5.791   3.461   1.213
 2617TIP3    H129414   5.794   3.443   1.307
 2617TIP3    H229415   5.864   3.522   1.198
 2618TIP3   OH229416   0.682   5.475   6.908
 2618TIP3    H129417   0.594   5.475   6.947
 2618TIP3    H229418   0.727   5.401   6.948
 2619TIP3   OH229419   2.993   6.792   6.912
 2619TIP3    H129420   3.031   6.875   6.940
 2619TIP3    H229421   2.923   6.775   6.975
 2620TIP3   OH229422   1.460   1.849   0.530
 2620TIP3    H129423   1.532   1.891   0.577
 2620TIP3    H229424   1.503   1.781   0.478
 2621TIP3   OH229425   1.952   6.282   6.773
 2621TIP3    H129426   1.937   6.244   6.686
 2621TIP3    H229427   1.911   6.368   6.768
 2622TIP3   OH229428   4.884   2.836   1.664
 2622TIP3    H129429   4.880   2.833   1.568
 2622TIP3    H229430   4.973   2.809   1.685
 2623TIP3   OH229431   5.363   0.312   6.637
 2623TIP3    H129432   5.361   0.248   6.566
 2623TIP3    H229433   5.369   0.260   6.717
 2624TIP3   OH229434   4.936   0.990   0.019
 2624TIP3    H129435   4.881   0.959  -0.052
 2624TIP3    H229436   4.951   1.082  -0.001
 2625TIP3   OH229437   0.403   3.494   5.868
 2625TIP3    H129438   0.469   3.463   5.930
 2625TIP3    H229439   0.419   3.444   5.788
 2626TIP3   OH229440   6.678   6.397   1.604
 2626TIP3    H129441   6.643   6.324   1.655
 2626TIP3    H229442   6.752   6.429   1.656
 2627TIP3   OH229443   0.420   1.776   7.898
 2627TIP3    H129444   0.341   1.767   7.845
 2627TIP3    H229445   0.489   1.794   7.834
 2628TIP3   OH229446   1.786   0.939   6.993
 2628TIP3    H129447   1.854   0.941   7.061
 2628TIP3    H229448   1.831   0.905   6.916
 2629TIP3   OH229449   3.776   3.367   7.437
 2629TIP3    H129450   3.812   3.362   7.525
 2629TIP3    H229451   3.853   3.367   7.380
 2630TIP3   OH229452   4.531   5.950   0.279
 2630TIP3    H129453   4.549   5.995   0.197
 2630TIP3    H229454   4.518   6.020   0.343
 2631TIP3   OH229455   0.804   1.043   1.940
 2631TIP3    H129456   0.893   1.054   1.975
 2631TIP3    H229457   0.748   1.037   2.018
 2632TIP3   OH229458   1.137   0.801   7.285
 2632TIP3    H129459   1.222   0.803   7.241
 2632TIP3    H229460   1.074   0.822   7.217
 2633TIP3   OH229461   3.936   1.985   0.083
 2633TIP3    H129462   3.851   1.961   0.047
 2633TIP3    H229463   3.969   2.053   0.024
 2634TIP3   OH229464   2.075   5.188   6.525
 2634TIP3    H129465   2.148   5.213   6.469
 2634TIP3    H229466   2.098   5.102   6.558
 2635TIP3   OH229467   0.340   1.172   7.959
 2635TIP3    H129468   0.270   1.132   8.011
 2635TIP3    H229469   0.417   1.118   7.978
 2636TIP3   OH229470   6.865   5.080   6.964
 2636TIP3    H129471   6.910   5.104   6.883
 2636TIP3    H229472   6.795   5.145   6.971
 2637TIP3   OH229473   2.713   3.938   1.650
 2637TIP3    H129474   2.647   3.966   1.712
 2637TIP3    H229475   2.682   3.971   1.565
 2638TIP3   OH229476   5.381   4.448   0.866
 2638TIP3    H129477   5.421   4.367   0.896
 2638TIP3    H229478   5.319   4.472   0.935
 2639TIP3   OH229479   0.569   6.940   7.117
 2639TIP3    H129480   0.602   7.025   7.086
 2639TIP3    H229481   0.532   6.899   7.039
 2640TIP3   OH229482   3.624   0.986   1.373
 2640TIP3    H129483   3.607   1.029   1.289
 2640TIP3    H229484   3.572   0.906   1.370
 2641TIP3   OH229485   5.607   3.909   6.195
 2641TIP3    H129486   5.607   4.005   6.194
 2641TIP3    H229487   5.563   3.884   6.113
 2642TIP3   OH229488   3.788   1.266   0.249
 2642TIP3    H129489   3.879   1.250   0.273
 2642TIP3    H229490   3.792   1.343   0.192
 2643TIP3   OH229491   1.837   4.458   7.745
 2643TIP3    H129492   1.747   4.462   7.711
 2643TIP3    H229493   1.831   4.497   7.832
 2644TIP3   OH229494   5.002   0.466   1.001
 2644TIP3    H129495   5.056   0.509   1.068
 2644TIP3    H229496   4.989   0.378   1.035
 2645TIP3   OH229497   1.625   0.133   1.230
 2645TIP3    H129498   1.617   0.048   1.186
 2645TIP3    H229499   1.545   0.140   1.282
 2646TIP3   OH229500   6.789   3.840   0.282
 2646TIP3    H129501   6.749   3.881   0.205
 2646TIP3    H229502   6.811   3.912   0.340
 2647TIP3   OH229503   3.903   4.292   0.032
 2647TIP3    H129504   3.957   4.274  -0.046
 2647TIP3    H229505   3.920   4.384   0.052
 2648TIP3   OH229506   0.998   3.758   0.273
 2648TIP3    H129507   1.031   3.674   0.305
 2648TIP3    H229508   1.075   3.814   0.269
 2649TIP3   OH229509   6.408   4.730   7.330
 2649TIP3    H129510   6.454   4.807   7.296
 2649TIP3    H229511   6.475   4.662   7.336
 2650TIP3   OH229512   1.668   4.862   8.237
 2650TIP3    H129513   1.590   4.916   8.251
 2650TIP3    H229514   1.737   4.925   8.217
 2651TIP3   OH229515   4.772   5.524   6.342
 2651TIP3    H129516   4.856   5.490   6.374
 2651TIP3    H229517   4.766   5.491   6.252
 2652TIP3   OH229518   3.413   2.312   6.901
 2652TIP3    H129519   3.369   2.296   6.817
 2652TIP3    H229520   3.344   2.306   6.966
 2653TIP3   OH229521   0.704   3.160   8.079
 2653TIP3    H129522   0.798   3.160   8.093
 2653TIP3    H229523   0.677   3.251   8.095
 2654TIP3   OH229524   0.667   6.206   8.054
 2654TIP3    H129525   0.733   6.244   8.113
 2654TIP3    H229526   0.614   6.281   8.027
 2655TIP3   OH229527   6.597   5.774   6.991
 2655TIP3    H129528   6.603   5.714   6.916
 2655TIP3    H229529   6.681   5.763   7.036
 2656TIP3   OH229530   4.071   5.439   7.910
 2656TIP3    H129531   4.122   5.386   7.849
 2656TIP3    H229532   3.994   5.466   7.859
 2657TIP3   OH229533   4.262   3.270   0.437
 2657TIP3    H129534   4.317   3.250   0.362
 2657TIP3    H229535   4.280   3.200   0.500
 2658TIP3   OH229536   4.819   5.169   1.051
 2658TIP3    H129537   4.737   5.206   1.019
 2658TIP3    H229538   4.792   5.087   1.094
 2659TIP3   OH229539   0.924   0.147   0.110
 2659TIP3    H129540   0.850   0.154   0.171
 2659TIP3    H229541   0.968   0.231   0.116
 2660TIP3   OH229542   2.955   0.911   7.756
 2660TIP3    H129543   2.888   0.936   7.819
 2660TIP3    H229544   3.038   0.918   7.804
 2661TIP3   OH229545   3.483   3.305   7.660
 2661TIP3    H129546   3.522   3.253   7.590
 2661TIP3    H229547   3.544   3.297   7.733
 2662TIP3   OH229548   5.094   0.690   1.755
 2662TIP3    H129549   5.065   0.613   1.804
 2662TIP3    H229550   5.167   0.724   1.806
 2663TIP3   OH229551   6.411   4.092   7.780
 2663TIP3    H129552   6.491   4.113   7.829
 2663TIP3    H229553   6.439   4.024   7.718
 2664TIP3   OH229554   6.455   2.555   7.871
 2664TIP3    H129555   6.427   2.598   7.952
 2664TIP3    H229556   6.381   2.566   7.811
 2665TIP3   OH229557   3.690   0.739   0.438
 2665TIP3    H129558   3.717   0.829   0.426
 2665TIP3    H229559   3.656   0.713   0.352
 2666TIP3   OH229560   6.704   2.356   1.991
 2666TIP3    H129561   6.768   2.285   1.982
 2666TIP3    H229562   6.690   2.363   2.085
 2667TIP3   OH229563   4.772   3.522   7.374
 2667TIP3    H129564   4.678   3.526   7.387
 2667TIP3    H229565   4.804   3.609   7.400
 2668TIP3   OH229566   2.488   0.446   7.007
 2668TIP3    H129567   2.543   0.405   6.940
 2668TIP3    H229568   2.420   0.381   7.026
 2669TIP3   OH229569   4.764   0.942   0.488
 2669TIP3    H129570   4.682   0.938   0.439
 2669TIP3    H229571   4.825   0.984   0.429
 2670TIP3   OH229572   4.596   1.673   0.812
 2670TIP3    H129573   4.638   1.648   0.730
 2670TIP3    H229574   4.560   1.760   0.795
 2671TIP3   OH229575   5.209   4.614   1.331
 2671TIP3    H129576   5.195   4.708   1.347
 2671TIP3    H229577   5.226   4.578   1.418
 2672TIP3   OH229578   5.945   1.279   0.589
 2672TIP3    H129579   5.929   1.235   0.506
 2672TIP3    H229580   6.026   1.240   0.622
 2673TIP3   OH229581   4.926   6.622   2.059
 2673TIP3    H129582   4.944   6.684   1.988
 2673TIP3    H229583   4.911   6.678   2.135
 2674TIP3   OH229584   1.487   4.729   0.994
 2674TIP3    H129585   1.419   4.663   1.000
 2674TIP3    H229586   1.569   4.680   1.001
 2675TIP3   OH229587   6.996   5.780   0.064
 2675TIP3    H129588   6.993   5.857   0.120
 2675TIP3    H229589   6.966   5.708   0.121
 2676TIP3   OH229590   5.215   2.231   0.381
 2676TIP3    H129591   5.308   2.226   0.400
 2676TIP3    H229592   5.209   2.295   0.310
 2677TIP3   OH229593   2.311   2.259   6.420
 2677TIP3    H129594   2.312   2.169   6.389
 2677TIP3    H229595   2.242   2.302   6.369
 2678TIP3   OH229596   2.524   3.220   6.771
 2678TIP3    H129597   2.565   3.299   6.737
 2678TIP3    H229598   2.523   3.232   6.866
 2679TIP3   OH229599   4.267   3.371   0.771
 2679TIP3    H129600   4.355   3.391   0.741
 2679TIP3    H229601   4.279   3.308   0.842
 2680TIP3   OH229602   6.442   0.484   0.466
 2680TIP3    H129603   6.431   0.393   0.439
 2680TIP3    H229604   6.493   0.524   0.396
 2681TIP3   OH229605   5.170   3.304   1.389
 2681TIP3    H129606   5.123   3.379   1.425
 2681TIP3    H229607   5.239   3.286   1.454
 2682TIP3   OH229608   0.091   6.384   7.792
 2682TIP3    H129609   0.108   6.427   7.708
 2682TIP3    H229610   0.140   6.301   7.786
 2683TIP3   OH229611   5.798   4.208   1.472
 2683TIP3    H129612   5.725   4.228   1.530
 2683TIP3    H229613   5.822   4.291   1.433
 2684TIP3   OH229614   0.282   1.855   1.576
 2684TIP3    H129615   0.202   1.804   1.588
 2684TIP3    H229616   0.271   1.931   1.634
 2685TIP3   OH229617   6.168   3.403   6.446
 2685TIP3    H129618   6.098   3.446   6.397
 2685TIP3    H229619   6.150   3.310   6.439
 2686TIP3   OH229620   2.083   2.066   6.862
 2686TIP3    H129621   2.133   1.984   6.868
 2686TIP3    H229622   2.098   2.097   6.773
 2687TIP3   OH229623   4.604   3.845   7.322
 2687TIP3    H129624   4.514   3.816   7.310
 2687TIP3    H229625   4.645   3.831   7.236
 2688TIP3   OH229626   1.514   0.207   7.550
 2688TIP3    H129627   1.453   0.255   7.607
 2688TIP3    H229628   1.466   0.127   7.527
 2689TIP3   OH229629   1.289   4.883   7.405
 2689TIP3    H129630   1.364   4.844   7.359
 2689TIP3    H229631   1.327   4.955   7.456
 2690TIP3   OH229632   3.335   5.020   7.600
 2690TIP3    H129633   3.288   5.026   7.517
 2690TIP3    H229634   3.412   5.075   7.587
 2691TIP3   OH229635   0.228   5.915   0.268
 2691TIP3    H129636   0.215   5.904   0.362
 2691TIP3    H229637   0.148   5.956   0.237
 2692TIP3   OH229638   0.822   5.760   6.538
 2692TIP3    H129639   0.799   5.734   6.627
 2692TIP3    H229640   0.884   5.692   6.509
 2693TIP3   OH229641   5.004   4.030   1.190
 2693TIP3    H129642   5.087   4.056   1.151
 2693TIP3    H229643   5.024   3.948   1.236
 2694TIP3   OH229644   5.115   1.426   0.118
 2694TIP3    H129645   5.122   1.406   0.024
 2694TIP3    H229646   5.044   1.489   0.124
 2695TIP3   OH229647   2.273   0.703   1.335
 2695TIP3    H129648   2.304   0.792   1.352
 2695TIP3    H229649   2.225   0.710   1.253
 2696TIP3   OH229650   6.240   0.586   1.538
 2696TIP3    H129651   6.176   0.549   1.599
 2696TIP3    H229652   6.224   0.540   1.456
 2697TIP3   OH229653   2.893   4.944   0.389
 2697TIP3    H129654   2.877   4.943   0.483
 2697TIP3    H229655   2.963   4.880   0.376
 2698TIP3   OH229656   1.146   2.138   8.334
 2698TIP3    H129657   1.064   2.134   8.383
 2698TIP3    H229658   1.151   2.055   8.287
 2699TIP3   OH229659   2.913   1.598   1.071
 2699TIP3    H129660   2.943   1.541   1.141
 2699TIP3    H229661   2.989   1.611   1.015
 2700TIP3   OH229662   0.773   3.112   1.115
 2700TIP3    H129663   0.756   3.018   1.123
 2700TIP3    H229664   0.739   3.149   1.197
 2701TIP3   OH229665   5.925   4.672   7.730
 2701TIP3    H129666   5.890   4.668   7.641
 2701TIP3    H229667   5.893   4.592   7.772
 2702TIP3   OH229668   2.866   3.699   6.694
 2702TIP3    H129669   2.837   3.702   6.603
 2702TIP3    H229670   2.886   3.790   6.717
 2703TIP3   OH229671   5.040   3.458   1.699
 2703TIP3    H129672   4.996   3.377   1.676
 2703TIP3    H229673   5.074   3.442   1.787
 2704TIP3   OH229674   6.921   0.716   7.328
 2704TIP3    H129675   6.921   0.727   7.423
 2704TIP3    H229676   7.013   0.711   7.305
 2705TIP3   OH229677   4.697   6.088   0.924
 2705TIP3    H129678   4.757   6.072   0.850
 2705TIP3    H229679   4.722   6.022   0.989
 2706TIP3   OH229680   6.915   2.103   1.563
 2706TIP3    H129681   6.916   2.009   1.577
 2706TIP3    H229682   7.004   2.131   1.584
 2707TIP3   OH229683   3.806   5.116   6.687
 2707TIP3    H129684   3.874   5.049   6.678
 2707TIP3    H229685   3.848   5.186   6.736
 2708TIP3   OH229686   1.578   6.339   2.083
 2708TIP3    H129687   1.641   6.272   2.108
 2708TIP3    H229688   1.562   6.324   1.989
 2709TIP3   OH229689   1.716   4.473   7.174
 2709TIP3    H129690   1.725   4.505   7.085
 2709TIP3    H229691   1.627   4.499   7.200
 2710TIP3   OH229692   6.031   5.352   2.026
 2710TIP3    H129693   6.105   5.301   1.994
 2710TIP3    H229694   6.033   5.433   1.974
 2711TIP3   OH229695   5.842   1.104   2.197
 2711TIP3    H129696   5.879   1.027   2.241
 2711TIP3    H229697   5.884   1.178   2.241
 2712TIP3   OH229698   6.043   0.635   8.256
 2712TIP3    H129699   6.098   0.609   8.182
 2712TIP3    H229700   6.037   0.730   8.249
 2713TIP3   OH229701   4.913   5.882   1.601
 2713TIP3    H129702   4.923   5.949   1.534
 2713TIP3    H229703   4.882   5.804   1.554
 2714TIP3   OH229704   2.630   3.139   1.454
 2714TIP3    H129705   2.616   3.070   1.518
 2714TIP3    H229706   2.595   3.218   1.496
 2715TIP3   OH229707   3.282   2.518   7.173
 2715TIP3    H129708   3.193   2.483   7.166
 2715TIP3    H229709   3.288   2.581   7.102
 2716TIP3   OH229710   1.822   3.724   0.184
 2716TIP3    H129711   1.884   3.652   0.191
 2716TIP3    H229712   1.876   3.802   0.177
 2717TIP3   OH229713   3.561   1.188   0.082
 2717TIP3    H129714   3.642   1.212   0.127
 2717TIP3    H229715   3.504   1.265   0.094
 2718TIP3   OH229716   2.382   4.499   7.733
 2718TIP3    H129717   2.474   4.473   7.730
 2718TIP3    H229718   2.381   4.575   7.791
 2719TIP3   OH229719   2.365   6.604   1.757
 2719TIP3    H129720   2.351   6.593   1.851
 2719TIP3    H229721   2.442   6.661   1.751
 2720TIP3   OH229722   5.270   2.958   7.863
 2720TIP3    H129723   5.242   2.952   7.772
 2720TIP3    H229724   5.365   2.967   7.858
 2721TIP3   OH229725   2.373   0.401   0.979
 2721TIP3    H129726   2.351   0.348   0.902
 2721TIP3    H229727   2.389   0.488   0.943
 2722TIP3   OH229728   1.066   5.293   2.037
 2722TIP3    H129729   1.106   5.253   1.960
 2722TIP3    H229730   0.972   5.293   2.018
 2723TIP3   OH229731   2.096   5.028   1.992
 2723TIP3    H129732   2.111   4.934   2.004
 2723TIP3    H229733   2.007   5.041   2.025
 2724TIP3   OH229734   1.599   6.041   1.352
 2724TIP3    H129735   1.599   6.106   1.282
 2724TIP3    H229736   1.552   6.083   1.424
 2725TIP3   OH229737   0.931   6.360   8.303
 2725TIP3    H129738   0.875   6.418   8.250
 2725TIP3    H229739   1.019   6.376   8.271
 2726TIP3   OH229740   4.067   1.127   1.267
 2726TIP3    H129741   4.006   1.076   1.320
 2726TIP3    H229742   4.153   1.093   1.292
 2727TIP3   OH229743   4.002   2.819   6.387
 2727TIP3    H129744   4.083   2.822   6.336
 2727TIP3    H229745   3.967   2.732   6.372
 2728TIP3   OH229746   5.759   4.215   7.646
 2728TIP3    H129747   5.741   4.138   7.592
 2728TIP3    H229748   5.677   4.265   7.646
 2729TIP3   OH229749   0.523   0.557   5.931
 2729TIP3    H129750   0.459   0.493   5.899
 2729TIP3    H229751   0.599   0.505   5.954
 2730TIP3   OH229752   5.957   3.059   6.874
 2730TIP3    H129753   5.938   3.145   6.836
 2730TIP3    H229754   6.052   3.052   6.872
 2731TIP3   OH229755   1.579   3.879   7.188
 2731TIP3    H129756   1.554   3.868   7.279
 2731TIP3    H229757   1.512   3.832   7.138
 2732TIP3   OH229758   6.741   5.307   6.894
 2732TIP3    H129759   6.771   5.286   6.806
 2732TIP3    H229760   6.783   5.390   6.915
 2733TIP3   OH229761   6.325   3.412   2.240
 2733TIP3    H129762   6.284   3.498   2.232
 2733TIP3    H229763   6.416   3.426   2.217
 2734TIP3   OH229764   0.721   0.817   7.111
 2734TIP3    H129765   0.738   0.733   7.067
 2734TIP3    H229766   0.808   0.855   7.124
 2735TIP3   OH229767   1.074   4.848   0.887
 2735TIP3    H129768   0.997   4.899   0.911
 2735TIP3    H229769   1.051   4.806   0.804
 2736TIP3   OH229770   1.804   1.709   7.661
 2736TIP3    H129771   1.783   1.767   7.734
 2736TIP3    H229772   1.770   1.754   7.584
 2737TIP3   OH229773   1.666   6.232   7.769
 2737TIP3    H129774   1.655   6.210   7.862
 2737TIP3    H229775   1.580   6.216   7.730
 2738TIP3   OH229776   3.526   2.312   0.468
 2738TIP3    H129777   3.496   2.292   0.557
 2738TIP3    H229778   3.526   2.227   0.424
 2739TIP3   OH229779   6.320   4.449   8.164
 2739TIP3    H129780   6.311   4.542   8.184
 2739TIP3    H229781   6.240   4.427   8.117
 2740TIP3   OH229782   2.157   1.785   2.075
 2740TIP3    H129783   2.221   1.784   2.004
 2740TIP3    H229784   2.206   1.755   2.152
 2741TIP3   OH229785   4.802   4.160   1.316
 2741TIP3    H129786   4.876   4.115   1.274
 2741TIP3    H229787   4.726   4.109   1.289
 2742TIP3   OH229788   6.495   3.304   1.172
 2742TIP3    H129789   6.492   3.392   1.210
 2742TIP3    H229790   6.416   3.261   1.205
 2743TIP3   OH229791   3.281   4.572   7.673
 2743TIP3    H129792   3.201   4.537   7.634
 2743TIP3    H229793   3.268   4.563   7.767
 2744TIP3   OH229794   4.641   1.177   6.939
 2744TIP3    H129795   4.602   1.252   6.893
 2744TIP3    H229796   4.578   1.106   6.927
 2745TIP3   OH229797   1.685   5.118   1.242
 2745TIP3    H129798   1.768   5.150   1.209
 2745TIP3    H229799   1.707   5.069   1.321
 2746TIP3   OH229800   6.053   6.297   0.749
 2746TIP3    H129801   6.082   6.315   0.838
 2746TIP3    H229802   6.113   6.229   0.717
 2747TIP3   OH229803   4.967   1.248   7.598
 2747TIP3    H129804   4.981   1.342   7.604
 2747TIP3    H229805   5.055   1.212   7.588
 2748TIP3   OH229806   1.003   1.130   0.172
 2748TIP3    H129807   0.988   1.149   0.080
 2748TIP3    H229808   1.041   1.211   0.207
 2749TIP3   OH229809   4.564   5.404   7.803
 2749TIP3    H129810   4.575   5.311   7.785
 2749TIP3    H229811   4.528   5.440   7.723
 2750TIP3   OH229812   4.460   2.993   7.025
 2750TIP3    H129813   4.392   2.927   7.038
 2750TIP3    H229814   4.537   2.943   6.999
 2751TIP3   OH229815   0.792   0.836   6.347
 2751TIP3    H129816   0.769   0.897   6.276
 2751TIP3    H229817   0.825   0.758   6.303
 2752TIP3   OH229818   0.177   6.623   1.781
 2752TIP3    H129819   0.173   6.529   1.796
 2752TIP3    H229820   0.271   6.642   1.776
 2753TIP3   OH229821   6.805   1.519   7.024
 2753TIP3    H129822   6.817   1.586   7.091
 2753TIP3    H229823   6.887   1.469   7.025
 2754TIP3   OH229824   0.938   0.746   0.770
 2754TIP3    H129825   0.991   0.725   0.847
 2754TIP3    H229826   0.852   0.767   0.804
 2755TIP3   OH229827   3.863   5.613   6.592
 2755TIP3    H129828   3.810   5.560   6.532
 2755TIP3    H229829   3.854   5.703   6.558
 2756TIP3   OH229830   5.261   0.999   1.392
 2756TIP3    H129831   5.249   0.987   1.298
 2756TIP3    H229832   5.322   1.072   1.399
 2757TIP3   OH229833   0.069   1.140   8.135
 2757TIP3    H129834  -0.016   1.109   8.168
 2757TIP3    H229835   0.073   1.231   8.164
 2758TIP3   OH229836   3.168   4.875   1.792
 2758TIP3    H129837   3.158   4.843   1.882
 2758TIP3    H229838   3.167   4.970   1.801
 2759TIP3   OH229839   4.428   0.668   0.736
 2759TIP3    H129840   4.411   0.585   0.691
 2759TIP3    H229841   4.376   0.663   0.816
 2760TIP3   OH229842   1.474   4.275   1.877
 2760TIP3    H129843   1.527   4.354   1.871
 2760TIP3    H229844   1.410   4.293   1.945
 2761TIP3   OH229845   4.168   2.181   1.978
 2761TIP3    H129846   4.078   2.184   1.945
 2761TIP3    H229847   4.169   2.107   2.038
 2762TIP3   OH229848   1.318   4.248   1.342
 2762TIP3    H129849   1.292   4.257   1.434
 2762TIP3    H229850   1.266   4.175   1.309
 2763TIP3   OH229851   6.168   0.921   1.251
 2763TIP3    H129852   6.142   0.914   1.159
 2763TIP3    H229853   6.087   0.905   1.300
 2764TIP3   OH229854   2.440   0.096   6.767
 2764TIP3    H129855   2.492   0.163   6.723
 2764TIP3    H229856   2.466   0.101   6.859
 2765TIP3   OH229857   1.357   4.015   6.595
 2765TIP3    H129858   1.424   3.948   6.580
 2765TIP3    H229859   1.329   4.042   6.508
 2766TIP3   OH229860   3.896   0.757   1.834
 2766TIP3    H129861   3.943   0.828   1.877
 2766TIP3    H229862   3.953   0.730   1.762
 2767TIP3   OH229863   0.205   0.014   1.173
 2767TIP3    H129864   0.201  -0.078   1.147
 2767TIP3    H229865   0.114   0.039   1.190
 2768TIP3   OH229866   3.793   1.651   7.285
 2768TIP3    H129867   3.841   1.612   7.212
 2768TIP3    H229868   3.860   1.701   7.332
 2769TIP3   OH229869   0.267   2.919   7.880
 2769TIP3    H129870   0.321   2.845   7.855
 2769TIP3    H229871   0.329   2.992   7.888
 2770TIP3   OH229872   5.276   1.628   0.198
 2770TIP3    H129873   5.252   1.702   0.141
 2770TIP3    H229874   5.224   1.555   0.165
 2771TIP3   OH229875   5.524   0.331   8.243
 2771TIP3    H129876   5.569   0.370   8.168
 2771TIP3    H229877   5.482   0.253   8.208
 2772TIP3   OH229878   4.445   3.019   7.900
 2772TIP3    H129879   4.510   3.073   7.945
 2772TIP3    H229880   4.418   3.072   7.824
 2773TIP3   OH229881   1.646   2.400   1.218
 2773TIP3    H129882   1.585   2.453   1.168
 2773TIP3    H229883   1.690   2.346   1.153
 2774TIP3   OH229884   1.667   3.538   6.576
 2774TIP3    H129885   1.650   3.466   6.514
 2774TIP3    H229886   1.756   3.523   6.605
 2775TIP3   OH229887   1.770   0.693   6.259
 2775TIP3    H129888   1.701   0.751   6.230
 2775TIP3    H229889   1.785   0.634   6.185
 2776TIP3   OH229890   5.657   5.244   7.032
 2776TIP3    H129891   5.704   5.272   7.111
 2776TIP3    H229892   5.699   5.162   7.008
 2777TIP3   OH229893   2.836   6.699   7.107
 2777TIP3    H129894   2.878   6.625   7.151
 2777TIP3    H229895   2.763   6.723   7.165
 2778TIP3   OH229896   5.200   3.461   0.640
 2778TIP3    H129897   5.230   3.532   0.697
 2778TIP3    H229898   5.211   3.382   0.694
 2779TIP3   OH229899   2.870   1.547   8.217
 2779TIP3    H129900   2.828   1.462   8.202
 2779TIP3    H229901   2.798   1.610   8.212
 2780TIP3   OH229902   6.643   3.680   8.174
 2780TIP3    H129903   6.720   3.622   8.168
 2780TIP3    H229904   6.646   3.731   8.093
 2781TIP3   OH229905   6.717   1.809   0.416
 2781TIP3    H129906   6.677   1.813   0.329
 2781TIP3    H229907   6.664   1.745   0.463
 2782TIP3   OH229908   0.264   1.449   8.082
 2782TIP3    H129909   0.216   1.480   8.005
 2782TIP3    H229910   0.301   1.365   8.054
 2783TIP3   OH229911   0.908   5.798   1.891
 2783TIP3    H129912   0.853   5.874   1.909
 2783TIP3    H229913   0.947   5.775   1.975
 2784TIP3   OH229914   0.236   1.920   2.409
 2784TIP3    H129915   0.204   1.839   2.371
 2784TIP3    H229916   0.288   1.893   2.485
 2785TIP3   OH229917   6.322   5.318   1.543
 2785TIP3    H129918   6.414   5.339   1.523
 2785TIP3    H229919   6.284   5.400   1.573
 2786TIP3   OH229920   4.648   0.020   0.799
 2786TIP3    H129921   4.573   0.044   0.744
 2786TIP3    H229922   4.640  -0.076   0.808
 2787TIP3   OH229923   6.575   4.661   0.320
 2787TIP3    H129924   6.581   4.575   0.361
 2787TIP3    H229925   6.483   4.687   0.332
 2788TIP3   OH229926   3.983   3.677   7.755
 2788TIP3    H129927   3.986   3.763   7.715
 2788TIP3    H229928   3.974   3.694   7.849
 2789TIP3   OH229929   5.646   3.098   1.268
 2789TIP3    H129930   5.560   3.060   1.287
 2789TIP3    H229931   5.657   3.085   1.174
 2790TIP3   OH229932   0.155   5.529   7.752
 2790TIP3    H129933   0.075   5.523   7.804
 2790TIP3    H229934   0.180   5.621   7.756
 2791TIP3   OH229935   1.900   6.940   6.734
 2791TIP3    H129936   1.914   6.949   6.828
 2791TIP3    H229937   1.984   6.964   6.694
 2792TIP3   OH229938   0.484   5.609   0.431
 2792TIP3    H129939   0.495   5.633   0.523
 2792TIP3    H229940   0.552   5.659   0.385
 2793TIP3   OH229941   0.156   6.699   7.100
 2793TIP3    H129942   0.102   6.639   7.151
 2793TIP3    H229943   0.243   6.695   7.141
 2794TIP3   OH229944   6.512   6.328   8.178
 2794TIP3    H129945   6.424   6.354   8.208
 2794TIP3    H229946   6.532   6.389   8.108
 2795TIP3   OH229947   1.238   1.086   1.515
 2795TIP3    H129948   1.199   1.012   1.562
 2795TIP3    H229949   1.185   1.161   1.540
 2796TIP3   OH229950   5.071   1.438   0.725
 2796TIP3    H129951   5.137   1.453   0.793
 2796TIP3    H229952   5.037   1.525   0.706
 2797TIP3   OH229953   6.784   2.017   0.031
 2797TIP3    H129954   6.727   2.065  -0.029
 2797TIP3    H229955   6.792   2.075   0.107
 2798TIP3   OH229956   4.770   2.874   6.382
 2798TIP3    H129957   4.721   2.797   6.353
 2798TIP3    H229958   4.860   2.855   6.357
 2799TIP3   OH229959   0.437   6.856   0.799
 2799TIP3    H129960   0.383   6.832   0.724
 2799TIP3    H229961   0.467   6.773   0.835
 2800TIP3   OH229962   4.164   1.940   2.178
 2800TIP3    H129963   4.241   1.896   2.141
 2800TIP3    H229964   4.106   1.869   2.205
 2801TIP3   OH229965   6.258   5.060   1.550
 2801TIP3    H129966   6.308   5.033   1.627
 2801TIP3    H229967   6.265   5.155   1.549
 2802TIP3   OH229968   0.286   5.219   6.755
 2802TIP3    H129969   0.359   5.215   6.817
 2802TIP3    H229970   0.258   5.128   6.745
 2803TIP3   OH229971   4.473   6.215   1.383
 2803TIP3    H129972   4.488   6.123   1.407
 2803TIP3    H229973   4.379   6.221   1.372
 2804TIP3   OH229974   1.432   2.739   2.321
 2804TIP3    H129975   1.347   2.695   2.319
 2804TIP3    H229976   1.411   2.833   2.322
 2805TIP3   OH229977   5.470   3.779   8.149
 2805TIP3    H129978   5.474   3.873   8.168
 2805TIP3    H229979   5.462   3.773   8.054
 2806TIP3   OH229980   5.134   5.109   7.892
 2806TIP3    H129981   5.205   5.057   7.930
 2806TIP3    H229982   5.073   5.044   7.857
 2807TIP3   OH229983   4.660   5.416   7.098
 2807TIP3    H129984   4.659   5.322   7.116
 2807TIP3    H229985   4.584   5.431   7.041
 2808TIP3   OH229986   3.274   3.816   2.283
 2808TIP3    H129987   3.363   3.843   2.306
 2808TIP3    H229988   3.259   3.854   2.196
 2809TIP3   OH229989   5.483   0.896   6.865
 2809TIP3    H129990   5.444   0.857   6.944
 2809TIP3    H229991   5.523   0.823   6.819
 2810TIP3   OH229992   2.984   5.464   0.855
 2810TIP3    H129993   3.076   5.455   0.831
 2810TIP3    H229994   2.966   5.558   0.845
 2811TIP3   OH229995   4.756   2.307   0.250
 2811TIP3    H129996   4.831   2.365   0.236
 2811TIP3    H229997   4.730   2.323   0.340
 2812TIP3   OH229998   2.934   2.429   0.044
 2812TIP3    H129999   3.009   2.385   0.084
 2812TIP3    H230000   2.914   2.501   0.103
 2813TIP3   OH230001   4.560   3.381   0.724
 2813TIP3    H130002   4.598   3.403   0.809
 2813TIP3    H230003   4.578   3.288   0.713
 2814TIP3   OH230004   3.217   2.687   1.104
 2814TIP3    H130005   3.250   2.722   1.021
 2814TIP3    H230006   3.125   2.665   1.086
 2815TIP3   OH230007   6.429   5.629   7.748
 2815TIP3    H130008   6.480   5.630   7.829
 2815TIP3    H230009   6.354   5.685   7.767
 2816TIP3   OH230010   4.772   4.057   0.646
 2816TIP3    H130011   4.861   4.032   0.670
 2816TIP3    H230012   4.774   4.070   0.551
 2817TIP3   OH230013   0.138   3.769   0.335
 2817TIP3    H130014   0.064   3.743   0.390
 2817TIP3    H230015   0.104   3.768   0.246
 2818TIP3   OH230016   4.572   3.919   1.822
 2818TIP3    H130017   4.552   3.966   1.902
 2818TIP3    H230018   4.491   3.923   1.771
 2819TIP3   OH230019   3.875   5.994   1.826
 2819TIP3    H130020   3.787   5.992   1.789
 2819TIP3    H230021   3.862   5.998   1.920
 2820TIP3   OH230022   4.160   1.683   6.736
 2820TIP3    H130023   4.105   1.634   6.797
 2820TIP3    H230024   4.123   1.771   6.736
 2821TIP3   OH230025   3.148   5.655   7.570
 2821TIP3    H130026   3.180   5.673   7.481
 2821TIP3    H230027   3.083   5.723   7.586
 2822TIP3   OH230028   2.361   1.992   1.995
 2822TIP3    H130029   2.394   1.981   1.906
 2822TIP3    H230030   2.285   2.050   1.985
 2823TIP3   OH230031   4.610   2.417   7.203
 2823TIP3    H130032   4.582   2.337   7.157
 2823TIP3    H230033   4.667   2.461   7.140
 2824TIP3   OH230034   5.159   5.673   1.513
 2824TIP3    H130035   5.170   5.768   1.506
 2824TIP3    H230036   5.076   5.655   1.469
 2825TIP3   OH230037   3.982   2.509   0.671
 2825TIP3    H130038   4.062   2.554   0.642
 2825TIP3    H230039   3.950   2.562   0.745
 2826TIP3   OH230040   6.902   4.490   1.033
 2826TIP3    H130041   6.961   4.450   1.097
 2826TIP3    H230042   6.819   4.500   1.080
 2827TIP3   OH230043   4.978   5.784   6.163
 2827TIP3    H130044   4.921   5.833   6.105
 2827TIP3    H230045   4.968   5.693   6.136
 2828TIP3   OH230046   2.184   5.164   1.773
 2828TIP3    H130047   2.151   5.133   1.857
 2828TIP3    H230048   2.146   5.104   1.709
 2829TIP3   OH230049   6.397   2.863   8.060
 2829TIP3    H130050   6.389   2.861   7.964
 2829TIP3    H230051   6.483   2.824   8.077
 2830TIP3   OH230052   2.510   5.061   7.042
 2830TIP3    H130053   2.501   4.986   6.983
 2830TIP3    H230054   2.586   5.108   7.009
 2831TIP3   OH230055   4.733   0.687   1.593
 2831TIP3    H130056   4.735   0.647   1.680
 2831TIP3    H230057   4.799   0.756   1.596
 2832TIP3   OH230058   3.481   6.883   7.197
 2832TIP3    H130059   3.392   6.848   7.200
 2832TIP3    H230060   3.527   6.838   7.268
 2833TIP3   OH230061   1.781   4.829   0.552
 2833TIP3    H130062   1.869   4.829   0.515
 2833TIP3    H230063   1.752   4.738   0.548
 2834TIP3   OH230064   1.453   5.206   7.960
 2834TIP3    H130065   1.528   5.257   7.931
 2834TIP3    H230066   1.483   5.115   7.956
 2835TIP3   OH230067   0.669   4.385   0.595
 2835TIP3    H130068   0.636   4.298   0.576
 2835TIP3    H230069   0.765   4.376   0.591
 2836TIP3   OH230070   3.501   6.731   1.498
 2836TIP3    H130071   3.555   6.698   1.427
 2836TIP3    H230072   3.557   6.726   1.575
 2837TIP3   OH230073   4.836   3.167   1.195
 2837TIP3    H130074   4.880   3.235   1.145
 2837TIP3    H230075   4.860   3.185   1.286
 2838TIP3   OH230076   2.104   1.263   0.165
 2838TIP3    H130077   2.046   1.223   0.230
 2838TIP3    H230078   2.191   1.231   0.187
 2839TIP3   OH230079   1.263   4.680   6.746
 2839TIP3    H130080   1.269   4.776   6.749
 2839TIP3    H230081   1.181   4.663   6.701
 2840TIP3   OH230082   1.543   1.348   7.810
 2840TIP3    H130083   1.468   1.399   7.840
 2840TIP3    H230084   1.522   1.258   7.836
 2841TIP3   OH230085   4.570   5.706   5.951
 2841TIP3    H130086   4.491   5.661   5.982
 2841TIP3    H230087   4.537   5.784   5.907
 2842TIP3   OH230088   4.243   3.318   7.405
 2842TIP3    H130089   4.283   3.311   7.318
 2842TIP3    H230090   4.197   3.402   7.404
 2843TIP3   OH230091   2.810   5.186   2.063
 2843TIP3    H130092   2.752   5.233   2.003
 2843TIP3    H230093   2.883   5.247   2.077
 2844TIP3   OH230094   6.659   3.135   0.546
 2844TIP3    H130095   6.592   3.201   0.562
 2844TIP3    H230096   6.617   3.072   0.488
 2845TIP3   OH230097   2.527   0.979   1.613
 2845TIP3    H130098   2.558   0.897   1.575
 2845TIP3    H230099   2.467   0.953   1.683
 2846TIP3   OH230100   1.428   0.934   6.719
 2846TIP3    H130101   1.461   0.866   6.777
 2846TIP3    H230102   1.343   0.902   6.690
 2847TIP3   OH230103   0.176   3.466   8.213
 2847TIP3    H130104   0.222   3.510   8.284
 2847TIP3    H230105   0.185   3.526   8.138
 2848TIP3   OH230106   4.246   5.878   6.118
 2848TIP3    H130107   4.291   5.955   6.083
 2848TIP3    H230108   4.153   5.897   6.105
 2849TIP3   OH230109   1.903   1.822   1.487
 2849TIP3    H130110   1.978   1.825   1.546
 2849TIP3    H230111   1.828   1.843   1.542
 2850TIP3   OH230112   6.766   0.081   0.411
 2850TIP3    H130113   6.731   0.122   0.490
 2850TIP3    H230114   6.781   0.153   0.350
 2851TIP3   OH230115   5.594   0.255   0.097
 2851TIP3    H130116   5.573   0.300   0.015
 2851TIP3    H230117   5.569   0.164   0.080
 2852TIP3   OH230118   6.462   2.885   1.094
 2852TIP3    H130119   6.407   2.962   1.078
 2852TIP3    H230120   6.436   2.822   1.025
 2853TIP3   OH230121   1.440   1.572   0.502
 2853TIP3    H130122   1.469   1.481   0.506
 2853TIP3    H230123   1.360   1.569   0.450
 2854TIP3   OH230124   0.804   5.682   6.805
 2854TIP3    H130125   0.740   5.618   6.834
 2854TIP3    H230126   0.766   5.767   6.828
 2855TIP3   OH230127   5.192   2.965   1.184
 2855TIP3    H130128   5.136   2.893   1.212
 2855TIP3    H230129   5.237   2.932   1.106
 2856TIP3   OH230130   6.094   5.023   1.083
 2856TIP3    H130131   6.119   4.941   1.040
 2856TIP3    H230132   6.082   4.999   1.174
 2857TIP3   OH230133   4.093   5.466   0.714
 2857TIP3    H130134   4.109   5.410   0.638
 2857TIP3    H230135   4.147   5.543   0.699
 2858TIP3   OH230136   4.822   1.284   6.661
 2858TIP3    H130137   4.752   1.336   6.623
 2858TIP3    H230138   4.880   1.264   6.587
 2859TIP3   OH230139   5.673   3.616   6.930
 2859TIP3    H130140   5.618   3.638   7.005
 2859TIP3    H230141   5.761   3.606   6.967
 2860TIP3   OH230142   5.977   3.077   0.455
 2860TIP3    H130143   5.989   3.169   0.480
 2860TIP3    H230144   5.913   3.080   0.384
 2861TIP3   OH230145   4.400   0.239   8.022
 2861TIP3    H130146   4.330   0.188   8.062
 2861TIP3    H230147   4.376   0.330   8.036
 2862TIP3   OH230148   0.157   0.575   0.116
 2862TIP3    H130149   0.120   0.492   0.086
 2862TIP3    H230150   0.244   0.552   0.148
 2863TIP3   OH230151   3.416   0.150   6.393
 2863TIP3    H130152   3.487   0.139   6.455
 2863TIP3    H230153   3.457   0.190   6.316
 2864TIP3   OH230154   6.617   2.746   0.288
 2864TIP3    H130155   6.606   2.652   0.279
 2864TIP3    H230156   6.706   2.763   0.258
 2865TIP3   OH230157   6.462   4.671   6.657
 2865TIP3    H130158   6.458   4.576   6.667
 2865TIP3    H230159   6.470   4.704   6.747
 2866TIP3   OH230160   1.239   0.941   6.153
 2866TIP3    H130161   1.224   1.018   6.207
 2866TIP3    H230162   1.153   0.900   6.142
 2867TIP3   OH230163   1.235   3.603   0.832
 2867TIP3    H130164   1.182   3.671   0.792
 2867TIP3    H230165   1.303   3.584   0.767
 2868TIP3   OH230166   5.409   2.995   1.380
 2868TIP3    H130167   5.339   2.992   1.315
 2868TIP3    H230168   5.370   2.958   1.459
 2869TIP3   OH230169   3.094   0.417   0.916
 2869TIP3    H130170   3.098   0.511   0.937
 2869TIP3    H230171   3.014   0.387   0.959
 2870TIP3   OH230172   1.565   6.214   0.206
 2870TIP3    H130173   1.472   6.213   0.228
 2870TIP3    H230174   1.575   6.290   0.148
 2871TIP3   OH230175   1.548   2.151   7.745
 2871TIP3    H130176   1.589   2.067   7.768
 2871TIP3    H230177   1.544   2.151   7.650
 2872TIP3   OH230178   4.310   0.787   6.039
 2872TIP3    H130179   4.253   0.864   6.045
 2872TIP3    H230180   4.260   0.717   6.079
 2873TIP3   OH230181   4.502   2.398   1.961
 2873TIP3    H130182   4.523   2.478   2.008
 2873TIP3    H230183   4.582   2.346   1.964
 2874TIP3   OH230184   3.212   5.820   7.345
 2874TIP3    H130185   3.132   5.826   7.294
 2874TIP3    H230186   3.230   5.910   7.373
 2875TIP3   OH230187   4.464   2.834   6.499
 2875TIP3    H130188   4.452   2.808   6.590
 2875TIP3    H230189   4.400   2.904   6.485
 2876TIP3   OH230190   0.769   0.978   6.122
 2876TIP3    H130191   0.782   1.068   6.091
 2876TIP3    H230192   0.675   0.965   6.116
 2877TIP3   OH230193   4.010   5.411   0.979
 2877TIP3    H130194   4.030   5.419   0.886
 2877TIP3    H230195   3.914   5.416   0.983
 2878TIP3   OH230196   2.708   6.634   0.607
 2878TIP3    H130197   2.646   6.675   0.547
 2878TIP3    H230198   2.757   6.572   0.553
 2879TIP3   OH230199   3.870   6.481   8.398
 2879TIP3    H130200   3.796   6.478   8.337
 2879TIP3    H230201   3.880   6.391   8.428
 2880TIP3   OH230202   2.200   0.097   1.603
 2880TIP3    H130203   2.154   0.119   1.522
 2880TIP3    H230204   2.178   0.168   1.664
 2881TIP3   OH230205   2.066   1.936   7.922
 2881TIP3    H130206   2.066   1.998   7.849
 2881TIP3    H230207   2.114   1.981   7.991
 2882TIP3   OH230208   3.310   0.243   5.793
 2882TIP3    H130209   3.366   0.310   5.753
 2882TIP3    H230210   3.359   0.215   5.871
 2883TIP3   OH230211   6.664   0.778   7.215
 2883TIP3    H130212   6.653   0.873   7.219
 2883TIP3    H230213   6.746   0.762   7.263
 2884TIP3   OH230214   2.241   1.896   0.613
 2884TIP3    H130215   2.220   1.932   0.526
 2884TIP3    H230216   2.158   1.897   0.660
 2885TIP3   OH230217   1.900   3.759   6.557
 2885TIP3    H130218   1.821   3.766   6.610
 2885TIP3    H230219   1.940   3.677   6.584
 2886TIP3   OH230220   4.822   5.615   8.186
 2886TIP3    H130221   4.731   5.623   8.215
 2886TIP3    H230222   4.858   5.703   8.194
 2887TIP3   OH230223   2.337   5.137   8.170
 2887TIP3    H130224   2.249   5.170   8.151
 2887TIP3    H230225   2.356   5.171   8.258
 2888TIP3   OH230226   1.568   3.223   7.651
 2888TIP3    H130227   1.611   3.271   7.722
 2888TIP3    H230228   1.604   3.135   7.656
 2889TIP3   OH230229   4.782   1.745   8.287
 2889TIP3    H130230   4.844   1.813   8.262
 2889TIP3    H230231   4.766   1.760   8.380
 2890TIP3   OH230232   0.271   4.710   2.742
 2890TIP3    H130233   0.226   4.688   2.660
 2890TIP3    H230234   0.343   4.767   2.716
 2891TIP3   OH230235   2.694   6.348   1.766
 2891TIP3    H130236   2.788   6.364   1.780
 2891TIP3    H230237   2.679   6.262   1.805
 2892TIP3   OH230238   2.710   1.670   0.633
 2892TIP3    H130239   2.722   1.762   0.612
 2892TIP3    H230240   2.625   1.647   0.596
 2893TIP3   OH230241   4.284   5.323   1.981
 2893TIP3    H130242   4.296   5.385   2.053
 2893TIP3    H230243   4.226   5.256   2.017
 2894TIP3   OH230244   1.401   4.610   2.043
 2894TIP3    H130245   1.447   4.630   1.961
 2894TIP3    H230246   1.426   4.681   2.102
 2895TIP3   OH230247   0.945   1.830   8.194
 2895TIP3    H130248   1.014   1.874   8.144
 2895TIP3    H230249   0.972   1.739   8.198
 2896TIP3   OH230250   0.401   0.797   5.973
 2896TIP3    H130251   0.474   0.854   5.995
 2896TIP3    H230252   0.440   0.709   5.967
 2897TIP3   OH230253   1.145   3.821   8.165
 2897TIP3    H130254   1.137   3.848   8.074
 2897TIP3    H230255   1.127   3.901   8.215
 2898TIP3   OH230256   6.665   1.214   0.530
 2898TIP3    H130257   6.634   1.124   0.545
 2898TIP3    H230258   6.661   1.225   0.435
 2899TIP3   OH230259   6.971   3.697   7.143
 2899TIP3    H130260   6.948   3.623   7.087
 2899TIP3    H230261   7.037   3.662   7.203
 2900TIP3   OH230262   3.100   0.331   8.393
 2900TIP3    H130263   3.075   0.414   8.354
 2900TIP3    H230264   3.126   0.276   8.318
 2901TIP3   OH230265   3.322   6.308   8.137
 2901TIP3    H130266   3.228   6.321   8.151
 2901TIP3    H230267   3.328   6.218   8.104
 2902TIP3   OH230268   4.968   1.581   1.180
 2902TIP3    H130269   5.017   1.504   1.208
 2902TIP3    H230270   4.967   1.639   1.256
 2903TIP3   OH230271   3.645   4.345   0.405
 2903TIP3    H130272   3.672   4.437   0.414
 2903TIP3    H230273   3.578   4.333   0.473
 2904TIP3   OH230274   2.790   2.875   0.246
 2904TIP3    H130275   2.773   2.945   0.310
 2904TIP3    H230276   2.791   2.920   0.161
 2905TIP3   OH230277   5.374   3.905   1.880
 2905TIP3    H130278   5.286   3.877   1.856
 2905TIP3    H230279   5.403   3.839   1.943
 2906TIP3   OH230280   0.091   2.786   7.331
 2906TIP3    H130281   0.125   2.796   7.420
 2906TIP3    H230282   0.074   2.692   7.323
 2907TIP3   OH230283   4.773   4.048   0.378
 2907TIP3    H130284   4.806   4.120   0.325
 2907TIP3    H230285   4.688   4.027   0.341
 2908TIP3   OH230286   1.270   3.185   1.287
 2908TIP3    H130287   1.315   3.120   1.340
 2908TIP3    H230288   1.178   3.176   1.310
 2909TIP3   OH230289   4.681   4.206   7.291
 2909TIP3    H130290   4.699   4.119   7.255
 2909TIP3    H230291   4.707   4.198   7.383
 2910TIP3   OH230292   3.968   4.461   1.516
 2910TIP3    H130293   3.946   4.522   1.445
 2910TIP3    H230294   3.916   4.383   1.496
 2911TIP3   OH230295   3.999   0.421   8.075
 2911TIP3    H130296   3.943   0.493   8.044
 2911TIP3    H230297   4.088   0.455   8.066
 2912TIP3   OH230298   1.367   0.359   1.901
 2912TIP3    H130299   1.281   0.318   1.888
 2912TIP3    H230300   1.417   0.295   1.950
 2913TIP3   OH230301   5.248   0.738   6.005
 2913TIP3    H130302   5.329   0.786   5.989
 2913TIP3    H230303   5.179   0.805   6.003
 2914TIP3   OH230304   6.732   5.128   0.482
 2914TIP3    H130305   6.668   5.057   0.494
 2914TIP3    H230306   6.702   5.173   0.403
 2915TIP3   OH230307   2.191   0.651   0.927
 2915TIP3    H130308   2.198   0.739   0.964
 2915TIP3    H230309   2.130   0.605   0.986
 2916TIP3   OH230310   5.131   3.756   8.020
 2916TIP3    H130311   5.200   3.805   7.976
 2916TIP3    H230312   5.177   3.684   8.064
 2917TIP3   OH230313   6.353   0.320   7.271
 2917TIP3    H130314   6.405   0.385   7.224
 2917TIP3    H230315   6.337   0.359   7.357
 2918TIP3   OH230316   4.695   4.522   1.713
 2918TIP3    H130317   4.718   4.484   1.628
 2918TIP3    H230318   4.772   4.572   1.738
 2919TIP3   OH230319   6.051   0.540   6.586
 2919TIP3    H130320   6.056   0.445   6.579
 2919TIP3    H230321   6.038   0.570   6.496
 2920TIP3   OH230322   6.967   5.448   1.093
 2920TIP3    H130323   6.914   5.507   1.147
 2920TIP3    H230324   7.010   5.506   1.030
 2921TIP3   OH230325   3.758   5.349   7.252
 2921TIP3    H130326   3.797   5.262   7.258
 2921TIP3    H230327   3.666   5.332   7.231
 2922TIP3   OH230328   1.266   3.953   7.515
 2922TIP3    H130329   1.205   3.893   7.472
 2922TIP3    H230330   1.222   4.038   7.512
 2923TIP3   OH230331   5.558   0.615   8.305
 2923TIP3    H130332   5.517   0.529   8.295
 2923TIP3    H230333   5.651   0.596   8.320
 2924TIP3   OH230334   6.956   0.750   0.732
 2924TIP3    H130335   6.866   0.721   0.748
 2924TIP3    H230336   6.950   0.809   0.657
 2925TIP3   OH230337   5.489   2.546   2.072
 2925TIP3    H130338   5.486   2.639   2.094
 2925TIP3    H230339   5.494   2.544   1.977
 2926TIP3   OH230340   6.126   3.190   1.703
 2926TIP3    H130341   6.217   3.199   1.732
 2926TIP3    H230342   6.084   3.137   1.772
 2927TIP3   OH230343   6.277   3.046   0.974
 2927TIP3    H130344   6.251   2.972   0.921
 2927TIP3    H230345   6.195   3.079   1.011
 2928TIP3   OH230346   4.411   3.620   0.940
 2928TIP3    H130347   4.480   3.557   0.916
 2928TIP3    H230348   4.435   3.650   1.027
 2929TIP3   OH230349   2.433   1.219   0.505
 2929TIP3    H130350   2.519   1.215   0.547
 2929TIP3    H230351   2.371   1.195   0.574
 2930TIP3   OH230352   0.656   5.767   0.253
 2930TIP3    H130353   0.684   5.853   0.282
 2930TIP3    H230354   0.567   5.781   0.219
 2931TIP3   OH230355   0.958   5.908   7.097
 2931TIP3    H130356   1.047   5.937   7.119
 2931TIP3    H230357   0.926   5.972   7.034
 2932TIP3   OH230358   4.133   1.883   1.582
 2932TIP3    H130359   4.153   1.870   1.674
 2932TIP3    H230360   4.205   1.936   1.548
 2933TIP3   OH230361   6.861   2.529   1.770
 2933TIP3    H130362   6.808   2.519   1.849
 2933TIP3    H230363   6.809   2.583   1.711
 2934TIP3   OH230364   4.236   6.789   8.182
 2934TIP3    H130365   4.254   6.748   8.266
 2934TIP3    H230366   4.144   6.769   8.165
 2935TIP3   OH230367   0.182   4.075   0.987
 2935TIP3    H130368   0.173   3.979   0.989
 2935TIP3    H230369   0.217   4.097   1.074
 2936TIP3   OH230370   1.190   1.505   0.833
 2936TIP3    H130371   1.101   1.517   0.865
 2936TIP3    H230372   1.237   1.466   0.907
 2937TIP3   OH230373   0.188   0.922   1.695
 2937TIP3    H130374   0.124   0.993   1.706
 2937TIP3    H230375   0.162   0.856   1.758
 2938TIP3   OH230376   4.832   3.519   6.868
 2938TIP3    H130377   4.810   3.430   6.840
 2938TIP3    H230378   4.877   3.557   6.793
 2939TIP3   OH230379   4.552   6.844   1.285
 2939TIP3    H130380   4.643   6.821   1.264
 2939TIP3    H230381   4.533   6.917   1.226
 2940TIP3   OH230382   0.154   3.955   7.258
 2940TIP3    H130383   0.141   3.863   7.238
 2940TIP3    H230384   0.161   3.958   7.354
 2941TIP3   OH230385   6.735   3.073   6.844
 2941TIP3    H130386   6.713   3.111   6.929
 2941TIP3    H230387   6.798   3.133   6.805
 2942TIP3   OH230388   4.519   3.393   6.694
 2942TIP3    H130389   4.607   3.365   6.718
 2942TIP3    H230390   4.518   3.387   6.598
 2943TIP3   OH230391   3.925   5.963   6.704
 2943TIP3    H130392   3.886   5.923   6.626
 2943TIP3    H230393   3.988   6.026   6.669
 2944TIP3   OH230394   4.562   3.454   0.440
 2944TIP3    H130395   4.527   3.402   0.513
 2944TIP3    H230396   4.571   3.542   0.475
 2945TIP3   OH230397   1.363   1.160   0.383
 2945TIP3    H130398   1.340   1.068   0.392
 2945TIP3    H230399   1.304   1.193   0.315
 2946TIP3   OH230400   6.975   5.974   0.909
 2946TIP3    H130401   6.893   6.019   0.931
 2946TIP3    H230402   7.038   6.045   0.893
 2947TIP3   OH230403   1.168   2.967   0.575
 2947TIP3    H130404   1.161   2.909   0.650
 2947TIP3    H230405   1.097   3.031   0.587
 2948TIP3   OH230406   6.645   4.947   7.533
 2948TIP3    H130407   6.563   4.966   7.579
 2948TIP3    H230408   6.652   4.852   7.533
 2949TIP3   OH230409   5.944   0.496   1.172
 2949TIP3    H130410   6.014   0.480   1.108
 2949TIP3    H230411   5.939   0.415   1.223
 2950TIP3   OH230412   1.162   2.886   6.491
 2950TIP3    H130413   1.191   2.867   6.402
 2950TIP3    H230414   1.079   2.839   6.499
 2951TIP3   OH230415   6.817   0.174   2.249
 2951TIP3    H130416   6.858   0.136   2.172
 2951TIP3    H230417   6.855   0.126   2.323
 2952TIP3   OH230418   6.766   1.079   6.517
 2952TIP3    H130419   6.791   1.098   6.607
 2952TIP3    H230420   6.789   0.987   6.505
 2953TIP3   OH230421   5.179   1.906   8.013
 2953TIP3    H130422   5.231   1.826   8.008
 2953TIP3    H230423   5.239   1.971   8.051
 2954TIP3   OH230424   5.889   2.156   6.348
 2954TIP3    H130425   5.957   2.219   6.325
 2954TIP3    H230426   5.838   2.145   6.268
 2955TIP3   OH230427   6.107   6.286   7.245
 2955TIP3    H130428   6.124   6.326   7.160
 2955TIP3    H230429   6.069   6.357   7.297
 2956TIP3   OH230430   3.925   6.196   7.968
 2956TIP3    H130431   3.831   6.178   7.974
 2956TIP3    H230432   3.962   6.114   7.933
 2957TIP3   OH230433   4.993   6.793   6.830
 2957TIP3    H130434   4.926   6.743   6.783
 2957TIP3    H230435   4.947   6.871   6.862
 2958TIP3   OH230436   6.695   5.397   7.362
 2958TIP3    H130437   6.604   5.416   7.337
 2958TIP3    H230438   6.687   5.343   7.441
 2959TIP3   OH230439   5.774   1.953   1.644
 2959TIP3    H130440   5.858   1.999   1.638
 2959TIP3    H230441   5.781   1.883   1.579
 2960TIP3   OH230442   5.609   6.755   6.486
 2960TIP3    H130443   5.672   6.727   6.419
 2960TIP3    H230444   5.559   6.826   6.445
 2961TIP3   OH230445   0.141   1.433   2.021
 2961TIP3    H130446   0.171   1.401   1.936
 2961TIP3    H230447   0.192   1.512   2.036
 2962TIP3   OH230448   1.669   4.768   6.699
 2962TIP3    H130449   1.650   4.730   6.785
 2962TIP3    H230450   1.679   4.693   6.641
 2963TIP3   OH230451   1.537   1.986   6.605
 2963TIP3    H130452   1.500   2.074   6.601
 2963TIP3    H230453   1.614   1.990   6.548
 2964TIP3   OH230454   5.628   6.962   1.590
 2964TIP3    H130455   5.566   6.960   1.517
 2964TIP3    H230456   5.572   6.970   1.668
 2965TIP3   OH230457   0.863   6.390   1.504
 2965TIP3    H130458   0.818   6.332   1.443
 2965TIP3    H230459   0.880   6.470   1.454
 2966TIP3   OH230460   5.468   0.095   0.463
 2966TIP3    H130461   5.382   0.111   0.423
 2966TIP3    H230462   5.449   0.086   0.556
 2967TIP3   OH230463   2.477   1.841   7.048
 2967TIP3    H130464   2.395   1.817   7.004
 2967TIP3    H230465   2.545   1.822   6.984
 2968TIP3   OH230466   3.725   4.050   6.589
 2968TIP3    H130467   3.799   4.095   6.548
 2968TIP3    H230468   3.765   3.991   6.653
 2969TIP3   OH230469   3.029   6.072   7.314
 2969TIP3    H130470   2.944   6.100   7.281
 2969TIP3    H230471   3.055   6.141   7.375
 2970TIP3   OH230472   6.306   2.450   8.138
 2970TIP3    H130473   6.355   2.460   8.219
 2970TIP3    H230474   6.346   2.374   8.095
 2971TIP3   OH230475   5.676   2.106   0.758
 2971TIP3    H130476   5.740   2.108   0.687
 2971TIP3    H230477   5.702   2.031   0.812
 2972TIP3   OH230478   6.924   4.599   7.325
 2972TIP3    H130479   6.841   4.633   7.359
 2972TIP3    H230480   6.982   4.675   7.326
 2973TIP3   OH230481   6.370   1.509   0.338
 2973TIP3    H130482   6.433   1.439   0.320
 2973TIP3    H230483   6.359   1.554   0.254
 2974TIP3   OH230484   2.000   4.041   6.567
 2974TIP3    H130485   1.965   4.101   6.501
 2974TIP3    H230486   1.937   3.970   6.570
 2975TIP3   OH230487   1.641   2.183   2.155
 2975TIP3    H130488   1.560   2.189   2.205
 2975TIP3    H230489   1.643   2.093   2.124
 2976TIP3   OH230490   6.941   4.118   2.330
 2976TIP3    H130491   6.880   4.045   2.324
 2976TIP3    H230492   6.968   4.134   2.239
 2977TIP3   OH230493   0.720   0.159   1.620
 2977TIP3    H130494   0.788   0.183   1.684
 2977TIP3    H230495   0.642   0.145   1.673
 2978TIP3   OH230496   3.582   1.329   5.783
 2978TIP3    H130497   3.593   1.275   5.861
 2978TIP3    H230498   3.576   1.418   5.816
 2979TIP3   OH230499   2.517   4.720   1.082
 2979TIP3    H130500   2.535   4.626   1.091
 2979TIP3    H230501   2.423   4.728   1.098
 2980TIP3   OH230502   3.226   1.632   0.259
 2980TIP3    H130503   3.284   1.660   0.188
 2980TIP3    H230504   3.248   1.689   0.332
 2981TIP3   OH230505   5.040   0.568   1.286
 2981TIP3    H130506   4.981   0.507   1.330
 2981TIP3    H230507   5.126   0.549   1.324
 2982TIP3   OH230508   2.724   5.999   7.331
 2982TIP3    H130509   2.688   5.918   7.365
 2982TIP3    H230510   2.763   5.975   7.247
 2983TIP3   OH230511   3.673   4.659   7.774
 2983TIP3    H130512   3.721   4.577   7.785
 2983TIP3    H230513   3.722   4.706   7.707
 2984TIP3   OH230514   6.393   3.419   8.394
 2984TIP3    H130515   6.363   3.459   8.313
 2984TIP3    H230516   6.431   3.491   8.445
 2985TIP3   OH230517   3.499   3.502   0.539
 2985TIP3    H130518   3.496   3.426   0.481
 2985TIP3    H230519   3.551   3.566   0.491
 2986TIP3   OH230520   1.821   4.860   1.378
 2986TIP3    H130521   1.772   4.780   1.357
 2986TIP3    H230522   1.880   4.873   1.303
 2987TIP3   OH230523   5.334   0.596   1.422
 2987TIP3    H130524   5.422   0.585   1.459
 2987TIP3    H230525   5.297   0.669   1.470
 2988TIP3   OH230526   5.036   0.058   0.068
 2988TIP3    H130527   4.960   0.044   0.011
 2988TIP3    H230528   5.112   0.036   0.014
 2989TIP3   OH230529   1.603   2.407   6.452
 2989TIP3    H130530   1.540   2.347   6.493
 2989TIP3    H230531   1.588   2.398   6.358
 2990TIP3   OH230532   2.759   6.767   0.170
 2990TIP3    H130533   2.831   6.721   0.127
 2990TIP3    H230534   2.768   6.858   0.140
 2991TIP3   OH230535   6.949   5.185   1.367
 2991TIP3    H130536   7.027   5.178   1.312
 2991TIP3    H230537   6.955   5.273   1.405
 2992TIP3   OH230538   4.048   2.708   7.515
 2992TIP3    H130539   4.025   2.697   7.607
 2992TIP3    H230540   4.140   2.682   7.511
 2993TIP3   OH230541   4.608   6.496   0.762
 2993TIP3    H130542   4.668   6.487   0.836
 2993TIP3    H230543   4.659   6.472   0.686
 2994TIP3   OH230544   5.174   4.118   8.151
 2994TIP3    H130545   5.221   4.149   8.074
 2994TIP3    H230546   5.161   4.024   8.135
 2995TIP3   OH230547   4.220   2.916   1.708
 2995TIP3    H130548   4.292   2.978   1.714
 2995TIP3    H230549   4.168   2.930   1.787
 2996TIP3   OH230550   2.384   6.679   6.630
 2996TIP3    H130551   2.324   6.741   6.591
 2996TIP3    H230552   2.431   6.640   6.556
 2997TIP3   OH230553   6.003   1.683   1.438
 2997TIP3    H130554   6.096   1.663   1.431
 2997TIP3    H230555   5.993   1.770   1.399
 2998TIP3   OH230556   0.243   3.223   0.421
 2998TIP3    H130557   0.314   3.227   0.356
 2998TIP3    H230558   0.164   3.219   0.368
 2999TIP3   OH230559   0.127   1.066   7.132
 2999TIP3    H130560   0.045   1.021   7.109
 2999TIP3    H230561   0.106   1.117   7.210
 3000TIP3   OH230562   6.129   6.386   7.004
 3000TIP3    H130563   6.200   6.428   6.954
 3000TIP3    H230564   6.076   6.342   6.938
 3001TIP3   OH230565   6.685   1.893   7.367
 3001TIP3    H130566   6.695   1.954   7.440
 3001TIP3    H230567   6.642   1.817   7.405
 3002TIP3   OH230568   3.971   4.213   0.908
 3002TIP3    H130569   4.044   4.223   0.846
 3002TIP3    H230570   3.904   4.167   0.858
 3003TIP3   OH230571   6.651   6.397   8.399
 3003TIP3    H130572   6.579   6.386   8.462
 3003TIP3    H230573   6.626   6.341   8.326
 3004TIP3   OH230574   3.692   5.922   0.009
 3004TIP3    H130575   3.653   6.009   0.015
 3004TIP3    H230576   3.770   5.934  -0.046
 3005TIP3   OH230577   2.847   1.577   7.495
 3005TIP3    H130578   2.907   1.532   7.554
 3005TIP3    H230579   2.805   1.644   7.549
 3006TIP3   OH230580   1.405   6.204   7.639
 3006TIP3    H130581   1.402   6.297   7.620
 3006TIP3    H230582   1.321   6.170   7.609
 3007TIP3   OH230583   5.321   1.238   6.387
 3007TIP3    H130584   5.340   1.145   6.392
 3007TIP3    H230585   5.368   1.268   6.309
 3008TIP3   OH230586   6.008   2.466   0.876
 3008TIP3    H130587   5.951   2.389   0.882
 3008TIP3    H230588   6.019   2.495   0.967
 3009TIP3   OH230589   4.862   2.760   7.305
 3009TIP3    H130590   4.800   2.690   7.288
 3009TIP3    H230591   4.808   2.835   7.330
 3010TIP3   OH230592   5.609   2.512   1.806
 3010TIP3    H130593   5.604   2.606   1.788
 3010TIP3    H230594   5.700   2.489   1.789
 3011TIP3   OH230595   5.976   4.897   6.316
 3011TIP3    H130596   5.889   4.903   6.355
 3011TIP3    H230597   6.028   4.963   6.363
 3012TIP3   OH230598   3.783   2.232   1.483
 3012TIP3    H130599   3.772   2.245   1.388
 3012TIP3    H230600   3.876   2.213   1.493
 3013TIP3   OH230601   4.440   4.216   7.538
 3013TIP3    H130602   4.414   4.230   7.447
 3013TIP3    H230603   4.429   4.301   7.580
 3014TIP3   OH230604   5.616   4.563   0.082
 3014TIP3    H130605   5.687   4.585   0.022
 3014TIP3    H230606   5.650   4.583   0.169
 3015TIP3   OH230607   6.073   0.656   7.831
 3015TIP3    H130608   6.148   0.599   7.812
 3015TIP3    H230609   6.113   0.742   7.846
 3016TIP3   OH230610   3.540   5.928   7.436
 3016TIP3    H130611   3.576   5.889   7.357
 3016TIP3    H230612   3.562   5.866   7.506
 3017TIP3   OH230613   5.867   4.176   2.080
 3017TIP3    H130614   5.880   4.271   2.076
 3017TIP3    H230615   5.815   4.163   2.159
 3018TIP3   OH230616   3.244   6.709   0.058
 3018TIP3    H130617   3.319   6.740   0.007
 3018TIP3    H230618   3.210   6.787   0.101
 3019TIP3   OH230619   1.488   6.264   0.673
 3019TIP3    H130620   1.558   6.271   0.608
 3019TIP3    H230621   1.492   6.173   0.703
 3020TIP3   OH230622   4.213   0.179   7.481
 3020TIP3    H130623   4.296   0.180   7.433
 3020TIP3    H230624   4.149   0.148   7.417
 3021TIP3   OH230625   1.202   4.912   0.027
 3021TIP3    H130626   1.145   4.988   0.018
 3021TIP3    H230627   1.282   4.947   0.067
 3022TIP3   OH230628   0.760   1.534   6.222
 3022TIP3    H130629   0.778   1.615   6.176
 3022TIP3    H230630   0.780   1.465   6.159
 3023TIP3   OH230631   0.419   3.816   1.532
 3023TIP3    H130632   0.355   3.869   1.484
 3023TIP3    H230633   0.448   3.872   1.604
 3024TIP3   OH230634   4.091   4.949   1.374
 3024TIP3    H130635   4.022   4.953   1.440
 3024TIP3    H230636   4.044   4.936   1.291
 3025TIP3   OH230637   0.379   2.722   6.663
 3025TIP3    H130638   0.285   2.727   6.644
 3025TIP3    H230639   0.397   2.629   6.674
 3026TIP3   OH230640   3.498   0.435   7.666
 3026TIP3    H130641   3.559   0.467   7.600
 3026TIP3    H230642   3.470   0.350   7.634
 3027TIP3   OH230643   4.868   5.159   1.786
 3027TIP3    H130644   4.902   5.181   1.872
 3027TIP3    H230645   4.773   5.161   1.796
 3028TIP3   OH230646   5.248   4.205   6.125
 3028TIP3    H130647   5.308   4.259   6.073
 3028TIP3    H230648   5.215   4.140   6.063
 3029TIP3   OH230649   6.990   1.258   0.635
 3029TIP3    H130650   6.964   1.335   0.685
 3029TIP3    H230651   6.914   1.200   0.639
 3030TIP3   OH230652   4.709   2.897   7.947
 3030TIP3    H130653   4.657   2.817   7.945
 3030TIP3    H230654   4.740   2.903   8.038
 3031TIP3   OH230655   4.628   4.074   6.255
 3031TIP3    H130656   4.534   4.060   6.249
 3031TIP3    H230657   4.663   4.043   6.172
 3032TIP3   OH230658   6.977   4.208   0.842
 3032TIP3    H130659   6.949   4.289   0.887
 3032TIP3    H230660   7.047   4.173   0.897
 3033TIP3   OH230661   2.418   3.959   0.163
 3033TIP3    H130662   2.366   3.891   0.207
 3033TIP3    H230663   2.439   4.022   0.231
 3034TIP3   OH230664   5.176   0.478   6.302
 3034TIP3    H130665   5.126   0.557   6.322
 3034TIP3    H230666   5.127   0.407   6.343
 3035TIP3   OH230667   0.121   2.268   2.052
 3035TIP3    H130668   0.068   2.204   2.098
 3035TIP3    H230669   0.096   2.259   1.960
 3036TIP3   OH230670   5.229   0.359   0.511
 3036TIP3    H130671   5.301   0.414   0.541
 3036TIP3    H230672   5.254   0.270   0.536
 3037TIP3   OH230673   1.819   5.501   8.374
 3037TIP3    H130674   1.752   5.437   8.352
 3037TIP3    H230675   1.901   5.453   8.370
 3038TIP3   OH230676   4.613   3.336   1.627
 3038TIP3    H130677   4.632   3.404   1.563
 3038TIP3    H230678   4.662   3.362   1.705
 3039TIP3   OH230679   3.439   4.669   0.145
 3039TIP3    H130680   3.427   4.723   0.067
 3039TIP3    H230681   3.534   4.663   0.156
 3040TIP3   OH230682   0.546   0.616   0.946
 3040TIP3    H130683   0.589   0.604   1.031
 3040TIP3    H230684   0.458   0.647   0.968
 3041TIP3   OH230685   1.166   1.965   8.103
 3041TIP3    H130686   1.202   1.893   8.051
 3041TIP3    H230687   1.178   2.042   8.048
 3042TIP3   OH230688   1.557   1.118   0.712
 3042TIP3    H130689   1.500   1.191   0.736
 3042TIP3    H230690   1.501   1.040   0.720
 3043TIP3   OH230691   3.979   5.735   1.601
 3043TIP3    H130692   4.026   5.653   1.587
 3043TIP3    H230693   3.979   5.747   1.696
 3044TIP3   OH230694   3.622   0.437   7.408
 3044TIP3    H130695   3.677   0.382   7.352
 3044TIP3    H230696   3.606   0.516   7.356
 3045TIP3   OH230697   0.279   1.979   0.812
 3045TIP3    H130698   0.269   2.007   0.721
 3045TIP3    H230699   0.339   2.043   0.850
 3046TIP3   OH230700   5.002   4.204   7.102
 3046TIP3    H130701   5.037   4.189   7.190
 3046TIP3    H230702   5.077   4.238   7.053
 3047TIP3   OH230703   3.759   6.598   0.348
 3047TIP3    H130704   3.714   6.559   0.273
 3047TIP3    H230705   3.708   6.570   0.424
 3048TIP3   OH230706   6.252   2.688   0.675
 3048TIP3    H130707   6.268   2.772   0.631
 3048TIP3    H230708   6.314   2.687   0.748
 3049TIP3   OH230709   4.805   4.665   1.221
 3049TIP3    H130710   4.783   4.573   1.202
 3049TIP3    H230711   4.812   4.668   1.317
 3050TIP3   OH230712   5.536   6.908   7.103
 3050TIP3    H130713   5.519   6.928   7.011
 3050TIP3    H230714   5.598   6.835   7.100
 3051TIP3   OH230715   6.025   6.720   6.727
 3051TIP3    H130716   6.093   6.752   6.787
 3051TIP3    H230717   5.957   6.685   6.784
 3052TIP3   OH230718   3.885   5.538   2.107
 3052TIP3    H130719   3.798   5.500   2.097
 3052TIP3    H230720   3.941   5.465   2.133
 3053TIP3   OH230721   5.140   2.403   7.355
 3053TIP3    H130722   5.063   2.411   7.300
 3053TIP3    H230723   5.206   2.457   7.312
 3054TIP3   OH230724   3.108   1.875   7.756
 3054TIP3    H130725   3.085   1.890   7.664
 3054TIP3    H230726   3.133   1.783   7.760
 3055TIP3   OH230727   4.705   5.483   6.074
 3055TIP3    H130728   4.640   5.413   6.080
 3055TIP3    H230729   4.663   5.552   6.024
 3056TIP3   OH230730   1.419   6.596   6.718
 3056TIP3    H130731   1.340   6.600   6.665
 3056TIP3    H230732   1.488   6.573   6.656
 3057TIP3   OH230733   1.433   5.779   1.326
 3057TIP3    H130734   1.400   5.802   1.412
 3057TIP3    H230735   1.475   5.859   1.294
 3058TIP3   OH230736   3.316   0.964   1.158
 3058TIP3    H130737   3.315   1.024   1.084
 3058TIP3    H230738   3.379   0.896   1.132
 3059TIP3   OH230739   1.695   4.121   7.006
 3059TIP3    H130740   1.600   4.130   7.002
 3059TIP3    H230741   1.722   4.114   6.914
 3060TIP3   OH230742   1.292   1.103   8.369
 3060TIP3    H130743   1.370   1.081   8.318
 3060TIP3    H230744   1.284   1.032   8.432
 3061TIP3   OH230745   3.200   1.284   6.361
 3061TIP3    H130746   3.116   1.281   6.407
 3061TIP3    H230747   3.178   1.273   6.269
 3062TIP3   OH230748   5.423   0.148   0.746
 3062TIP3    H130749   5.451   0.235   0.717
 3062TIP3    H230750   5.344   0.164   0.797
 3063TIP3   OH230751   3.537   4.483   7.006
 3063TIP3    H130752   3.525   4.403   7.057
 3063TIP3    H230753   3.457   4.491   6.954
 3064TIP3   OH230754   5.029   6.007   7.762
 3064TIP3    H130755   5.103   6.005   7.822
 3064TIP3    H230756   5.067   6.031   7.678
 3065TIP3   OH230757   0.035   1.759   1.018
 3065TIP3    H130758  -0.041   1.768   0.961
 3065TIP3    H230759   0.043   1.845   1.061
 3066TIP3   OH230760   6.003   3.641   7.760
 3066TIP3    H130761   5.953   3.706   7.808
 3066TIP3    H230762   5.944   3.610   7.692
 3067TIP3   OH230763   6.575   4.293   0.974
 3067TIP3    H130764   6.483   4.305   1.000
 3067TIP3    H230765   6.624   4.348   1.035
 3068TIP3   OH230766   2.657   1.387   6.858
 3068TIP3    H130767   2.566   1.415   6.846
 3068TIP3    H230768   2.694   1.451   6.918
 3069TIP3   OH230769   6.107   6.271   0.031
 3069TIP3    H130770   6.092   6.214  -0.044
 3069TIP3    H230771   6.090   6.216   0.108
 3070TIP3   OH230772   0.253   0.810   7.973
 3070TIP3    H130773   0.162   0.812   7.944
 3070TIP3    H230774   0.304   0.821   7.892
 3071TIP3   OH230775   0.782   2.179   0.164
 3071TIP3    H130776   0.833   2.133   0.098
 3071TIP3    H230777   0.846   2.202   0.232
 3072TIP3   OH230778   5.667   0.702   7.915
 3072TIP3    H130779   5.692   0.697   7.823
 3072TIP3    H230780   5.608   0.777   7.920
 3073TIP3   OH230781   0.841   2.953   6.708
 3073TIP3    H130782   0.832   2.991   6.621
 3073TIP3    H230783   0.920   2.993   6.744
 3074TIP3   OH230784   0.713   3.477   1.594
 3074TIP3    H130785   0.794   3.455   1.548
 3074TIP3    H230786   0.742   3.514   1.677
 3075TIP3   OH230787   2.816   4.810   8.163
 3075TIP3    H130788   2.823   4.902   8.190
 3075TIP3    H230789   2.768   4.768   8.234
 3076TIP3   OH230790   3.399   0.564   6.475
 3076TIP3    H130791   3.415   0.534   6.385
 3076TIP3    H230792   3.479   0.541   6.522
 3077TIP3   OH230793   5.385   5.335   0.998
 3077TIP3    H130794   5.380   5.291   0.913
 3077TIP3    H230795   5.452   5.403   0.986
 3078TIP3   OH230796   2.954   5.735   0.836
 3078TIP3    H130797   2.971   5.780   0.753
 3078TIP3    H230798   2.859   5.733   0.843
 3079TIP3   OH230799   2.357   4.832   6.915
 3079TIP3    H130800   2.357   4.743   6.879
 3079TIP3    H230801   2.287   4.831   6.980
 3080TIP3   OH230802   0.226   3.576   1.237
 3080TIP3    H130803   0.187   3.489   1.223
 3080TIP3    H230804   0.298   3.561   1.297
 3081TIP3   OH230805   4.697   0.678   7.381
 3081TIP3    H130806   4.779   0.708   7.343
 3081TIP3    H230807   4.714   0.587   7.406
 3082TIP3   OH230808   0.350   6.329   1.464
 3082TIP3    H130809   0.309   6.295   1.384
 3082TIP3    H230810   0.282   6.384   1.503
 3083TIP3   OH230811   6.433   1.091   1.405
 3083TIP3    H130812   6.424   1.093   1.310
 3083TIP3    H230813   6.527   1.098   1.421
 3084TIP3   OH230814   3.390   0.325   0.955
 3084TIP3    H130815   3.400   0.237   0.993
 3084TIP3    H230816   3.306   0.356   0.987
 3085TIP3   OH230817   5.042   1.593   7.610
 3085TIP3    H130818   5.123   1.642   7.628
 3085TIP3    H230819   5.048   1.570   7.517
 3086TIP3   OH230820   5.753   2.503   0.031
 3086TIP3    H130821   5.707   2.567   0.085
 3086TIP3    H230822   5.829   2.477   0.083
 3087TIP3   OH230823   2.970   1.592   0.389
 3087TIP3    H130824   2.978   1.655   0.461
 3087TIP3    H230825   3.056   1.593   0.347
 3088TIP3   OH230826   1.982   2.409   7.010
 3088TIP3    H130827   2.024   2.350   7.072
 3088TIP3    H230828   1.962   2.487   7.061
 3089TIP3   OH230829   3.212   1.628   7.668
 3089TIP3    H130830   3.153   1.556   7.687
 3089TIP3    H230831   3.286   1.588   7.623
 3090TIP3   OH230832   4.716   2.574   1.767
 3090TIP3    H130833   4.750   2.486   1.784
 3090TIP3    H230834   4.686   2.604   1.853
 3091TIP3   OH230835   2.675   4.940   0.181
 3091TIP3    H130836   2.686   5.030   0.151
 3091TIP3    H230837   2.742   4.930   0.249
 3092TIP3   OH230838   2.318   5.245   0.053
 3092TIP3    H130839   2.230   5.277   0.035
 3092TIP3    H230840   2.364   5.319   0.092
 3093TIP3   OH230841   4.055   2.173   1.555
 3093TIP3    H130842   4.089   2.181   1.644
 3093TIP3    H230843   4.118   2.117   1.511
 3094TIP3   OH230844   5.636   5.291   6.704
 3094TIP3    H130845   5.717   5.302   6.753
 3094TIP3    H230846   5.567   5.318   6.765
 3095TIP3   OH230847   6.610   2.194   0.846
 3095TIP3    H130848   6.580   2.105   0.827
 3095TIP3    H230849   6.649   2.224   0.764
 3096TIP3   OH230850   0.202   4.678   1.187
 3096TIP3    H130851   0.189   4.674   1.282
 3096TIP3    H230852   0.140   4.615   1.151
 3097TIP3   OH230853   4.922   1.721   7.872
 3097TIP3    H130854   4.942   1.806   7.911
 3097TIP3    H230855   4.952   1.728   7.782
 3098TIP3   OH230856   4.601   5.482   0.738
 3098TIP3    H130857   4.631   5.465   0.827
 3098TIP3    H230858   4.680   5.511   0.691
 3099TIP3   OH230859   0.553   3.861   0.384
 3099TIP3    H130860   0.563   3.837   0.477
 3099TIP3    H230861   0.613   3.802   0.338
 3100TIP3   OH230862   6.421   1.122   1.110
 3100TIP3    H130863   6.328   1.099   1.114
 3100TIP3    H230864   6.460   1.054   1.055
 3101TIP3   OH230865   2.812   6.772   0.807
 3101TIP3    H130866   2.772   6.716   0.741
 3101TIP3    H230867   2.904   6.744   0.809
 3102TIP3   OH230868   3.187   6.638   0.545
 3102TIP3    H130869   3.260   6.598   0.593
 3102TIP3    H230870   3.228   6.703   0.488
 3103TIP3   OH230871   1.521   4.885   0.448
 3103TIP3    H130872   1.604   4.883   0.497
 3103TIP3    H230873   1.535   4.825   0.375
 3104TIP3   OH230874   3.600   6.397   6.452
 3104TIP3    H130875   3.596   6.325   6.390
 3104TIP3    H230876   3.557   6.470   6.407
 3105TIP3   OH230877   5.461   1.334   7.681
 3105TIP3    H130878   5.530   1.273   7.704
 3105TIP3    H230879   5.490   1.373   7.598
 3106TIP3   OH230880   4.848   0.040   2.019
 3106TIP3    H130881   4.888   0.116   1.978
 3106TIP3    H230882   4.907  -0.033   1.998
 3107TIP3   OH230883   2.294   3.229   0.581
 3107TIP3    H130884   2.344   3.279   0.516
 3107TIP3    H230885   2.268   3.294   0.646
 3108TIP3   OH230886   5.933   2.258   0.013
 3108TIP3    H130887   6.005   2.233   0.071
 3108TIP3    H230888   5.969   2.329  -0.040
 3109TIP3   OH230889   1.029   5.203   6.833
 3109TIP3    H130890   1.082   5.282   6.842
 3109TIP3    H230891   0.940   5.235   6.823
 3110TIP3   OH230892   5.510   1.727   6.340
 3110TIP3    H130893   5.599   1.755   6.362
 3110TIP3    H230894   5.455   1.800   6.367
 3111TIP3   OH230895   5.811   0.332   0.769
 3111TIP3    H130896   5.894   0.291   0.796
 3111TIP3    H230897   5.755   0.324   0.846
 3112TIP3   OH230898   5.261   4.223   7.898
 3112TIP3    H130899   5.169   4.236   7.872
 3112TIP3    H230900   5.310   4.234   7.816
 3113TIP3   OH230901   4.520   2.544   0.586
 3113TIP3    H130902   4.550   2.459   0.554
 3113TIP3    H230903   4.561   2.554   0.672
 3114TIP3   OH230904   1.824   2.600   7.318
 3114TIP3    H130905   1.824   2.591   7.223
 3114TIP3    H230906   1.802   2.513   7.351
 3115TIP3   OH230907   4.571   1.985   0.805
 3115TIP3    H130908   4.555   2.029   0.721
 3115TIP3    H230909   4.570   2.056   0.869
 3116TIP3   OH230910   1.023   5.528   1.803
 3116TIP3    H130911   0.962   5.490   1.866
 3116TIP3    H230912   1.017   5.471   1.727
 3117TIP3   OH230913   4.877   3.370   2.245
 3117TIP3    H130914   4.867   3.353   2.151
 3117TIP3    H230915   4.795   3.339   2.284
 3118TIP3   OH230916   2.504   0.170   1.097
 3118TIP3    H130917   2.501   0.251   1.045
 3118TIP3    H230918   2.562   0.190   1.170
 3119TIP3   OH230919   6.202   0.712   6.954
 3119TIP3    H130920   6.212   0.687   7.046
 3119TIP3    H230921   6.284   0.755   6.931
 3120TIP3   OH230922   1.967   6.781   7.748
 3120TIP3    H130923   1.988   6.856   7.804
 3120TIP3    H230924   2.043   6.723   7.755
 3121TIP3   OH230925   2.027   0.494   8.049
 3121TIP3    H130926   2.101   0.436   8.031
 3121TIP3    H230927   2.020   0.495   8.144
 3122TIP3   OH230928   0.151   0.376   7.728
 3122TIP3    H130929   0.213   0.382   7.655
 3122TIP3    H230930   0.104   0.294   7.713
 3123TIP3   OH230931   6.060   5.243   1.342
 3123TIP3    H130932   6.118   5.309   1.304
 3123TIP3    H230933   6.049   5.270   1.433
 3124TIP3   OH230934   6.893   1.505   0.831
 3124TIP3    H130935   6.808   1.498   0.788
 3124TIP3    H230936   6.898   1.597   0.859
 3125TIP3   OH230937   0.759   6.635   0.814
 3125TIP3    H130938   0.848   6.634   0.848
 3125TIP3    H230939   0.714   6.565   0.861
 3126TIP3   OH230940   3.652   3.252   1.785
 3126TIP3    H130941   3.694   3.194   1.849
 3126TIP3    H230942   3.721   3.268   1.720
 3127TIP3   OH230943   5.040   1.106   1.526
 3127TIP3    H130944   5.109   1.063   1.475
 3127TIP3    H230945   5.076   1.192   1.546
 3128TIP3   OH230946   5.194   1.001   1.135
 3128TIP3    H130947   5.225   1.066   1.071
 3128TIP3    H230948   5.104   0.982   1.108
 3129TIP3   OH230949   2.548   2.705   0.476
 3129TIP3    H130950   2.582   2.691   0.564
 3129TIP3    H230951   2.472   2.647   0.470
 3130TIP3   OH230952   1.510   1.552   8.230
 3130TIP3    H130953   1.572   1.481   8.242
 3130TIP3    H230954   1.425   1.513   8.249
 3131TIP3   OH230955   6.418   3.881   7.592
 3131TIP3    H130956   6.341   3.832   7.565
 3131TIP3    H230957   6.466   3.897   7.511
 3132TIP3   OH230958   0.787   1.774   0.121
 3132TIP3    H130959   0.745   1.832   0.184
 3132TIP3    H230960   0.797   1.691   0.168
 3133TIP3   OH230961   5.952   3.158   7.751
 3133TIP3    H130962   6.000   3.180   7.830
 3133TIP3    H230963   5.942   3.063   7.754
 3134TIP3   OH230964   0.950   2.311   0.375
 3134TIP3    H130965   0.863   2.339   0.402
 3134TIP3    H230966   1.009   2.349   0.440
 3135TIP3   OH230967   6.898   1.568   8.360
 3135TIP3    H130968   6.989   1.554   8.331
 3135TIP3    H230969   6.855   1.483   8.348
 3136TIP3   OH230970   2.013   0.866   6.855
 3136TIP3    H130971   2.079   0.917   6.809
 3136TIP3    H230972   2.029   0.883   6.948
 3137TIP3   OH230973   4.682   2.794   7.036
 3137TIP3    H130974   4.650   2.776   7.125
 3137TIP3    H230975   4.759   2.737   7.027
 3138TIP3   OH230976   4.720   3.066   7.369
 3138TIP3    H130977   4.702   3.088   7.278
 3138TIP3    H230978   4.765   3.143   7.403
 3139TIP3   OH230979   2.243   3.612   1.367
 3139TIP3    H130980   2.226   3.572   1.282
 3139TIP3    H230981   2.339   3.619   1.372
 3140TIP3   OH230982   1.995   4.488   0.876
 3140TIP3    H130983   2.011   4.434   0.954
 3140TIP3    H230984   1.938   4.434   0.821
 3141TIP3   OH230985   1.548   3.736   1.747
 3141TIP3    H130986   1.577   3.758   1.836
 3141TIP3    H230987   1.532   3.820   1.705
 3142TIP3   OH230988   2.183   1.807   0.091
 3142TIP3    H130989   2.262   1.767   0.128
 3142TIP3    H230990   2.112   1.774   0.145
 3143TIP3   OH230991   5.370   6.192   7.480
 3143TIP3    H130992   5.380   6.111   7.431
 3143TIP3    H230993   5.276   6.206   7.484
 3144TIP3   OH230994   5.549   0.676   0.885
 3144TIP3    H130995   5.471   0.654   0.937
 3144TIP3    H230996   5.611   0.711   0.949
 3145TIP3   OH230997   5.189   5.793   0.897
 3145TIP3    H130998   5.198   5.722   0.961
 3145TIP3    H230999   5.097   5.791   0.872
 3146TIP3   OH231000   4.476   3.889   7.924
 3146TIP3    H131001   4.512   3.837   7.995
 3146TIP3    H231002   4.551   3.932   7.883
 3147TIP3   OH231003   6.328   4.777   0.282
 3147TIP3    H131004   6.290   4.692   0.304
 3147TIP3    H231005   6.317   4.785   0.187
 3148TIP3   OH231006   0.807   3.899   6.827
 3148TIP3    H131007   0.811   3.811   6.790
 3148TIP3    H231008   0.785   3.886   6.919
 3149TIP3   OH231009   0.634   2.295   0.555
 3149TIP3    H131010   0.628   2.297   0.650
 3149TIP3    H231011   0.675   2.211   0.534
 3150TIP3   OH231012   0.478   1.437   0.658
 3150TIP3    H131013   0.516   1.351   0.676
 3150TIP3    H231014   0.383   1.423   0.660
 3151TIP3   OH231015   4.356   2.320   0.578
 3151TIP3    H131016   4.354   2.261   0.653
 3151TIP3    H231017   4.309   2.398   0.607
 3152TIP3   OH231018   2.308   2.031   1.703
 3152TIP3    H131019   2.392   2.044   1.660
 3152TIP3    H231020   2.268   2.118   1.705
 3153TIP3   OH231021   3.489   1.504   0.476
 3153TIP3    H131022   3.577   1.515   0.512
 3153TIP3    H231023   3.454   1.593   0.467
 3154TIP3   OH231024   1.982   6.424   0.693
 3154TIP3    H131025   1.991   6.379   0.609
 3154TIP3    H231026   1.910   6.486   0.680
 3155TIP3   OH231027   2.977   3.093   1.642
 3155TIP3    H131028   2.940   3.074   1.728
 3155TIP3    H231029   2.957   3.015   1.590
 3156TIP3   OH231030   5.736   6.654   6.733
 3156TIP3    H131031   5.664   6.705   6.697
 3156TIP3    H231032   5.762   6.595   6.662
 3157TIP3   OH231033   6.894   5.969   8.278
 3157TIP3    H131034   6.935   5.924   8.352
 3157TIP3    H231035   6.830   6.028   8.318
 3158TIP3   OH231036   4.608   4.291   1.884
 3158TIP3    H131037   4.589   4.317   1.974
 3158TIP3    H231038   4.634   4.372   1.840
 3159TIP3   OH231039   6.912   4.784   7.744
 3159TIP3    H131040   6.904   4.802   7.838
 3159TIP3    H231041   7.006   4.780   7.728
 3160TIP3   OH231042   0.627   4.949   7.463
 3160TIP3    H131043   0.573   5.024   7.488
 3160TIP3    H231044   0.589   4.918   7.380
 3161TIP3   OH231045   4.881   6.056   7.435
 3161TIP3    H131046   4.922   5.969   7.439
 3161TIP3    H231047   4.791   6.041   7.464
 3162TIP3   OH231048   0.034   2.598   7.688
 3162TIP3    H131049  -0.039   2.596   7.627
 3162TIP3    H231050   0.091   2.668   7.656
 3163TIP3   OH231051   0.686   1.336   0.400
 3163TIP3    H131052   0.756   1.304   0.457
 3163TIP3    H231053   0.613   1.276   0.415
 3164TIP3   OH231054   4.388   3.405   8.359
 3164TIP3    H131055   4.430   3.328   8.320
 3164TIP3    H231056   4.306   3.372   8.396
 3165TIP3   OH231057   5.963   3.274   0.816
 3165TIP3    H131058   6.013   3.255   0.896
 3165TIP3    H231059   6.027   3.264   0.746
 3166TIP3   OH231060   0.594   6.451   7.529
 3166TIP3    H131061   0.579   6.530   7.580
 3166TIP3    H231062   0.506   6.420   7.505
 3167TIP3   OH231063   3.452   0.649   0.133
 3167TIP3    H131064   3.521   0.691   0.081
 3167TIP3    H231065   3.423   0.717   0.193
 3168TIP3   OH231066   2.381   3.106   0.120
 3168TIP3    H131067   2.383   3.072   0.210
 3168TIP3    H231068   2.412   3.196   0.128
 3169TIP3   OH231069   0.654   5.014   7.825
 3169TIP3    H131070   0.688   5.091   7.780
 3169TIP3    H231071   0.704   5.010   7.907
 3170TIP3   OH231072   1.212   5.705   7.871
 3170TIP3    H131073   1.168   5.788   7.891
 3170TIP3    H231074   1.149   5.656   7.819
 3171TIP3   OH231075   2.231   2.150   2.232
 3171TIP3    H131076   2.170   2.080   2.208
 3171TIP3    H231077   2.311   2.105   2.259
 3172TIP3   OH231078   4.956   0.955   1.020
 3172TIP3    H131079   4.888   1.023   1.024
 3172TIP3    H231080   4.990   0.960   0.931
 3173TIP3   OH231081   6.442   5.421   0.006
 3173TIP3    H131082   6.415   5.329   0.009
 3173TIP3    H231083   6.366   5.470   0.036
 3174TIP3   OH231084   0.134   3.401   7.520
 3174TIP3    H131085   0.041   3.411   7.539
 3174TIP3    H231086   0.138   3.331   7.454
 3175TIP3   OH231087   4.928   5.853   8.285
 3175TIP3    H131088   4.999   5.877   8.345
 3175TIP3    H231089   4.944   5.906   8.207
 3176TIP3   OH231090   5.452   2.454   0.349
 3176TIP3    H131091   5.460   2.498   0.264
 3176TIP3    H231092   5.440   2.362   0.328
 3177TIP3   OH231093   3.750   0.921   7.957
 3177TIP3    H131094   3.787   0.994   7.907
 3177TIP3    H231095   3.656   0.924   7.937
 3178TIP3   OH231096   0.601   3.189   6.771
 3178TIP3    H131097   0.678   3.211   6.718
 3178TIP3    H231098   0.546   3.136   6.713
 3179TIP3   OH231099   6.669   6.339   0.557
 3179TIP3    H131100   6.580   6.303   0.559
 3179TIP3    H231101   6.691   6.353   0.649
 3180TIP3   OH231102   5.592   5.538   1.071
 3180TIP3    H131103   5.628   5.511   1.156
 3180TIP3    H231104   5.669   5.567   1.021
 3181TIP3   OH231105   2.976   5.628   0.024
 3181TIP3    H131106   2.932   5.660   0.103
 3181TIP3    H231107   2.923   5.554  -0.004
 3182TIP3   OH231108   1.252   1.884   6.865
 3182TIP3    H131109   1.333   1.854   6.906
 3182TIP3    H231110   1.186   1.875   6.935
 3183TIP3   OH231111   6.825   6.947   0.047
 3183TIP3    H131112   6.751   6.919  -0.007
 3183TIP3    H231113   6.867   6.865   0.075
 3184TIP3   OH231114   3.459   3.564   6.612
 3184TIP3    H131115   3.517   3.606   6.549
 3184TIP3    H231116   3.516   3.509   6.666
 3185TIP3   OH231117   3.210   2.672   1.385
 3185TIP3    H131118   3.203   2.674   1.289
 3185TIP3    H231119   3.283   2.613   1.403
 3186TIP3   OH231120   3.727   6.452   7.696
 3186TIP3    H131121   3.816   6.469   7.726
 3186TIP3    H231122   3.704   6.530   7.644
 3187TIP3   OH231123   5.879   5.866   1.096
 3187TIP3    H131124   5.891   5.840   1.187
 3187TIP3    H231125   5.964   5.901   1.069
 3188TIP3   OH231126   1.604   3.542   7.906
 3188TIP3    H131127   1.516   3.512   7.926
 3188TIP3    H231128   1.594   3.634   7.882
 3189TIP3   OH231129   6.813   5.554   0.139
 3189TIP3    H131130   6.749   5.623   0.155
 3189TIP3    H231131   6.771   5.475   0.175
 3190TIP3   OH231132   5.061   4.753   0.568
 3190TIP3    H131133   5.080   4.718   0.655
 3190TIP3    H231134   5.098   4.841   0.570
 3191TIP3   OH231135   2.057   3.403   8.391
 3191TIP3    H131136   1.993   3.410   8.320
 3191TIP3    H231137   2.029   3.468   8.455
 3192TIP3   OH231138   3.305   2.468   1.546
 3192TIP3    H131139   3.330   2.546   1.596
 3192TIP3    H231140   3.389   2.428   1.521
 3193TIP3   OH231141   3.572   3.424   6.824
 3193TIP3    H131142   3.489   3.435   6.871
 3193TIP3    H231143   3.633   3.481   6.870
 3194TIP3   OH231144   1.045   4.342   6.644
 3194TIP3    H131145   0.967   4.297   6.611
 3194TIP3    H231146   1.024   4.435   6.639
 3195TIP3   OH231147   5.091   2.412   0.918
 3195TIP3    H131148   5.129   2.354   0.984
 3195TIP3    H231149   5.099   2.363   0.836
 3196TIP3   OH231150   0.427   1.208   0.431
 3196TIP3    H131151   0.353   1.269   0.437
 3196TIP3    H231152   0.434   1.170   0.519
 3197TIP3   OH231153   1.490   6.327   6.893
 3197TIP3    H131154   1.525   6.395   6.836
 3197TIP3    H231155   1.504   6.360   6.982
 3198TIP3   OH231156   2.246   5.449   7.166
 3198TIP3    H131157   2.259   5.538   7.134
 3198TIP3    H231158   2.160   5.424   7.132
 3199TIP3   OH231159   4.908   5.661   1.201
 3199TIP3    H131160   4.869   5.609   1.130
 3199TIP3    H231161   4.999   5.633   1.205
 3200TIP3   OH231162   2.234   2.336   7.782
 3200TIP3    H131163   2.275   2.274   7.843
 3200TIP3    H231164   2.305   2.396   7.759
 3201TIP3   OH231165   0.278   4.204   7.893
 3201TIP3    H131166   0.371   4.183   7.881
 3201TIP3    H231167   0.275   4.300   7.887
 3202TIP3   OH231168   3.581   6.700   7.391
 3202TIP3    H131169   3.661   6.665   7.431
 3202TIP3    H231170   3.514   6.634   7.409
 3203TIP3   OH231171   1.194   1.652   7.039
 3203TIP3    H131172   1.243   1.614   7.112
 3203TIP3    H231173   1.158   1.577   6.993
 3204TIP3   OH231174   6.446   0.584   7.138
 3204TIP3    H131175   6.382   0.597   7.209
 3204TIP3    H231176   6.492   0.667   7.132
 3205TIP3   OH231177   0.422   6.587   0.948
 3205TIP3    H131178   0.443   6.556   1.037
 3205TIP3    H231179   0.397   6.507   0.901
 3206TIP3   OH231180   1.441   5.639   1.042
 3206TIP3    H131181   1.487   5.683   1.113
 3206TIP3    H231182   1.378   5.703   1.011
 3207TIP3   OH231183   2.433   5.559   0.117
 3207TIP3    H131184   2.364   5.576   0.180
 3207TIP3    H231185   2.507   5.611   0.148
 3208TIP3   OH231186   2.441   5.795   7.554
 3208TIP3    H131187   2.413   5.738   7.625
 3208TIP3    H231188   2.512   5.746   7.511
 3209TIP3   OH231189   0.857   0.444   1.970
 3209TIP3    H131190   0.878   0.355   1.939
 3209TIP3    H231191   0.806   0.482   1.898
 3210TIP3   OH231192   6.380   1.481   6.918
 3210TIP3    H131193   6.347   1.440   6.838
 3210TIP3    H231194   6.333   1.564   6.923
 3211TIP3   OH231195   4.552   5.674   1.273
 3211TIP3    H131196   4.615   5.630   1.331
 3211TIP3    H231197   4.469   5.669   1.319
 3212TIP3   OH231198   0.850   5.833   5.820
 3212TIP3    H131199   0.874   5.743   5.843
 3212TIP3    H231200   0.869   5.840   5.726
 3213TIP3   OH231201   2.407   6.065   7.511
 3213TIP3    H131202   2.336   6.035   7.454
 3213TIP3    H231203   2.440   5.984   7.551
 3214TIP3   OH231204   5.666   4.505   0.766
 3214TIP3    H131205   5.589   4.554   0.796
 3214TIP3    H231206   5.653   4.417   0.803
 3215TIP3   OH231207   0.147   4.331   0.633
 3215TIP3    H131208   0.072   4.305   0.687
 3215TIP3    H231209   0.122   4.307   0.544
 3216TIP3   OH231210   0.238   2.571   2.471
 3216TIP3    H131211   0.260   2.639   2.407
 3216TIP3    H231212   0.279   2.601   2.552
 3217TIP3   OH231213   6.304   1.153   0.406
 3217TIP3    H131214   6.224   1.136   0.456
 3217TIP3    H231215   6.360   1.077   0.425
 3218TIP3   OH231216   3.618   1.567   6.280
 3218TIP3    H131217   3.698   1.572   6.332
 3218TIP3    H231218   3.552   1.535   6.341
 3219TIP3   OH231219   0.400   4.760   6.854
 3219TIP3    H131220   0.337   4.699   6.816
 3219TIP3    H231221   0.459   4.782   6.781
 3220TIP3   OH231222   4.640   5.940   7.427
 3220TIP3    H131223   4.600   5.858   7.396
 3220TIP3    H231224   4.566   5.997   7.446
 3221TIP3   OH231225   2.057   4.102   6.874
 3221TIP3    H131226   2.024   4.013   6.888
 3221TIP3    H231227   2.005   4.136   6.801
 3222TIP3   OH231228   2.610   3.412   0.848
 3222TIP3    H131229   2.620   3.329   0.895
 3222TIP3    H231230   2.652   3.397   0.763
 3223TIP3   OH231231   4.969   0.914   7.561
 3223TIP3    H131232   4.985   0.970   7.636
 3223TIP3    H231233   4.976   0.825   7.596
 3224TIP3   OH231234   2.416   4.305   2.407
 3224TIP3    H131235   2.322   4.291   2.407
 3224TIP3    H231236   2.451   4.234   2.353
 3225TIP3   OH231237   3.309   0.739   6.009
 3225TIP3    H131238   3.325   0.832   6.020
 3225TIP3    H231239   3.392   0.704   5.976
 3226TIP3   OH231240   0.049   3.738   0.735
 3226TIP3    H131241   0.135   3.701   0.717
 3226TIP3    H231242   0.055   3.770   0.825
 3227TIP3   OH231243   2.229   5.905   7.392
 3227TIP3    H131244   2.288   5.839   7.428
 3227TIP3    H231245   2.159   5.854   7.350
 3228TIP3   OH231246   4.862   6.698   6.475
 3228TIP3    H131247   4.788   6.699   6.414
 3228TIP3    H231248   4.933   6.657   6.425
 3229TIP3   OH231249   2.939   2.835   1.856
 3229TIP3    H131250   3.034   2.826   1.858
 3229TIP3    H231251   2.923   2.924   1.889
 3230TIP3   OH231252   4.753   6.864   7.234
 3230TIP3    H131253   4.836   6.905   7.260
 3230TIP3    H231254   4.754   6.779   7.277
 3231TIP3   OH231255   4.399   1.420   2.423
 3231TIP3    H131256   4.455   1.387   2.353
 3231TIP3    H231257   4.425   1.512   2.433
 3232TIP3   OH231258   4.409   6.535   1.865
 3232TIP3    H131259   4.389   6.443   1.881
 3232TIP3    H231260   4.337   6.566   1.809
 3233TIP3   OH231261   3.808   2.479   0.396
 3233TIP3    H131262   3.861   2.519   0.464
 3233TIP3    H231263   3.776   2.397   0.434
 3234TIP3   OH231264   6.817   5.750   6.707
 3234TIP3    H131265   6.891   5.711   6.754
 3234TIP3    H231266   6.815   5.841   6.737
 3235TIP3   OH231267   1.671   5.626   0.508
 3235TIP3    H131268   1.635   5.570   0.576
 3235TIP3    H231269   1.722   5.692   0.555
 3236TIP3   OH231270   4.225   3.766   6.274
 3236TIP3    H131271   4.194   3.703   6.209
 3236TIP3    H231272   4.254   3.711   6.348
 3237TIP3   OH231273   2.426   3.435   0.443
 3237TIP3    H131274   2.385   3.512   0.484
 3237TIP3    H231275   2.453   3.466   0.357
 3238TIP3   OH231276   0.287   4.517   7.942
 3238TIP3    H131277   0.329   4.589   7.989
 3238TIP3    H231278   0.194   4.523   7.966
 3239TIP3   OH231279   0.077   6.976   6.422
 3239TIP3    H131280  -0.018   6.987   6.420
 3239TIP3    H231281   0.106   7.004   6.336
 3240TIP3   OH231282   1.147   2.245   7.301
 3240TIP3    H131283   1.229   2.197   7.303
 3240TIP3    H231284   1.082   2.181   7.272
 3241TIP3   OH231285   0.659   3.666   1.229
 3241TIP3    H131286   0.625   3.649   1.141
 3241TIP3    H231287   0.687   3.757   1.227
 3242TIP3   OH231288   1.673   5.527   0.240
 3242TIP3    H131289   1.744   5.580   0.204
 3242TIP3    H231290   1.682   5.537   0.335
 3243TIP3   OH231291   2.125   2.687   1.823
 3243TIP3    H131292   2.216   2.702   1.850
 3243TIP3    H231293   2.105   2.762   1.767
 3244TIP3   OH231294   4.727   2.794   7.604
 3244TIP3    H131295   4.649   2.739   7.602
 3244TIP3    H231296   4.694   2.884   7.595
 3245TIP3   OH231297   1.012   3.878   1.454
 3245TIP3    H131298   0.999   3.795   1.409
 3245TIP3    H231299   0.962   3.870   1.535
 3246TIP3   OH231300   0.261   0.087   8.211
 3246TIP3    H131301   0.279   0.052   8.124
 3246TIP3    H231302   0.342   0.132   8.236
 3247TIP3   OH231303   1.018   6.086   1.973
 3247TIP3    H131304   0.954   6.114   1.907
 3247TIP3    H231305   1.095   6.141   1.956
 3248TIP3   OH231306   2.672   3.365   0.555
 3248TIP3    H131307   2.716   3.424   0.494
 3248TIP3    H231308   2.580   3.367   0.528
 3249TIP3   OH231309   4.654   5.637   7.630
 3249TIP3    H131310   4.573   5.653   7.582
 3249TIP3    H231311   4.628   5.635   7.722
 3250TIP3   OH231312   1.812   3.619   2.201
 3250TIP3    H131313   1.907   3.623   2.212
 3250TIP3    H231314   1.792   3.525   2.199
 3251TIP3   OH231315   4.265   3.303   1.537
 3251TIP3    H131316   4.197   3.236   1.535
 3251TIP3    H231317   4.328   3.271   1.601
 3252TIP3   OH231318   4.602   2.588   0.853
 3252TIP3    H131319   4.620   2.518   0.917
 3252TIP3    H231320   4.688   2.611   0.818
 3253TIP3   OH231321   1.524   3.811   0.675
 3253TIP3    H131322   1.590   3.796   0.607
 3253TIP3    H231323   1.575   3.820   0.756
 3254TIP3   OH231324   1.818   1.094   0.635
 3254TIP3    H131325   1.726   1.107   0.659
 3254TIP3    H231326   1.815   1.039   0.557
 3255TIP3   OH231327   0.526   2.701   0.069
 3255TIP3    H131328   0.479   2.658   0.141
 3255TIP3    H231329   0.465   2.698  -0.004
 3256TIP3   OH231330   5.562   5.885   0.330
 3256TIP3    H131331   5.635   5.945   0.315
 3256TIP3    H231332   5.576   5.851   0.418
 3257TIP3   OH231333   4.995   4.587   6.509
 3257TIP3    H131334   5.001   4.544   6.594
 3257TIP3    H231335   4.905   4.622   6.507
 3258TIP3   OH231336   0.023   5.971   6.771
 3258TIP3    H131337  -0.058   6.021   6.765
 3258TIP3    H231338   0.076   6.002   6.698
 3259TIP3   OH231339   6.790   3.759   2.464
 3259TIP3    H131340   6.796   3.813   2.385
 3259TIP3    H231341   6.823   3.674   2.437
 3260TIP3   OH231342   3.625   4.422   2.166
 3260TIP3    H131343   3.701   4.480   2.176
 3260TIP3    H231344   3.641   4.352   2.228
 3261TIP3   OH231345   5.573   3.954   7.193
 3261TIP3    H131346   5.497   3.979   7.244
 3261TIP3    H231347   5.578   3.859   7.202
 3262TIP3   OH231348   0.237   6.783   1.060
 3262TIP3    H131349   0.148   6.782   1.025
 3262TIP3    H231350   0.286   6.724   1.002
 3263TIP3   OH231351   1.117   6.258   7.896
 3263TIP3    H131352   1.171   6.275   7.973
 3263TIP3    H231353   1.056   6.189   7.925
 3264TIP3   OH231354   5.304   5.456   0.690
 3264TIP3    H131355   5.361   5.379   0.688
 3264TIP3    H231356   5.360   5.526   0.724
 3265TIP3   OH231357   5.435   0.572   0.381
 3265TIP3    H131358   5.530   0.574   0.394
 3265TIP3    H231359   5.405   0.659   0.407
 3266TIP3   OH231360   4.465   0.957   2.088
 3266TIP3    H131361   4.508   1.042   2.089
 3266TIP3    H231362   4.384   0.970   2.139
 3267TIP3   OH231363   2.444   3.632   7.233
 3267TIP3    H131364   2.387   3.687   7.180
 3267TIP3    H231365   2.519   3.688   7.253
 3268TIP3   OH231366   5.954   2.538   7.434
 3268TIP3    H131367   5.866   2.533   7.395
 3268TIP3    H231368   5.977   2.447   7.452
 3269TIP3   OH231369   0.277   3.615   0.631
 3269TIP3    H131370   0.320   3.550   0.576
 3269TIP3    H231371   0.346   3.678   0.653
 3270TIP3   OH231372   3.431   4.770   7.553
 3270TIP3    H131373   3.379   4.845   7.581
 3270TIP3    H231374   3.386   4.694   7.589
 3271TIP3   OH231375   6.548   0.969   0.482
 3271TIP3    H131376   6.485   0.898   0.479
 3271TIP3    H231377   6.621   0.938   0.428
 3272TIP3   OH231378   1.135   5.281   1.273
 3272TIP3    H131379   1.143   5.375   1.258
 3272TIP3    H231380   1.209   5.260   1.330
 3273TIP3   OH231381   0.047   3.736   7.630
 3273TIP3    H131382   0.054   3.719   7.536
 3273TIP3    H231383   0.079   3.826   7.640
 3274TIP3   OH231384   4.420   6.962   6.840
 3274TIP3    H131385   4.441   6.871   6.860
 3274TIP3    H231386   4.390   6.960   6.749
 3275TIP3   OH231387   0.716   1.493   6.475
 3275TIP3    H131388   0.733   1.526   6.386
 3275TIP3    H231389   0.701   1.399   6.462
 3276TIP3   OH231390   1.762   2.411   0.466
 3276TIP3    H131391   1.789   2.334   0.417
 3276TIP3    H231392   1.836   2.429   0.524
 3277TIP3   OH231393   5.443   6.957   1.108
 3277TIP3    H131394   5.498   7.034   1.090
 3277TIP3    H231395   5.419   6.925   1.021
 3278TIP3   OH231396   4.188   0.882   0.300
 3278TIP3    H131397   4.105   0.840   0.277
 3278TIP3    H231398   4.245   0.864   0.225
 3279TIP3   OH231399   3.179   0.127   7.339
 3279TIP3    H131400   3.252   0.138   7.278
 3279TIP3    H231401   3.108   0.090   7.287
 3280TIP3   OH231402   6.759   4.888   6.546
 3280TIP3    H131403   6.735   4.919   6.458
 3280TIP3    H231404   6.695   4.929   6.604
 3281TIP3   OH231405   0.904   5.717   7.557
 3281TIP3    H131406   0.896   5.743   7.465
 3281TIP3    H231407   0.908   5.799   7.605
 3282TIP3   OH231408   2.230   2.703   0.554
 3282TIP3    H131409   2.208   2.724   0.463
 3282TIP3    H231410   2.246   2.788   0.594
 3283TIP3   OH231411   0.868   3.123   7.773
 3283TIP3    H131412   0.928   3.183   7.817
 3283TIP3    H231413   0.812   3.089   7.844
 3284TIP3   OH231414   2.778   2.538   0.440
 3284TIP3    H131415   2.843   2.565   0.375
 3284TIP3    H231416   2.710   2.605   0.434
 3285TIP3   OH231417   6.889   0.887   6.766
 3285TIP3    H131418   6.898   0.982   6.758
 3285TIP3    H231419   6.925   0.853   6.684
 3286TIP3   OH231420   6.172   3.592   7.087
 3286TIP3    H131421   6.209   3.606   7.174
 3286TIP3    H231422   6.233   3.637   7.028
 3287TIP3   OH231423   2.797   6.633   6.770
 3287TIP3    H131424   2.845   6.629   6.687
 3287TIP3    H231425   2.852   6.687   6.827
 3288TIP3   OH231426   6.610   0.286   7.512
 3288TIP3    H131427   6.594   0.379   7.498
 3288TIP3    H231428   6.654   0.256   7.432
 3289TIP3   OH231429   2.031   5.827   7.053
 3289TIP3    H131430   2.013   5.851   7.143
 3289TIP3    H231431   2.011   5.905   7.002
 3290TIP3   OH231432   0.052   1.143   0.030
 3290TIP3    H131433   0.031   1.206  -0.039
 3290TIP3    H231434  -0.000   1.065   0.008
 3291TIP3   OH231435   2.927   4.201   7.350
 3291TIP3    H131436   2.889   4.127   7.303
 3291TIP3    H231437   2.885   4.278   7.311
 3292TIP3   OH231438   3.222   0.924   7.235
 3292TIP3    H131439   3.266   0.882   7.309
 3292TIP3    H231440   3.204   1.013   7.264
 3293TIP3   OH231441   2.490   3.016   7.991
 3293TIP3    H131442   2.492   3.102   8.034
 3293TIP3    H231443   2.397   2.993   7.990
 3294TIP3   OH231444   3.002   6.214   1.714
 3294TIP3    H131445   3.017   6.200   1.808
 3294TIP3    H231446   2.965   6.302   1.709
 3295TIP3   OH231447   4.367   6.614   7.828
 3295TIP3    H131448   4.289   6.600   7.881
 3295TIP3    H231449   4.386   6.707   7.836
 3296TIP3   OH231450   3.245   2.821   6.692
 3296TIP3    H131451   3.218   2.730   6.679
 3296TIP3    H231452   3.325   2.830   6.642
 3297TIP3   OH231453   2.347   1.260   1.658
 3297TIP3    H131454   2.375   1.171   1.636
 3297TIP3    H231455   2.324   1.256   1.751
 3298TIP3   OH231456   1.293   3.275   6.858
 3298TIP3    H131457   1.246   3.350   6.893
 3298TIP3    H231458   1.240   3.246   6.784
 3299TIP3   OH231459   6.641   4.580   7.912
 3299TIP3    H131460   6.608   4.504   7.960
 3299TIP3    H231461   6.728   4.596   7.950
 3300TIP3   OH231462   6.740   1.264   1.265
 3300TIP3    H131463   6.773   1.351   1.286
 3300TIP3    H231464   6.746   1.216   1.347
 3301TIP3   OH231465   0.292   3.750   7.000
 3301TIP3    H131466   0.214   3.805   6.998
 3301TIP3    H231467   0.356   3.798   6.947
 3302TIP3   OH231468   4.507   6.648   7.248
 3302TIP3    H131469   4.576   6.583   7.236
 3302TIP3    H231470   4.434   6.599   7.285
 3303TIP3   OH231471   1.756   1.045   1.108
 3303TIP3    H131472   1.776   1.105   1.036
 3303TIP3    H231473   1.718   0.968   1.065
 3304TIP3   OH231474   2.166   2.441   2.543
 3304TIP3    H131475   2.143   2.410   2.456
 3304TIP3    H231476   2.105   2.397   2.602
 3305TIP3   OH231477   1.360   6.478   1.051
 3305TIP3    H131478   1.288   6.465   0.990
 3305TIP3    H231479   1.320   6.473   1.138
 3306TIP3   OH231480   6.180   6.558   6.299
 3306TIP3    H131481   6.124   6.608   6.240
 3306TIP3    H231482   6.119   6.515   6.359
 3307TIP3   OH231483   1.855   6.363   8.063
 3307TIP3    H131484   1.888   6.375   7.974
 3307TIP3    H231485   1.791   6.293   8.056
 3308TIP3   OH231486   6.049   5.620   1.887
 3308TIP3    H131487   6.014   5.706   1.910
 3308TIP3    H231488   6.143   5.626   1.905
 3309TIP3   OH231489   2.183   3.587   7.978
 3309TIP3    H131490   2.142   3.500   7.968
 3309TIP3    H231491   2.217   3.607   7.891
 3310TIP3   OH231492   4.823   0.534   0.687
 3310TIP3    H131493   4.890   0.593   0.653
 3310TIP3    H231494   4.814   0.557   0.779
 3311TIP3   OH231495   0.162   5.151   8.359
 3311TIP3    H131496   0.131   5.115   8.442
 3311TIP3    H231497   0.258   5.141   8.364
 3312TIP3   OH231498   2.172   2.602   6.269
 3312TIP3    H131499   2.251   2.603   6.324
 3312TIP3    H231500   2.145   2.510   6.267
 3313TIP3   OH231501   6.620   1.035   6.989
 3313TIP3    H131502   6.573   1.059   7.069
 3313TIP3    H231503   6.559   1.051   6.918
 3314TIP3   OH231504   4.214   5.025   8.044
 3314TIP3    H131505   4.264   5.082   7.985
 3314TIP3    H231506   4.151   4.981   7.987
 3315TIP3   OH231507   6.208   4.104   7.471
 3315TIP3    H131508   6.289   4.061   7.497
 3315TIP3    H231509   6.184   4.157   7.547
 3316TIP3   OH231510   3.413   3.278   2.301
 3316TIP3    H131511   3.411   3.190   2.338
 3316TIP3    H231512   3.440   3.334   2.374
 3317TIP3   OH231513   4.448   3.617   7.770
 3317TIP3    H131514   4.544   3.619   7.775
 3317TIP3    H231515   4.421   3.703   7.802
 3318TIP3   OH231516   1.467   1.780   6.339
 3318TIP3    H131517   1.550   1.765   6.293
 3318TIP3    H231518   1.413   1.828   6.276
 3319TIP3   OH231519   2.296   6.359   0.674
 3319TIP3    H131520   2.258   6.276   0.645
 3319TIP3    H231521   2.221   6.412   0.699
 3320TIP3   OH231522   6.500   1.928   0.754
 3320TIP3    H131523   6.439   1.997   0.781
 3320TIP3    H231524   6.445   1.851   0.741
 3321TIP3   OH231525   3.628   6.346   6.792
 3321TIP3    H131526   3.618   6.410   6.863
 3321TIP3    H231527   3.572   6.380   6.722
 3322TIP3   OH231528   6.519   6.265   7.202
 3322TIP3    H131529   6.571   6.185   7.200
 3322TIP3    H231530   6.554   6.318   7.131
 3323TIP3   OH231531   6.827   3.489   1.296
 3323TIP3    H131532   6.878   3.487   1.214
 3323TIP3    H231533   6.765   3.561   1.284
 3324TIP3   OH231534   5.034   3.982   0.752
 3324TIP3    H131535   5.112   4.031   0.727
 3324TIP3    H231536   5.067   3.895   0.776
 3325TIP3   OH231537   1.400   1.822   1.596
 3325TIP3    H131538   1.450   1.903   1.588
 3325TIP3    H231539   1.458   1.754   1.564
 3326TIP3   OH231540   1.463   1.082   6.331
 3326TIP3    H131541   1.533   1.125   6.282
 3326TIP3    H231542   1.383   1.123   6.300
 3327TIP3   OH231543   4.615   4.388   1.403
 3327TIP3    H131544   4.703   4.349   1.402
 3327TIP3    H231545   4.560   4.323   1.447
 3328TIP3   OH231546   6.800   0.653   1.068
 3328TIP3    H131547   6.881   0.703   1.059
 3328TIP3    H231548   6.753   0.696   1.139
 3329TIP3   OH231549   5.574   4.015   7.774
 3329TIP3    H131550   5.665   4.042   7.763
 3329TIP3    H231551   5.579   3.920   7.789
 3330TIP3   OH231552   1.859   0.331   1.175
 3330TIP3    H131553   1.793   0.262   1.171
 3330TIP3    H231554   1.883   0.335   1.268
 3331TIP3   OH231555   1.685   2.411   7.059
 3331TIP3    H131556   1.758   2.353   7.038
 3331TIP3    H231557   1.723   2.499   7.061
 3332TIP3   OH231558   6.911   5.700   1.687
 3332TIP3    H131559   6.884   5.632   1.749
 3332TIP3    H231560   6.837   5.761   1.686
 3333TIP3   OH231561   3.216   1.463   8.362
 3333TIP3    H131562   3.233   1.427   8.450
 3333TIP3    H231563   3.155   1.535   8.377
 3334TIP3   OH231564   5.477   3.082   1.805
 3334TIP3    H131565   5.402   3.068   1.862
 3334TIP3    H231566   5.452   3.157   1.750
 3335TIP3   OH231567   6.496   1.674   0.526
 3335TIP3    H131568   6.434   1.703   0.593
 3335TIP3    H231569   6.441   1.632   0.460
 3336TIP3   OH231570   1.497   5.514   6.796
 3336TIP3    H131571   1.406   5.508   6.825
 3336TIP3    H231572   1.524   5.603   6.818
 3337TIP3   OH231573   0.968   1.959   0.393
 3337TIP3    H131574   1.009   2.035   0.432
 3337TIP3    H231575   1.005   1.954   0.304
 3338TIP3   OH231576   3.192   5.733   2.295
 3338TIP3    H131577   3.235   5.761   2.214
 3338TIP3    H231578   3.099   5.726   2.271
 3339TIP3   OH231579   0.696   1.312   1.681
 3339TIP3    H131580   0.744   1.230   1.671
 3339TIP3    H231581   0.693   1.326   1.776
 3340TIP3   OH231582   5.264   4.305   1.717
 3340TIP3    H131583   5.253   4.315   1.812
 3340TIP3    H231584   5.347   4.257   1.708
 3341TIP3   OH231585   4.207   6.116   0.660
 3341TIP3    H131586   4.134   6.055   0.666
 3341TIP3    H231587   4.267   6.089   0.730
 3342TIP3   OH231588   1.258   6.002   8.207
 3342TIP3    H131589   1.335   5.946   8.208
 3342TIP3    H231590   1.281   6.077   8.262
 3343TIP3   OH231591   6.304   6.761   0.236
 3343TIP3    H131592   6.348   6.680   0.210
 3343TIP3    H231593   6.375   6.825   0.242
 3344TIP3   OH231594   1.970   2.816   0.955
 3344TIP3    H131595   2.004   2.903   0.937
 3344TIP3    H231596   1.941   2.783   0.870
 3345TIP3   OH231597   4.459   0.763   1.205
 3345TIP3    H131598   4.387   0.780   1.266
 3345TIP3    H231599   4.515   0.701   1.252
 3346TIP3   OH231600   6.186   6.971   0.817
 3346TIP3    H131601   6.149   6.885   0.837
 3346TIP3    H231602   6.188   6.974   0.722
 3347TIP3   OH231603   6.316   5.893   7.414
 3347TIP3    H131604   6.307   5.976   7.367
 3347TIP3    H231605   6.227   5.859   7.420
 3348TIP3   OH231606   5.942   3.669   6.678
 3348TIP3    H131607   5.928   3.735   6.746
 3348TIP3    H231608   5.855   3.632   6.663
 3349TIP3   OH231609   5.178   2.520   7.686
 3349TIP3    H131610   5.243   2.590   7.677
 3349TIP3    H231611   5.101   2.553   7.640
 3350TIP3   OH231612   6.111   0.951   6.287
 3350TIP3    H131613   6.205   0.939   6.296
 3350TIP3    H231614   6.101   1.041   6.256
 3351TIP3   OH231615   5.487   3.798   7.501
 3351TIP3    H131616   5.478   3.781   7.594
 3351TIP3    H231617   5.495   3.712   7.461
 3352TIP3   OH231618   1.699   5.155   1.716
 3352TIP3    H131619   1.750   5.220   1.765
 3352TIP3    H231620   1.762   5.118   1.654
 3353TIP3   OH231621   1.243   4.065   0.398
 3353TIP3    H131622   1.218   4.154   0.375
 3353TIP3    H231623   1.241   4.064   0.494
 3354TIP3   OH231624   0.883   6.114   7.621
 3354TIP3    H131625   0.807   6.091   7.674
 3354TIP3    H231626   0.879   6.210   7.613
 3355TIP3   OH231627   5.712   2.634   8.182
 3355TIP3    H131628   5.749   2.568   8.241
 3355TIP3    H231629   5.674   2.700   8.240
 3356TIP3   OH231630   5.804   5.068   6.591
 3356TIP3    H131631   5.728   5.115   6.627
 3356TIP3    H231632   5.770   4.981   6.569
 3357TIP3   OH231633   6.733   4.747   7.074
 3357TIP3    H131634   6.688   4.665   7.093
 3357TIP3    H231635   6.703   4.808   7.142
 3358TIP3   OH231636   2.931   5.088   2.318
 3358TIP3    H131637   2.882   5.162   2.283
 3358TIP3    H231638   3.020   5.100   2.284
 3359TIP3   OH231639   2.928   0.005   0.033
 3359TIP3    H131640   3.009  -0.044   0.043
 3359TIP3    H231641   2.901  -0.013  -0.057
 3360TIP3   OH231642   3.977   1.110   8.150
 3360TIP3    H131643   3.969   1.202   8.174
 3360TIP3    H231644   4.008   1.112   8.059
 3361TIP3   OH231645   5.458   0.093   8.121
 3361TIP3    H131646   5.538   0.054   8.156
 3361TIP3    H231647   5.419   0.023   8.069
 3362TIP3   OH231648   3.714   5.209   0.267
 3362TIP3    H131649   3.756   5.253   0.193
 3362TIP3    H231650   3.754   5.122   0.269
 3363TIP3   OH231651   3.078   2.970   0.220
 3363TIP3    H131652   3.074   2.988   0.314
 3363TIP3    H231653   3.117   2.883   0.214
 3364TIP3   OH231654   1.003   1.207   8.293
 3364TIP3    H131655   1.082   1.253   8.265
 3364TIP3    H231656   1.022   1.114   8.275
 3365TIP3   OH231657   6.929   3.199   6.718
 3365TIP3    H131658   6.979   3.130   6.674
 3365TIP3    H231659   6.991   3.271   6.727
 3366TIP3   OH231660   5.663   2.641   1.171
 3366TIP3    H131661   5.673   2.632   1.265
 3366TIP3    H231662   5.569   2.644   1.156
 3367TIP3   OH231663   5.906   4.334   1.043
 3367TIP3    H131664   5.837   4.387   1.081
 3367TIP3    H231665   5.915   4.367   0.953
 3368TIP3   OH231666   1.808   5.000   0.774
 3368TIP3    H131667   1.828   4.947   0.697
 3368TIP3    H231668   1.716   5.025   0.762
 3369TIP3   OH231669   4.989   6.937   1.655
 3369TIP3    H131670   4.940   7.018   1.671
 3369TIP3    H231671   4.938   6.892   1.588
 3370TIP3   OH231672   1.890   2.107   8.355
 3370TIP3    H131673   1.873   2.103   8.261
 3370TIP3    H231674   1.854   2.191   8.382
 3371TIP3   OH231675   5.741   2.391   0.532
 3371TIP3    H131676   5.744   2.485   0.550
 3371TIP3    H231677   5.671   2.382   0.467
 3372TIP3   OH231678   5.893   5.090   0.601
 3372TIP3    H131679   5.893   5.094   0.505
 3372TIP3    H231680   5.983   5.112   0.626
 3373TIP3   OH231681   1.916   0.626   7.152
 3373TIP3    H131682   1.875   0.643   7.067
 3373TIP3    H231683   1.976   0.700   7.165
 3374TIP3   OH231684   0.108   1.152   7.378
 3374TIP3    H131685   0.122   1.061   7.405
 3374TIP3    H231686   0.186   1.198   7.408
 3375TIP3   OH231687   3.927   3.356   7.957
 3375TIP3    H131688   3.869   3.337   8.031
 3375TIP3    H231689   4.015   3.346   7.993
 3376TIP3   OH231690   3.040   2.857   1.502
 3376TIP3    H131691   3.088   2.791   1.453
 3376TIP3    H231692   3.094   2.875   1.579
 3377TIP3   OH231693   1.969   5.887   1.241
 3377TIP3    H131694   2.020   5.812   1.271
 3377TIP3    H231695   2.010   5.911   1.157
 3378TIP3   OH231696   2.605   5.567   1.767
 3378TIP3    H131697   2.603   5.530   1.679
 3378TIP3    H231698   2.606   5.492   1.826
 3379TIP3   OH231699   6.481   2.951   6.846
 3379TIP3    H131700   6.458   2.885   6.781
 3379TIP3    H231701   6.575   2.965   6.834
 3380TIP3   OH231702   4.715   3.112   7.083
 3380TIP3    H131703   4.713   3.055   7.006
 3380TIP3    H231704   4.807   3.138   7.091
 3381TIP3   OH231705   0.939   2.881   7.091
 3381TIP3    H131706   0.859   2.932   7.101
 3381TIP3    H231707   0.985   2.923   7.018
 3382TIP3   OH231708   6.024   5.221   0.923
 3382TIP3    H131709   6.049   5.154   0.986
 3382TIP3    H231710   6.096   5.223   0.860
 3383TIP3   OH231711   1.430   6.695   6.231
 3383TIP3    H131712   1.417   6.603   6.257
 3383TIP3    H231713   1.419   6.695   6.136
 3384TIP3   OH231714   1.460   6.640   8.392
 3384TIP3    H131715   1.407   6.615   8.317
 3384TIP3    H231716   1.461   6.736   8.389
 3385TIP3   OH231717   4.128   6.255   7.690
 3385TIP3    H131718   4.130   6.244   7.595
 3385TIP3    H231719   4.115   6.166   7.724
 3386TIP3   OH231720   6.336   1.150   1.651
 3386TIP3    H131721   6.390   1.106   1.586
 3386TIP3    H231722   6.338   1.243   1.626
 3387TIP3   OH231723   1.070   0.269   7.305
 3387TIP3    H131724   1.098   0.238   7.391
 3387TIP3    H231725   1.036   0.357   7.320
 3388TIP3   OH231726   3.655   0.764   7.660
 3388TIP3    H131727   3.598   0.839   7.675
 3388TIP3    H231728   3.658   0.720   7.745
 3389TIP3   OH231729   3.016   6.179   0.579
 3389TIP3    H131730   2.925   6.173   0.608
 3389TIP3    H231731   3.067   6.179   0.661
 3390TIP3   OH231732   5.038   0.673   8.042
 3390TIP3    H131733   5.064   0.754   8.085
 3390TIP3    H231734   4.944   0.684   8.026
 3391TIP3   OH231735   6.695   5.464   0.509
 3391TIP3    H131736   6.766   5.401   0.502
 3391TIP3    H231737   6.641   5.449   0.431
 3392TIP3   OH231738   4.333   6.982   0.273
 3392TIP3    H131739   4.378   6.898   0.281
 3392TIP3    H231740   4.380   7.040   0.333
 3393TIP3   OH231741   4.318   1.701   6.023
 3393TIP3    H131742   4.397   1.721   6.073
 3393TIP3    H231743   4.334   1.614   5.986
 3394TIP3   OH231744   1.747   2.973   7.680
 3394TIP3    H131745   1.809   3.033   7.638
 3394TIP3    H231746   1.780   2.885   7.658
 3395TIP3   OH231747   6.697   6.071   6.215
 3395TIP3    H131748   6.675   5.991   6.263
 3395TIP3    H231749   6.762   6.115   6.270
 3396TIP3   OH231750   1.116   5.973   7.648
 3396TIP3    H131751   1.113   5.995   7.742
 3396TIP3    H231752   1.041   6.019   7.611
 3397TIP3   OH231753   3.320   2.390   1.088
 3397TIP3    H131754   3.266   2.375   1.010
 3397TIP3    H231755   3.278   2.464   1.132
 3398TIP3   OH231756   3.684   4.782   6.808
 3398TIP3    H131757   3.644   4.867   6.826
 3398TIP3    H231758   3.778   4.800   6.804
 3399TIP3   OH231759   0.678   4.927   0.699
 3399TIP3    H131760   0.607   4.963   0.645
 3399TIP3    H231761   0.685   4.836   0.672
 3400TIP3   OH231762   4.449   0.250   7.363
 3400TIP3    H131763   4.483   0.325   7.315
 3400TIP3    H231764   4.522   0.188   7.366
 3401TIP3   OH231765   5.694   5.193   7.610
 3401TIP3    H131766   5.753   5.197   7.685
 3401TIP3    H231767   5.609   5.219   7.645
 3402TIP3   OH231768   1.020   5.848   7.354
 3402TIP3    H131769   1.053   5.931   7.390
 3402TIP3    H231770   0.977   5.873   7.272
 3403TIP3   OH231771   3.171   3.823   2.528
 3403TIP3    H131772   3.211   3.802   2.444
 3403TIP3    H231773   3.077   3.830   2.509
 3404TIP3   OH231774   1.744   0.403   6.410
 3404TIP3    H131775   1.679   0.335   6.390
 3404TIP3    H231776   1.734   0.420   6.504
 3405TIP3   OH231777   3.221   1.402   0.443
 3405TIP3    H131778   3.248   1.493   0.433
 3405TIP3    H231779   3.185   1.397   0.532
 3406TIP3   OH231780   4.470   5.381   8.073
 3406TIP3    H131781   4.526   5.312   8.108
 3406TIP3    H231782   4.479   5.375   7.978
 3407TIP3   OH231783   6.362   2.064   7.442
 3407TIP3    H131784   6.360   1.968   7.446
 3407TIP3    H231785   6.317   2.086   7.361
 3408TIP3   OH231786   0.965   3.238   6.954
 3408TIP3    H131787   0.969   3.225   7.048
 3408TIP3    H231788   0.983   3.331   6.941
 3409TIP3   OH231789   2.176   4.525   7.540
 3409TIP3    H131790   2.151   4.487   7.456
 3409TIP3    H231791   2.232   4.458   7.581
 3410TIP3   OH231792   5.552   1.567   0.815
 3410TIP3    H131793   5.576   1.640   0.757
 3410TIP3    H231794   5.585   1.593   0.901
 3411TIP3   OH231795   5.398   0.209   6.903
 3411TIP3    H131796   5.324   0.238   6.955
 3411TIP3    H231797   5.470   0.268   6.927
 3412TIP3   OH231798   1.206   3.382   5.999
 3412TIP3    H131799   1.125   3.400   5.951
 3412TIP3    H231800   1.262   3.457   5.979
 3413TIP3   OH231801   4.342   0.414   1.103
 3413TIP3    H131802   4.251   0.386   1.102
 3413TIP3    H231803   4.340   0.503   1.066
 3414TIP3   OH231804   0.211   6.122   0.815
 3414TIP3    H131805   0.293   6.162   0.845
 3414TIP3    H231806   0.229   6.028   0.816
 3415TIP3   OH231807   2.412   5.244   7.661
 3415TIP3    H131808   2.351   5.179   7.626
 3415TIP3    H231809   2.441   5.208   7.745
 3416TIP3   OH231810   2.852   3.308   6.240
 3416TIP3    H131811   2.907   3.242   6.282
 3416TIP3    H231812   2.908   3.386   6.235
 3417TIP3   OH231813   5.298   5.710   7.814
 3417TIP3    H131814   5.263   5.758   7.739
 3417TIP3    H231815   5.370   5.765   7.846
 3418TIP3   OH231816   1.402   1.509   2.194
 3418TIP3    H131817   1.424   1.458   2.116
 3418TIP3    H231818   1.487   1.528   2.234
 3419TIP3   OH231819   5.690   6.544   0.771
 3419TIP3    H131820   5.739   6.466   0.742
 3419TIP3    H231821   5.743   6.618   0.741
 3420TIP3   OH231822   6.599   6.989   6.625
 3420TIP3    H131823   6.610   6.919   6.689
 3420TIP3    H231824   6.661   6.967   6.555
 3421TIP3   OH231825   2.327   6.877   7.143
 3421TIP3    H131826   2.294   6.882   7.053
 3421TIP3    H231827   2.255   6.910   7.197
 3422TIP3   OH231828   6.001   3.424   7.343
 3422TIP3    H131829   6.017   3.384   7.428
 3422TIP3    H231830   5.992   3.349   7.283
 3423TIP3   OH231831   3.114   6.238   6.907
 3423TIP3    H131832   3.093   6.149   6.934
 3423TIP3    H231833   3.114   6.234   6.811
 3424TIP3   OH231834   2.826   6.917   1.319
 3424TIP3    H131835   2.916   6.942   1.342
 3424TIP3    H231836   2.833   6.882   1.230
 3425TIP3   OH231837   1.473   4.104   7.945
 3425TIP3    H131838   1.549   4.130   7.893
 3425TIP3    H231839   1.420   4.052   7.884
 3426TIP3   OH231840   0.649   5.682   7.853
 3426TIP3    H131841   0.714   5.666   7.784
 3426TIP3    H231842   0.668   5.618   7.920
 3427TIP3   OH231843   4.291   6.514   7.389
 3427TIP3    H131844   4.249   6.451   7.332
 3427TIP3    H231845   4.219   6.552   7.440
 3428TIP3   OH231846   3.174   3.501   8.009
 3428TIP3    H131847   3.169   3.477   7.917
 3428TIP3    H231848   3.252   3.456   8.042
 3429TIP3   OH231849   3.695   6.071   0.760
 3429TIP3    H131850   3.657   6.073   0.848
 3429TIP3    H231851   3.626   6.033   0.705
 3430TIP3   OH231852   5.187   2.572   2.007
 3430TIP3    H131853   5.222   2.556   2.095
 3430TIP3    H231854   5.145   2.489   1.983
 3431TIP3   OH231855   2.672   4.775   6.987
 3431TIP3    H131856   2.595   4.780   6.930
 3431TIP3    H231857   2.689   4.681   6.996
 3432TIP3   OH231858   4.401   1.348   1.305
 3432TIP3    H131859   4.455   1.414   1.261
 3432TIP3    H231860   4.414   1.269   1.254
 3433TIP3   OH231861   3.788   0.959   8.285
 3433TIP3    H131862   3.714   0.939   8.227
 3433TIP3    H231863   3.850   1.006   8.229
 3434TIP3   OH231864   6.177   1.301   7.587
 3434TIP3    H131865   6.085   1.303   7.611
 3434TIP3    H231866   6.180   1.335   7.497
 3435TIP3   OH231867   1.233   0.466   7.911
 3435TIP3    H131868   1.322   0.500   7.917
 3435TIP3    H231869   1.187   0.507   7.985
 3436TIP3   OH231870   1.429   0.923   5.835
 3436TIP3    H131871   1.483   0.915   5.913
 3436TIP3    H231872   1.365   0.852   5.843
 3437TIP3   OH231873   6.134   2.500   1.113
 3437TIP3    H131874   6.184   2.452   1.048
 3437TIP3    H231875   6.168   2.470   1.197
 3438TIP3   OH231876   6.666   6.439   1.040
 3438TIP3    H131877   6.674   6.368   1.103
 3438TIP3    H231878   6.749   6.486   1.046
 3439TIP3   OH231879   1.396   2.704   1.874
 3439TIP3    H131880   1.385   2.797   1.894
 3439TIP3    H231881   1.313   2.664   1.900
 3440TIP3   OH231882   4.008   4.871   0.056
 3440TIP3    H131883   3.992   4.901  -0.033
 3440TIP3    H231884   4.100   4.891   0.073
 3441TIP3   OH231885   5.986   0.882   7.048
 3441TIP3    H131886   5.929   0.808   7.068
 3441TIP3    H231887   6.059   0.843   7.000
 3442TIP3   OH231888   0.449   2.096   2.127
 3442TIP3    H131889   0.381   2.157   2.157
 3442TIP3    H231890   0.511   2.150   2.079
 3443TIP3   OH231891   5.897   0.471   6.818
 3443TIP3    H131892   5.924   0.516   6.738
 3443TIP3    H231893   5.867   0.384   6.788
 3444TIP3   OH231894   1.483   4.858   2.129
 3444TIP3    H131895   1.396   4.892   2.151
 3444TIP3    H231896   1.519   4.924   2.069
 3445TIP3   OH231897   0.180   4.635   6.738
 3445TIP3    H131898   0.112   4.667   6.678
 3445TIP3    H231899   0.143   4.555   6.775
 3446TIP3   OH231900   3.505   0.157   7.298
 3446TIP3    H131901   3.498   0.077   7.246
 3446TIP3    H231902   3.594   0.156   7.332
 3447TIP3   OH231903   5.576   1.849   6.709
 3447TIP3    H131904   5.510   1.903   6.754
 3447TIP3    H231905   5.635   1.913   6.668
 3448TIP3   OH231906   1.394   6.863   0.273
 3448TIP3    H131907   1.465   6.905   0.224
 3448TIP3    H231908   1.439   6.815   0.342
 3449TIP3   OH231909   2.932   2.046   7.548
 3449TIP3    H131910   2.969   2.121   7.594
 3449TIP3    H231911   3.008   2.000   7.512
 3450TIP3   OH231912   0.258   2.579   6.129
 3450TIP3    H131913   0.175   2.606   6.089
 3450TIP3    H231914   0.264   2.631   6.209
 3451TIP3   OH231915   2.236   6.559   8.325
 3451TIP3    H131916   2.292   6.513   8.261
 3451TIP3    H231917   2.152   6.513   8.320
 3452TIP3   OH231918   6.040   0.328   6.325
 3452TIP3    H131919   5.971   0.266   6.346
 3452TIP3    H231920   5.997   0.414   6.329
 3453TIP3   OH231921   6.395   3.118   7.825
 3453TIP3    H131922   6.365   3.028   7.835
 3453TIP3    H231923   6.488   3.110   7.805
 3454TIP3   OH231924   3.486   5.837   1.556
 3454TIP3    H131925   3.455   5.823   1.645
 3454TIP3    H231926   3.566   5.890   1.566
 3455TIP3   OH231927   2.770   3.004   1.263
 3455TIP3    H131928   2.757   3.069   1.331
 3455TIP3    H231929   2.740   2.922   1.302
 3456TIP3   OH231930   4.018   2.699   0.903
 3456TIP3    H131931   4.112   2.681   0.902
 3456TIP3    H231932   3.996   2.708   0.996
 3457TIP3   OH231933   3.880   1.827   0.901
 3457TIP3    H131934   3.914   1.740   0.881
 3457TIP3    H231935   3.912   1.845   0.989
 3458TIP3   OH231936   4.522   4.302   7.867
 3458TIP3    H131937   4.441   4.280   7.822
 3458TIP3    H231938   4.579   4.337   7.798
 3459TIP3   OH231939   1.576   4.113   1.241
 3459TIP3    H131940   1.591   4.069   1.325
 3459TIP3    H231941   1.504   4.065   1.201
 3460TIP3   OH231942   4.584   0.371   7.114
 3460TIP3    H131943   4.513   0.420   7.153
 3460TIP3    H231944   4.605   0.418   7.033
 3461TIP3   OH231945   2.728   2.304   6.545
 3461TIP3    H131946   2.686   2.387   6.522
 3461TIP3    H231947   2.755   2.267   6.462
 3462TIP3   OH231948   0.506   1.017   6.115
 3462TIP3    H131949   0.501   1.112   6.107
 3462TIP3    H231950   0.436   0.994   6.177
 3463TIP3   OH231951   0.310   0.551   0.645
 3463TIP3    H131952   0.246   0.606   0.599
 3463TIP3    H231953   0.257   0.492   0.699
 3464TIP3   OH231954   2.917   1.361   0.841
 3464TIP3    H131955   2.842   1.411   0.875
 3464TIP3    H231956   2.956   1.321   0.919
 3465TIP3   OH231957   5.451   6.068   6.817
 3465TIP3    H131958   5.496   6.075   6.733
 3465TIP3    H231959   5.391   5.995   6.806
 3466TIP3   OH231960   1.919   6.031   6.892
 3466TIP3    H131961   1.919   5.976   6.813
 3466TIP3    H231962   1.919   6.120   6.858
 3467TIP3   OH231963   5.865   5.843   7.651
 3467TIP3    H131964   5.900   5.928   7.627
 3467TIP3    H231965   5.774   5.845   7.619
 3468TIP3   OH231966   5.688   1.102   7.127
 3468TIP3    H131967   5.739   1.076   7.203
 3468TIP3    H231968   5.751   1.105   7.055
 3469TIP3   OH231969   3.926   1.169   1.644
 3469TIP3    H131970   4.015   1.200   1.663
 3469TIP3    H231971   3.938   1.093   1.587
 3470TIP3   OH231972   3.677   3.674   1.189
 3470TIP3    H131973   3.732   3.664   1.266
 3470TIP3    H231974   3.718   3.618   1.123
 3471TIP3   OH231975   3.502   4.426   7.365
 3471TIP3    H131976   3.503   4.336   7.332
 3471TIP3    H231977   3.440   4.472   7.307
 3472TIP3   OH231978   4.529   2.655   0.091
 3472TIP3    H131979   4.548   2.561   0.097
 3472TIP3    H231980   4.592   2.696   0.149
 3473TIP3   OH231981   3.354   4.385   1.778
 3473TIP3    H131982   3.273   4.397   1.727
 3473TIP3    H231983   3.341   4.303   1.825
 3474TIP3   OH231984   4.184   3.524   7.622
 3474TIP3    H131985   4.272   3.538   7.656
 3474TIP3    H231986   4.127   3.570   7.684
 3475TIP3   OH231987   2.359   1.475   6.906
 3475TIP3    H131988   2.288   1.440   6.852
 3475TIP3    H231989   2.334   1.454   6.996
 3476TIP3   OH231990   0.810   4.696   2.158
 3476TIP3    H131991   0.887   4.749   2.137
 3476TIP3    H231992   0.842   4.633   2.222
 3477TIP3   OH231993   5.729   2.388   0.858
 3477TIP3    H131994   5.734   2.309   0.804
 3477TIP3    H231995   5.678   2.450   0.807
 3478TIP3   OH231996   4.837   3.978   2.533
 3478TIP3    H131997   4.838   4.004   2.441
 3478TIP3    H231998   4.929   3.973   2.558
 3479TIP3   OH231999   0.267   4.867   7.161
 3479TIP3    H132000   0.221   4.879   7.244
 3479TIP3    H232001   0.202   4.830   7.102
 3480TIP3   OH232002   0.543   5.235   7.243
 3480TIP3    H132003   0.602   5.300   7.281
 3480TIP3    H232004   0.487   5.208   7.316
 3481TIP3   OH232005   5.187   4.515   1.579
 3481TIP3    H132006   5.183   4.563   1.662
 3481TIP3    H232007   5.186   4.423   1.605
 3482TIP3   OH232008   3.342   2.781   0.551
 3482TIP3    H132009   3.342   2.691   0.584
 3482TIP3    H232010   3.424   2.818   0.583
 3483TIP3   OH232011   2.813   5.949   7.968
 3483TIP3    H132012   2.719   5.956   7.984
 3483TIP3    H232013   2.819   5.917   7.877
 3484TIP3   OH232014   5.475   0.441   0.699
 3484TIP3    H132015   5.557   0.480   0.669
 3484TIP3    H232016   5.432   0.511   0.748
 3485TIP3   OH232017   6.779   6.097   7.293
 3485TIP3    H132018   6.815   6.086   7.205
 3485TIP3    H232019   6.849   6.066   7.351
 3486TIP3   OH232020   1.910   2.191   8.042
 3486TIP3    H132021   1.991   2.159   8.003
 3486TIP3    H232022   1.857   2.113   8.054
 3487TIP3   OH232023   4.615   2.583   1.241
 3487TIP3    H132024   4.637   2.657   1.185
 3487TIP3    H232025   4.670   2.594   1.319
 3488TIP3   OH232026   0.283   2.941   6.973
 3488TIP3    H132027   0.366   2.898   6.952
 3488TIP3    H232028   0.296   3.032   6.945
 3489TIP3   OH232029   5.087   0.874   2.465
 3489TIP3    H132030   5.175   0.909   2.452
 3489TIP3    H232031   5.030   0.929   2.411
 3490TIP3   OH232032   4.966   1.022   6.745
 3490TIP3    H132033   4.923   1.106   6.733
 3490TIP3    H232034   4.905   0.958   6.709
 3491TIP3   OH232035   6.414   2.359   7.623
 3491TIP3    H132036   6.497   2.349   7.670
 3491TIP3    H232037   6.432   2.423   7.555
 3492TIP3   OH232038   5.342   1.691   8.032
 3492TIP3    H132039   5.434   1.717   8.024
 3492TIP3    H232040   5.331   1.620   7.968
 3493TIP3   OH232041   1.713   3.838   0.433
 3493TIP3    H132042   1.729   3.818   0.341
 3493TIP3    H232043   1.682   3.929   0.433
 3494TIP3   OH232044   0.601   2.047   7.617
 3494TIP3    H132045   0.506   2.053   7.618
 3494TIP3    H232046   0.629   2.079   7.703
 3495TIP3   OH232047   3.767   0.716   7.407
 3495TIP3    H132048   3.708   0.734   7.480
 3495TIP3    H232049   3.821   0.794   7.399
 3496TIP3   OH232050   5.389   4.050   7.352
 3496TIP3    H132051   5.394   3.990   7.426
 3496TIP3    H232052   5.296   4.070   7.343
 3497TIP3   OH232053   6.734   6.989   1.433
 3497TIP3    H132054   6.815   7.017   1.476
 3497TIP3    H232055   6.733   7.036   1.350
 3498TIP3   OH232056   0.326   0.944   0.772
 3498TIP3    H132057   0.324   0.908   0.684
 3498TIP3    H232058   0.310   0.869   0.829
 3499TIP3   OH232059   6.094   2.370   6.292
 3499TIP3    H132060   6.123   2.461   6.286
 3499TIP3    H232061   6.152   2.323   6.233
 3500TIP3   OH232062   4.015   5.763   2.170
 3500TIP3    H132063   3.937   5.811   2.200
 3500TIP3    H232064   3.983   5.674   2.155
 3501TIP3   OH232065   5.593   5.644   7.646
 3501TIP3    H132066   5.576   5.614   7.556
 3501TIP3    H232067   5.570   5.737   7.645
 3502TIP3   OH232068   0.012   2.301   0.801
 3502TIP3    H132069  -0.066   2.356   0.807
 3502TIP3    H232070   0.011   2.250   0.882
 3503TIP3   OH232071   1.966   4.966   0.269
 3503TIP3    H132072   2.001   4.907   0.336
 3503TIP3    H232073   1.996   4.930   0.186
 3504TIP3   OH232074   1.907   1.209   7.167
 3504TIP3    H132075   1.871   1.211   7.256
 3504TIP3    H232076   1.967   1.134   7.167
 3505TIP3   OH232077   6.564   3.618   7.350
 3505TIP3    H132078   6.487   3.574   7.386
 3505TIP3    H232079   6.545   3.630   7.257
 3506TIP3   OH232080   3.055   1.739   0.833
 3506TIP3    H132081   3.095   1.816   0.872
 3506TIP3    H232082   3.129   1.681   0.813
 3507TIP3   OH232083   0.947   6.743   1.130
 3507TIP3    H132084   0.860   6.765   1.097
 3507TIP3    H232085   0.980   6.678   1.067
 3508TIP3   OH232086   0.462   1.156   0.717
 3508TIP3    H132087   0.555   1.138   0.732
 3508TIP3    H232088   0.417   1.081   0.755
 3509TIP3   OH232089   4.174   3.966   6.004
 3509TIP3    H132090   4.121   4.032   5.960
 3509TIP3    H232091   4.252   4.013   6.032
 3510TIP3   OH232092   5.005   0.383   8.000
 3510TIP3    H132093   5.033   0.474   8.014
 3510TIP3    H232094   5.071   0.347   7.941
 3511TIP3   OH232095   4.634   3.104   0.769
 3511TIP3    H132096   4.612   3.055   0.848
 3511TIP3    H232097   4.668   3.039   0.708
 3512TIP3   OH232098   4.915   2.037   8.312
 3512TIP3    H132099   4.880   2.109   8.261
 3512TIP3    H232100   4.906   2.065   8.403
 3513TIP3   OH232101   6.558   4.127   8.271
 3513TIP3    H132102   6.475   4.158   8.307
 3513TIP3    H232103   6.598   4.077   8.342
 3514TIP3   OH232104   2.992   4.480   7.516
 3514TIP3    H132105   2.941   4.545   7.564
 3514TIP3    H232106   2.927   4.428   7.470
 3515TIP3   OH232107   6.141   3.699   0.503
 3515TIP3    H132108   6.155   3.650   0.584
 3515TIP3    H232109   6.088   3.642   0.448
 3516TIP3   OH232110   4.926   2.236   6.235
 3516TIP3    H132111   4.855   2.263   6.294
 3516TIP3    H232112   4.882   2.216   6.153
 3517TIP3   OH232113   3.241   5.331   1.995
 3517TIP3    H132114   3.324   5.305   1.954
 3517TIP3    H232115   3.234   5.425   1.976
 3518TIP3   OH232116   1.137   5.749   6.535
 3518TIP3    H132117   1.057   5.702   6.509
 3518TIP3    H232118   1.205   5.681   6.536
 3519TIP3   OH232119   3.490   0.961   0.254
 3519TIP3    H132120   3.505   0.973   0.348
 3519TIP3    H232121   3.493   1.049   0.218
 3520TIP3   OH232122   3.081   5.677   1.256
 3520TIP3    H132123   3.130   5.735   1.315
 3520TIP3    H232124   3.148   5.630   1.207
 3521TIP3   OH232125   1.808   4.655   0.049
 3521TIP3    H132126   1.794   4.602  -0.030
 3521TIP3    H232127   1.722   4.692   0.068
 3522TIP3   OH232128   1.246   3.380   0.016
 3522TIP3    H132129   1.296   3.397   0.096
 3522TIP3    H232130   1.208   3.464  -0.007
 3523TIP3   OH232131   5.296   5.014   0.018
 3523TIP3    H132132   5.337   5.077  -0.040
 3523TIP3    H232133   5.233   4.968  -0.037
 3524TIP3   OH232134   5.398   1.101   1.640
 3524TIP3    H132135   5.465   1.123   1.705
 3524TIP3    H232136   5.362   1.186   1.614
 3525TIP3   OH232137   5.887   1.032   7.324
 3525TIP3    H132138   5.937   0.951   7.315
 3525TIP3    H232139   5.941   1.099   7.283
 3526TIP3   OH232140   4.463   1.136   2.315
 3526TIP3    H132141   4.394   1.108   2.376
 3526TIP3    H232142   4.544   1.107   2.355
 3527TIP3   OH232143   4.709   2.321   0.511
 3527TIP3    H132144   4.762   2.312   0.590
 3527TIP3    H232145   4.667   2.235   0.500
 3528TIP3   OH232146   1.149   1.690   1.586
 3528TIP3    H132147   1.108   1.718   1.504
 3528TIP3    H232148   1.214   1.757   1.603
 3529TIP3   OH232149   2.372   1.351   7.993
 3529TIP3    H132150   2.411   1.412   7.930
 3529TIP3    H232151   2.430   1.275   7.992
 3530TIP3   OH232152   4.026   6.499   7.824
 3530TIP3    H132153   4.051   6.424   7.769
 3530TIP3    H232154   4.040   6.468   7.913
 3531TIP3   OH232155   1.998   2.503   0.606
 3531TIP3    H132156   2.079   2.554   0.610
 3531TIP3    H232157   1.931   2.562   0.642
 3532TIP3   OH232158   0.429   1.014   1.569
 3532TIP3    H132159   0.432   1.099   1.611
 3532TIP3    H232160   0.351   0.971   1.604
 3533TIP3   OH232161   6.123   3.769   8.117
 3533TIP3    H132162   6.133   3.856   8.080
 3533TIP3    H232163   6.086   3.716   8.046
 3534TIP3   OH232164   5.328   4.583   2.083
 3534TIP3    H132165   5.276   4.580   2.163
 3534TIP3    H232166   5.395   4.515   2.095
 3535TIP3   OH232167   4.889   5.961   7.147
 3535TIP3    H132168   4.854   5.880   7.183
 3535TIP3    H232169   4.984   5.951   7.153
 3536TIP3   OH232170   3.133   1.946   0.989
 3536TIP3    H132171   3.060   1.999   1.021
 3536TIP3    H232172   3.154   1.888   1.062
 3537TIP3   OH232173   4.936   1.077   7.813
 3537TIP3    H132174   4.897   1.111   7.733
 3537TIP3    H232175   4.925   1.147   7.877
 3538TIP3   OH232176   3.004   5.048   7.933
 3538TIP3    H132177   2.947   4.992   7.880
 3538TIP3    H232178   3.068   5.084   7.871
 3539TIP3   OH232179   2.993   6.060   1.021
 3539TIP3    H132180   2.989   6.053   1.117
 3539TIP3    H232181   2.903   6.077   0.994
 3540TIP3   OH232182   0.982   0.601   6.663
 3540TIP3    H132183   0.944   0.590   6.576
 3540TIP3    H232184   1.060   0.545   6.663
 3541TIP3   OH232185   0.398   2.943   0.137
 3541TIP3    H132186   0.418   2.849   0.144
 3541TIP3    H232187   0.344   2.950   0.058
 3542TIP3   OH232188   0.887   4.936   6.535
 3542TIP3    H132189   0.794   4.945   6.514
 3542TIP3    H232190   0.929   4.915   6.452
 3543TIP3   OH232191   6.381   1.066   0.785
 3543TIP3    H132192   6.327   1.086   0.862
 3543TIP3    H232193   6.463   1.034   0.821
 3544TIP3   OH232194   6.662   2.991   7.671
 3544TIP3    H132195   6.629   2.904   7.648
 3544TIP3    H232196   6.757   2.980   7.673
 3545TIP3   OH232197   5.621   1.197   0.457
 3545TIP3    H132198   5.686   1.128   0.468
 3545TIP3    H232199   5.627   1.249   0.537
 3546TIP3   OH232200   2.303   3.212   7.781
 3546TIP3    H132201   2.225   3.168   7.747
 3546TIP3    H232202   2.285   3.305   7.767
 3547TIP3   OH232203   6.176   5.308   8.090
 3547TIP3    H132204   6.180   5.221   8.129
 3547TIP3    H232205   6.241   5.307   8.020
 3548TIP3   OH232206   6.542   6.098   1.054
 3548TIP3    H132207   6.492   6.051   0.987
 3548TIP3    H232208   6.633   6.087   1.028
 3549TIP3   OH232209   6.232   4.811   0.972
 3549TIP3    H132210   6.160   4.751   0.993
 3549TIP3    H232211   6.263   4.782   0.886
 3550TIP3   OH232212   2.100   5.892   6.139
 3550TIP3    H132213   2.020   5.850   6.171
 3550TIP3    H232214   2.081   5.986   6.143
 3551TIP3   OH232215   5.969   2.882   8.251
 3551TIP3    H132216   6.009   2.921   8.329
 3551TIP3    H232217   6.039   2.832   8.211
 3552TIP3   OH232218   5.192   3.050   8.227
 3552TIP3    H132219   5.222   3.127   8.275
 3552TIP3    H232220   5.153   2.993   8.293
 3553TIP3   OH232221   5.847   0.054   1.729
 3553TIP3    H132222   5.804   0.044   1.814
 3553TIP3    H232223   5.791   0.005   1.668
 3554TIP3   OH232224   0.401   1.548   1.247
 3554TIP3    H132225   0.453   1.497   1.310
 3554TIP3    H232226   0.455   1.551   1.168
 3555TIP3   OH232227   4.943   5.342   0.389
 3555TIP3    H132228   4.991   5.284   0.331
 3555TIP3    H232229   5.010   5.384   0.443
 3556TIP3   OH232230   3.465   5.821   7.806
 3556TIP3    H132231   3.421   5.898   7.771
 3556TIP3    H232232   3.394   5.764   7.834
 3557TIP3   OH232233   1.028   5.552   8.388
 3557TIP3    H132234   1.057   5.609   8.316
 3557TIP3    H232235   1.051   5.600   8.467
 3558TIP3   OH232236   3.305   4.997   6.196
 3558TIP3    H132237   3.354   5.054   6.137
 3558TIP3    H232238   3.347   4.911   6.187
 3559TIP3   OH232239   0.925   6.515   5.992
 3559TIP3    H132240   0.845   6.521   5.938
 3559TIP3    H232241   0.961   6.429   5.971
 3560TIP3   OH232242   2.063   5.392   0.426
 3560TIP3    H132243   2.015   5.351   0.354
 3560TIP3    H232244   1.998   5.401   0.496
 3561TIP3   OH232245   1.819   5.616   6.983
 3561TIP3    H132246   1.816   5.632   6.889
 3561TIP3    H232247   1.882   5.681   7.016
 3562TIP3   OH232248   1.055   1.457   6.901
 3562TIP3    H132249   1.141   1.452   6.861
 3562TIP3    H232250   1.000   1.498   6.835
 3563TIP3   OH232251   4.684   4.923   1.876
 3563TIP3    H132252   4.664   4.997   1.935
 3563TIP3    H232253   4.778   4.908   1.889
 3564TIP3   OH232254   1.371   3.147   7.110
 3564TIP3    H132255   1.342   3.215   7.171
 3564TIP3    H232256   1.342   3.177   7.024
 3565TIP3   OH232257   6.663   1.870   7.954
 3565TIP3    H132258   6.680   1.881   8.047
 3565TIP3    H232259   6.613   1.789   7.948
 3566TIP3   OH232260   4.693   2.376   7.852
 3566TIP3    H132261   4.649   2.303   7.896
 3566TIP3    H232262   4.686   2.356   7.759
 3567TIP3   OH232263   4.438   2.349   1.541
 3567TIP3    H132264   4.435   2.438   1.575
 3567TIP3    H232265   4.411   2.357   1.450
 3568TIP3   OH232266   6.622   4.038   1.598
 3568TIP3    H132267   6.713   4.046   1.569
 3568TIP3    H232268   6.596   4.127   1.622
 3569TIP3   OH232269   3.776   4.261   1.459
 3569TIP3    H132270   3.774   4.202   1.383
 3569TIP3    H232271   3.692   4.307   1.456
 3570TIP3   OH232272   4.542   2.223   7.033
 3570TIP3    H132273   4.448   2.206   7.038
 3570TIP3    H232274   4.558   2.245   6.941
 3571TIP3   OH232275   6.934   0.083   1.153
 3571TIP3    H132276   6.868   0.147   1.181
 3571TIP3    H232277   6.935   0.090   1.057
 3572TIP3   OH232278   0.128   2.821   0.267
 3572TIP3    H132279   0.179   2.887   0.220
 3572TIP3    H232280   0.116   2.857   0.355
 3573TIP3   OH232281   6.626   3.756   1.554
 3573TIP3    H132282   6.531   3.765   1.553
 3573TIP3    H232283   6.658   3.835   1.597
 3574TIP3   OH232284   3.747   5.452   0.971
 3574TIP3    H132285   3.776   5.508   0.898
 3574TIP3    H232286   3.753   5.509   1.047
 3575TIP3   OH232287   4.827   1.486   0.935
 3575TIP3    H132288   4.860   1.539   1.007
 3575TIP3    H232289   4.895   1.491   0.868
 3576TIP3   OH232290   0.103   5.529   8.324
 3576TIP3    H132291   0.025   5.585   8.322
 3576TIP3    H232292   0.134   5.530   8.233
 3577TIP3   OH232293   1.795   3.324   0.457
 3577TIP3    H132294   1.845   3.259   0.506
 3577TIP3    H232295   1.776   3.282   0.374
 3578TIP3   OH232296   1.780   2.239   6.226
 3578TIP3    H132297   1.781   2.179   6.151
 3578TIP3    H232298   1.827   2.192   6.295
 3579TIP3   OH232299   0.272   6.564   7.891
 3579TIP3    H132300   0.263   6.577   7.985
 3579TIP3    H232301   0.206   6.499   7.869
 3580TIP3   OH232302   6.641   0.797   2.217
 3580TIP3    H132303   6.551   0.815   2.244
 3580TIP3    H232304   6.658   0.708   2.249
 3581TIP3   OH232305   3.864   0.311   1.487
 3581TIP3    H132306   3.811   0.297   1.408
 3581TIP3    H232307   3.825   0.253   1.553
 3582TIP3   OH232308   4.252   2.679   0.556
 3582TIP3    H132309   4.298   2.671   0.472
 3582TIP3    H232310   4.321   2.686   0.621
 3583TIP3   OH232311   3.518   6.454   1.172
 3583TIP3    H132312   3.572   6.389   1.218
 3583TIP3    H232313   3.578   6.526   1.155
 3584TIP3   OH232314   6.604   1.835   6.618
 3584TIP3    H132315   6.570   1.919   6.650
 3584TIP3    H232316   6.654   1.800   6.692
 3585TIP3   OH232317   6.646   6.168   2.167
 3585TIP3    H132318   6.554   6.196   2.167
 3585TIP3    H232319   6.695   6.245   2.195
 3586TIP3   OH232320   6.904   6.528   7.019
 3586TIP3    H132321   6.879   6.489   7.103
 3586TIP3    H232322   6.923   6.454   6.962
 3587TIP3   OH232323   4.296   6.401   1.620
 3587TIP3    H132324   4.241   6.345   1.565
 3587TIP3    H232325   4.234   6.462   1.661
 3588TIP3   OH232326   0.838   6.363   2.019
 3588TIP3    H132327   0.748   6.331   2.009
 3588TIP3    H232328   0.882   6.335   1.939
 3589TIP3   OH232329   3.820   5.364   0.056
 3589TIP3    H132330   3.812   5.460   0.055
 3589TIP3    H232331   3.913   5.348   0.068
 3590TIP3   OH232332   3.119   3.070   6.744
 3590TIP3    H132333   3.176   3.147   6.732
 3590TIP3    H232334   3.175   2.996   6.721
 3591TIP3   OH232335   2.165   3.105   7.256
 3591TIP3    H132336   2.257   3.098   7.233
 3591TIP3    H232337   2.144   3.198   7.245
 3592TIP3   OH232338   6.490   2.095   6.717
 3592TIP3    H132339   6.424   2.077   6.784
 3592TIP3    H232340   6.543   2.166   6.752
 3593TIP3   OH232341   5.234   2.002   0.534
 3593TIP3    H132342   5.201   1.916   0.507
 3593TIP3    H232343   5.201   2.062   0.467
 3594TIP3   OH232344   0.682   0.029   0.245
 3594TIP3    H132345   0.725   0.004   0.327
 3594TIP3    H232346   0.635   0.109   0.266
 3595TIP3   OH232347   5.702   6.965   8.174
 3595TIP3    H132348   5.770   7.027   8.200
 3595TIP3    H232349   5.744   6.909   8.109
 3596TIP3   OH232350   5.690   6.922   0.282
 3596TIP3    H132351   5.696   6.972   0.364
 3596TIP3    H232352   5.693   6.831   0.309
 3597TIP3   OH232353   6.603   6.904   7.302
 3597TIP3    H132354   6.559   6.954   7.233
 3597TIP3    H232355   6.678   6.957   7.327
 3598TIP3   OH232356   0.281   4.638   8.209
 3598TIP3    H132357   0.361   4.651   8.157
 3598TIP3    H232358   0.254   4.726   8.234
 3599TIP3   OH232359   3.740   1.618   8.195
 3599TIP3    H132360   3.755   1.523   8.197
 3599TIP3    H232361   3.785   1.647   8.115
 3600TIP3   OH232362   5.050   0.860   6.947
 3600TIP3    H132363   4.977   0.814   6.990
 3600TIP3    H232364   5.008   0.932   6.900
 3601TIP3   OH232365   0.304   6.039   7.551
 3601TIP3    H132366   0.311   5.944   7.544
 3601TIP3    H232367   0.395   6.070   7.560
 3602TIP3   OH232368   1.427   3.909   1.068
 3602TIP3    H132369   1.502   3.853   1.049
 3602TIP3    H232370   1.385   3.867   1.143
 3603TIP3   OH232371   2.575   0.037   0.410
 3603TIP3    H132372   2.532  -0.044   0.384
 3603TIP3    H232373   2.663   0.030   0.372
 3604TIP3   OH232374   3.490   6.817   6.897
 3604TIP3    H132375   3.410   6.765   6.887
 3604TIP3    H232376   3.485   6.852   6.986
 3605TIP3   OH232377   2.307   2.212   1.392
 3605TIP3    H132378   2.381   2.159   1.366
 3605TIP3    H232379   2.234   2.180   1.340
 3606TIP3   OH232380   4.098   6.522   0.255
 3606TIP3    H132381   4.007   6.534   0.284
 3606TIP3    H232382   4.151   6.557   0.327
 3607TIP3   OH232383   6.641   6.857   1.062
 3607TIP3    H132384   6.725   6.843   1.105
 3607TIP3    H232385   6.663   6.884   0.973
 3608TIP3   OH232386   0.174   4.523   0.943
 3608TIP3    H132387   0.250   4.575   0.917
 3608TIP3    H232388   0.203   4.475   1.020
 3609TIP3   OH232389   2.949   5.740   2.186
 3609TIP3    H132390   2.864   5.712   2.154
 3609TIP3    H232391   2.978   5.806   2.122
 3610TIP3   OH232392   3.250   5.713   0.610
 3610TIP3    H132393   3.209   5.630   0.586
 3610TIP3    H232394   3.218   5.776   0.545
 3611TIP3   OH232395   2.847   3.895   6.417
 3611TIP3    H132396   2.774   3.912   6.476
 3611TIP3    H232397   2.830   3.951   6.341
 3612TIP3   OH232398   3.176   0.077   7.965
 3612TIP3    H132399   3.161   0.006   8.027
 3612TIP3    H232400   3.245   0.045   7.907
 3613TIP3   OH232401   6.008   2.143   2.512
 3613TIP3    H132402   6.064   2.078   2.555
 3613TIP3    H232403   6.049   2.157   2.427
 3614TIP3   OH232404   6.252   0.307   6.133
 3614TIP3    H132405   6.174   0.323   6.186
 3614TIP3    H232406   6.256   0.212   6.124
 3615TIP3   OH232407   6.312   2.468   0.514
 3615TIP3    H132408   6.233   2.416   0.499
 3615TIP3    H232409   6.285   2.534   0.579
 3616TIP3   OH232410   3.304   6.042   1.017
 3616TIP3    H132411   3.309   5.946   1.018
 3616TIP3    H232412   3.210   6.060   1.028
 3617TIP3   OH232413   3.035   4.224   1.446
 3617TIP3    H132414   3.069   4.173   1.520
 3617TIP3    H232415   2.978   4.163   1.400
 3618TIP3   OH232416   3.403   0.837   0.692
 3618TIP3    H132417   3.349   0.849   0.614
 3618TIP3    H232418   3.424   0.743   0.692
 3619TIP3   OH232419   3.217   3.710   1.162
 3619TIP3    H132420   3.282   3.691   1.230
 3619TIP3    H232421   3.268   3.715   1.081
 3620TIP3   OH232422   0.405   4.399   6.999
 3620TIP3    H132423   0.482   4.454   7.011
 3620TIP3    H232424   0.387   4.362   7.085
 3621TIP3   OH232425   5.105   0.965   8.131
 3621TIP3    H132426   5.085   1.020   8.207
 3621TIP3    H232427   5.199   0.952   8.134
 3622TIP3   OH232428   6.025   0.858   0.047
 3622TIP3    H132429   5.938   0.895   0.032
 3622TIP3    H232430   6.080   0.895  -0.022
 3623TIP3   OH232431   3.494   2.824   6.928
 3623TIP3    H132432   3.547   2.780   6.994
 3623TIP3    H232433   3.498   2.766   6.852
 3624TIP3   OH232434   5.256   1.761   8.300
 3624TIP3    H132435   5.297   1.736   8.216
 3624TIP3    H232436   5.176   1.708   8.304
 3625TIP3   OH232437   3.350   3.354   1.071
 3625TIP3    H132438   3.343   3.342   0.976
 3625TIP3    H232439   3.281   3.298   1.107
 3626TIP3   OH232440   6.237   4.959   0.446
 3626TIP3    H132441   6.218   5.040   0.397
 3626TIP3    H232442   6.270   4.898   0.380
 3627TIP3   OH232443   2.472   2.133   0.015
 3627TIP3    H132444   2.405   2.120   0.082
 3627TIP3    H232445   2.438   2.086  -0.062
 3628TIP3   OH232446   5.680   3.927   1.478
 3628TIP3    H132447   5.697   3.871   1.402
 3628TIP3    H232448   5.726   4.008   1.460
 3629TIP3   OH232449   0.195   2.045   7.044
 3629TIP3    H132450   0.253   2.062   6.970
 3629TIP3    H232451   0.249   2.060   7.122
 3630TIP3   OH232452   0.372   1.157   6.990
 3630TIP3    H132453   0.281   1.133   7.006
 3630TIP3    H232454   0.368   1.246   6.954
 3631TIP3   OH232455   2.526   2.879   1.594
 3631TIP3    H132456   2.564   2.867   1.681
 3631TIP3    H232457   2.451   2.819   1.592
 3632TIP3   OH232458   3.182   3.771   0.221
 3632TIP3    H132459   3.150   3.707   0.158
 3632TIP3    H232460   3.208   3.846   0.168
 3633TIP3   OH232461   6.522   3.408   0.593
 3633TIP3    H132462   6.482   3.365   0.668
 3633TIP3    H232463   6.534   3.499   0.622
 3634TIP3   OH232464   2.738   6.022   0.858
 3634TIP3    H132465   2.688   6.084   0.805
 3634TIP3    H232466   2.737   5.941   0.806
 3635TIP3   OH232467   4.356   5.639   6.095
 3635TIP3    H132468   4.312   5.583   6.159
 3635TIP3    H232469   4.301   5.717   6.090
 3636TIP3   OH232470   6.775   0.320   0.852
 3636TIP3    H132471   6.797   0.350   0.764
 3636TIP3    H232472   6.844   0.356   0.907
 3637TIP3   OH232473   4.479   2.869   1.943
 3637TIP3    H132474   4.502   2.894   2.033
 3637TIP3    H232475   4.522   2.784   1.930
 3638TIP3   OH232476   1.807   3.248   8.186
 3638TIP3    H132477   1.895   3.259   8.223
 3638TIP3    H232478   1.750   3.301   8.243
 3639TIP3   OH232479   0.501   0.191   8.286
 3639TIP3    H132480   0.565   0.120   8.292
 3639TIP3    H232481   0.540   0.253   8.224
 3640TIP3   OH232482   4.693   5.438   1.299
 3640TIP3    H132483   4.729   5.405   1.217
 3640TIP3    H232484   4.666   5.360   1.346
 3641TIP3   OH232485   6.848   3.112   0.002
 3641TIP3    H132486   6.788   3.186   0.006
 3641TIP3    H232487   6.935   3.152   0.000
 3642TIP3   OH232488   1.171   3.204   1.804
 3642TIP3    H132489   1.224   3.219   1.882
 3642TIP3    H232490   1.205   3.122   1.768
 3643TIP3   OH232491   6.515   2.475   7.312
 3643TIP3    H132492   6.488   2.395   7.267
 3643TIP3    H232493   6.572   2.520   7.249
 3644TIP3   OH232494   0.756   4.312   1.012
 3644TIP3    H132495   0.679   4.354   0.972
 3644TIP3    H232496   0.811   4.386   1.038
 3645TIP3   OH232497   5.787   6.965   7.256
 3645TIP3    H132498   5.841   6.951   7.179
 3645TIP3    H232499   5.823   6.907   7.322
 3646TIP3   OH232500   2.818   1.162   6.931
 3646TIP3    H132501   2.761   1.234   6.903
 3646TIP3    H232502   2.759   1.088   6.942
 3647TIP3   OH232503   4.065   6.694   7.484
 3647TIP3    H132504   4.131   6.718   7.550
 3647TIP3    H232505   4.025   6.777   7.459
 3648TIP3   OH232506   6.930   6.536   0.828
 3648TIP3    H132507   6.932   6.556   0.922
 3648TIP3    H232508   6.895   6.447   0.823
 3649TIP3   OH232509   2.798   4.411   1.087
 3649TIP3    H132510   2.849   4.489   1.109
 3649TIP3    H232511   2.729   4.408   1.153
 3650TIP3   OH232512   6.152   3.650   1.496
 3650TIP3    H132513   6.232   3.606   1.465
 3650TIP3    H232514   6.181   3.700   1.572
 3651TIP3   OH232515   4.806   3.252   2.001
 3651TIP3    H132516   4.756   3.322   1.960
 3651TIP3    H232517   4.784   3.173   1.951
 3652TIP3   OH232518   1.741   0.643   0.091
 3652TIP3    H132519   1.769   0.558   0.125
 3652TIP3    H232520   1.817   0.677   0.045
 3653TIP3   OH232521   4.457   1.914   0.034
 3653TIP3    H132522   4.411   1.911   0.118
 3653TIP3    H232523   4.394   1.879  -0.028
 3654TIP3   OH232524   6.118   2.935   0.774
 3654TIP3    H132525   6.055   2.973   0.713
 3654TIP3    H232526   6.075   2.856   0.806
 3655TIP3   OH232527   2.728   4.201   8.201
 3655TIP3    H132528   2.696   4.190   8.111
 3655TIP3    H232529   2.654   4.239   8.248
 3656TIP3   OH232530   1.029   0.618   1.031
 3656TIP3    H132531   1.064   0.595   1.118
 3656TIP3    H232532   0.992   0.536   0.998
 3657TIP3   OH232533   0.467   0.403   1.355
 3657TIP3    H132534   0.482   0.444   1.440
 3657TIP3    H232535   0.529   0.446   1.296
 3658TIP3   OH232536   0.296   2.373   1.389
 3658TIP3    H132537   0.357   2.396   1.459
 3658TIP3    H232538   0.238   2.308   1.428
 3659TIP3   OH232539   1.239   3.776   1.845
 3659TIP3    H132540   1.227   3.869   1.826
 3659TIP3    H232541   1.149   3.743   1.856
 3660TIP3   OH232542   5.912   6.160   7.618
 3660TIP3    H132543   5.992   6.196   7.657
 3660TIP3    H232544   5.860   6.237   7.596
 3661TIP3   OH232545   4.983   3.640   6.693
 3661TIP3    H132546   5.059   3.619   6.747
 3661TIP3    H232547   5.019   3.682   6.615
 3662TIP3   OH232548   5.974   2.179   7.020
 3662TIP3    H132549   5.993   2.089   6.993
 3662TIP3    H232550   5.900   2.205   6.965
 3663TIP3   OH232551   4.958   6.619   7.834
 3663TIP3    H132552   4.873   6.650   7.865
 3663TIP3    H232553   4.973   6.667   7.752
 3664TIP3   OH232554   0.110   3.211   0.011
 3664TIP3    H132555   0.093   3.210   0.105
 3664TIP3    H232556   0.108   3.304  -0.012
 3665TIP3   OH232557   5.487   5.874   7.905
 3665TIP3    H132558   5.566   5.907   7.861
 3665TIP3    H232559   5.488   5.916   7.991
 3666TIP3   OH232560   3.434   0.844   7.066
 3666TIP3    H132561   3.452   0.935   7.044
 3666TIP3    H232562   3.347   0.845   7.106
 3667TIP3   OH232563   2.812   3.845   7.575
 3667TIP3    H132564   2.860   3.791   7.638
 3667TIP3    H232565   2.862   3.925   7.568
 3668TIP3   OH232566   3.701   4.646   0.202
 3668TIP3    H132567   3.788   4.609   0.190
 3668TIP3    H232568   3.706   4.694   0.284
 3669TIP3   OH232569   2.035   6.242   0.338
 3669TIP3    H132570   2.089   6.269   0.264
 3669TIP3    H232571   1.952   6.216   0.299
 3670TIP3   OH232572   1.761   1.584   0.071
 3670TIP3    H132573   1.723   1.591   0.159
 3670TIP3    H232574   1.844   1.538   0.084
 3671TIP3   OH232575   0.404   4.757   0.443
 3671TIP3    H132576   0.369   4.683   0.494
 3671TIP3    H232577   0.384   4.733   0.352
 3672TIP3   OH232578   2.058   0.540   5.978
 3672TIP3    H132579   2.031   0.613   5.922
 3672TIP3    H232580   1.979   0.487   5.989
 3673TIP3   OH232581   2.424   2.447   6.050
 3673TIP3    H132582   2.457   2.466   6.138
 3673TIP3    H232583   2.453   2.357   6.032
 3674TIP3   OH232584   4.554   6.084   7.777
 3674TIP3    H132585   4.511   6.065   7.694
 3674TIP3    H232586   4.632   6.027   7.777
 3675TIP3   OH232587   6.302   4.371   6.739
 3675TIP3    H132588   6.393   4.400   6.744
 3675TIP3    H232589   6.298   4.295   6.796
 3676TIP3   OH232590   0.488   5.871   6.188
 3676TIP3    H132591   0.449   5.904   6.269
 3676TIP3    H232592   0.495   5.777   6.201
 3677TIP3   OH232593   1.612   6.522   6.578
 3677TIP3    H132594   1.693   6.566   6.554
 3677TIP3    H232595   1.590   6.469   6.501
 3678TIP3   OH232596   6.343   4.427   1.522
 3678TIP3    H132597   6.356   4.335   1.542
 3678TIP3    H232598   6.308   4.465   1.603
 3679TIP3   OH232599   5.566   3.962   6.724
 3679TIP3    H132600   5.563   3.900   6.797
 3679TIP3    H232601   5.610   3.915   6.653
 3680TIP3   OH232602   6.268   5.769   1.070
 3680TIP3    H132603   6.246   5.839   1.009
 3680TIP3    H232604   6.221   5.791   1.150
 3681TIP3   OH232605   5.661   3.273   1.479
 3681TIP3    H132606   5.649   3.219   1.402
 3681TIP3    H232607   5.741   3.323   1.462
 3682TIP3   OH232608   3.602   0.686   0.882
 3682TIP3    H132609   3.584   0.778   0.906
 3682TIP3    H232610   3.674   0.691   0.820
 3683TIP3   OH232611   1.180   6.958   7.041
 3683TIP3    H132612   1.214   7.047   7.050
 3683TIP3    H232613   1.227   6.921   6.966
 3684TIP3   OH232614   5.160   1.553   1.393
 3684TIP3    H132615   5.106   1.629   1.416
 3684TIP3    H232616   5.210   1.582   1.317
 3685TIP3   OH232617   4.138   5.402   6.606
 3685TIP3    H132618   4.153   5.311   6.629
 3685TIP3    H232619   4.099   5.399   6.519
 3686TIP3   OH232620   2.603   5.799   1.948
 3686TIP3    H132621   2.518   5.842   1.935
 3686TIP3    H232622   2.601   5.723   1.891
 3687TIP3   OH232623   3.735   1.464   0.057
 3687TIP3    H132624   3.671   1.516   0.106
 3687TIP3    H232625   3.795   1.529   0.019
 3688TIP3   OH232626   5.945   3.838   0.308
 3688TIP3    H132627   5.962   3.872   0.396
 3688TIP3    H232628   5.964   3.744   0.315
 3689TIP3   OH232629   0.039   6.343   1.641
 3689TIP3    H132630   0.096   6.337   1.718
 3689TIP3    H232631  -0.024   6.411   1.664
 3690TIP3   OH232632   3.220   4.776   1.044
 3690TIP3    H132633   3.161   4.837   1.088
 3690TIP3    H232634   3.168   4.742   0.970
 3691TIP3   OH232635   1.329   5.851   7.521
 3691TIP3    H132636   1.390   5.889   7.583
 3691TIP3    H232637   1.246   5.896   7.536
 3692TIP3   OH232638   3.481   2.565   0.392
 3692TIP3    H132639   3.451   2.585   0.480
 3692TIP3    H232640   3.522   2.478   0.399
 3693TIP3   OH232641   3.828   2.778   0.705
 3693TIP3    H132642   3.884   2.855   0.710
 3693TIP3    H232643   3.845   2.731   0.787
 3694TIP3   OH232644   5.261   1.114   7.001
 3694TIP3    H132645   5.240   1.067   6.920
 3694TIP3    H232646   5.223   1.060   7.071
 3695TIP3   OH232647   3.514   3.947   6.854
 3695TIP3    H132648   3.550   3.935   6.942
 3695TIP3    H232649   3.518   4.041   6.839
 3696TIP3   OH232650   4.040   5.433   1.245
 3696TIP3    H132651   4.027   5.424   1.150
 3696TIP3    H232652   4.135   5.441   1.255
 3697TIP3   OH232653   2.648   2.306   8.012
 3697TIP3    H132654   2.607   2.353   8.085
 3697TIP3    H232655   2.617   2.216   8.021
 3698TIP3   OH232656   1.571   1.930   2.112
 3698TIP3    H132657   1.520   1.916   2.192
 3698TIP3    H232658   1.538   1.863   2.051
 3699TIP3   OH232659   5.855   4.032   0.942
 3699TIP3    H132660   5.784   4.033   1.006
 3699TIP3    H232661   5.880   3.939   0.936
 3700TIP3   OH232662   6.726   3.645   6.539
 3700TIP3    H132663   6.807   3.695   6.536
 3700TIP3    H232664   6.723   3.599   6.455
 3701TIP3   OH232665   2.526   0.394   8.004
 3701TIP3    H132666   2.529   0.302   7.978
 3701TIP3    H232667   2.433   0.412   8.020
 3702TIP3   OH232668   5.340   5.343   7.477
 3702TIP3    H132669   5.368   5.427   7.440
 3702TIP3    H232670   5.334   5.360   7.571
 3703TIP3   OH232671   1.054   5.095   6.373
 3703TIP3    H132672   0.997   5.061   6.442
 3703TIP3    H232673   1.136   5.047   6.384
 3704TIP3   OH232674   0.122   5.728   6.029
 3704TIP3    H132675   0.033   5.724   6.063
 3704TIP3    H232676   0.152   5.638   6.029
 3705TIP3   OH232677   2.951   5.195   0.778
 3705TIP3    H132678   2.939   5.213   0.684
 3705TIP3    H232679   2.929   5.278   0.821
 3706TIP3   OH232680   2.144   1.663   7.970
 3706TIP3    H132681   2.149   1.653   8.065
 3706TIP3    H232682   2.098   1.746   7.956
 3707TIP3   OH232683   1.160   0.828   6.615
 3707TIP3    H132684   1.136   0.883   6.541
 3707TIP3    H232685   1.078   0.789   6.644
 3708TIP3   OH232686   6.492   6.408   7.447
 3708TIP3    H132687   6.487   6.347   7.373
 3708TIP3    H232688   6.524   6.355   7.519
 3709TIP3   OH232689   6.824   3.597   2.200
 3709TIP3    H132690   6.917   3.581   2.216
 3709TIP3    H232691   6.823   3.676   2.147
 3710TIP3   OH232692   4.524   3.659   0.627
 3710TIP3    H132693   4.515   3.568   0.654
 3710TIP3    H232694   4.554   3.705   0.706
 3711TIP3   OH232695   4.589   5.315   1.032
 3711TIP3    H132696   4.572   5.409   1.028
 3711TIP3    H232697   4.517   5.280   1.083
 3712TIP3   OH232698   5.628   1.071   0.069
 3712TIP3    H132699   5.573   1.131   0.119
 3712TIP3    H232700   5.715   1.081   0.107
 3713TIP3   OH232701   6.447   2.248   7.182
 3713TIP3    H132702   6.511   2.177   7.173
 3713TIP3    H232703   6.363   2.208   7.161
 3714TIP3   OH232704   0.032   3.160   0.273
 3714TIP3    H132705  -0.053   3.203   0.277
 3714TIP3    H232706   0.022   3.083   0.330
 3715TIP3   OH232707   1.267   1.159   6.806
 3715TIP3    H132708   1.334   1.101   6.770
 3715TIP3    H232709   1.287   1.164   6.899
 3716TIP3   OH232710   6.387   4.190   0.805
 3716TIP3    H132711   6.453   4.256   0.824
 3716TIP3    H232712   6.352   4.166   0.890
 3717TIP3   OH232713   6.579   1.873   0.198
 3717TIP3    H132714   6.605   1.941   0.136
 3717TIP3    H232715   6.488   1.895   0.220
 3718TIP3   OH232716   3.157   2.153   8.096
 3718TIP3    H132717   3.100   2.086   8.058
 3718TIP3    H232718   3.203   2.108   8.167
 3719TIP3   OH232719   4.216   3.873   7.778
 3719TIP3    H132720   4.164   3.953   7.778
 3719TIP3    H232721   4.304   3.901   7.802
 3720TIP3   OH232722   6.296   4.790   8.133
 3720TIP3    H132723   6.377   4.822   8.093
 3720TIP3    H232724   6.226   4.839   8.089
 3721TIP3   OH232725   6.571   2.446   0.246
 3721TIP3    H132726   6.568   2.380   0.315
 3721TIP3    H232727   6.480   2.476   0.238
 3722TIP3   OH232728   0.885   4.481   0.276
 3722TIP3    H132729   0.945   4.461   0.204
 3722TIP3    H232730   0.908   4.569   0.303
 3723TIP3   OH232731   3.799   1.227   6.358
 3723TIP3    H132732   3.867   1.201   6.421
 3723TIP3    H232733   3.847   1.272   6.288
 3724TIP3   OH232734   1.659   2.316   8.378
 3724TIP3    H132735   1.655   2.406   8.346
 3724TIP3    H232736   1.570   2.282   8.366
 3725TIP3   OH232737   3.794   4.108   6.279
 3725TIP3    H132738   3.799   4.187   6.333
 3725TIP3    H232739   3.883   4.074   6.276
 3726TIP3   OH232740   6.226   5.441   1.263
 3726TIP3    H132741   6.312   5.403   1.247
 3726TIP3    H232742   6.242   5.533   1.279
 3727TIP3   OH232743   6.556   2.729   1.300
 3727TIP3    H132744   6.526   2.793   1.237
 3727TIP3    H232745   6.643   2.703   1.270
 3728TIP3   OH232746   6.923   6.130   6.388
 3728TIP3    H132747   7.007   6.102   6.350
 3728TIP3    H232748   6.878   6.049   6.409
 3729TIP3   OH232749   1.727   6.574   8.304
 3729TIP3    H132750   1.753   6.506   8.366
 3729TIP3    H232751   1.641   6.602   8.333
 3730TIP3   OH232752   6.181   0.002   7.683
 3730TIP3    H132753   6.137   0.065   7.740
 3730TIP3    H232754   6.264   0.044   7.660
 3731TIP3   OH232755   5.331   2.276   6.583
 3731TIP3    H132756   5.277   2.355   6.582
 3731TIP3    H232757   5.286   2.216   6.523
 3732TIP3   OH232758   2.302   0.851   6.735
 3732TIP3    H132759   2.251   0.929   6.713
 3732TIP3    H232760   2.374   0.851   6.671
 3733TIP3   OH232761   6.842   2.045   6.848
 3733TIP3    H132762   6.834   1.995   6.767
 3733TIP3    H232763   6.828   1.981   6.918
 3734TIP3   OH232764   2.000   6.446   7.811
 3734TIP3    H132765   1.917   6.478   7.773
 3734TIP3    H232766   2.068   6.485   7.755
 3735TIP3   OH232767   1.932   5.136   7.873
 3735TIP3    H132768   1.981   5.200   7.822
 3735TIP3    H232769   1.935   5.056   7.819
 3736TIP3   OH232770   4.971   1.238   6.424
 3736TIP3    H132771   4.912   1.203   6.357
 3736TIP3    H232772   5.018   1.309   6.380
 3737TIP3   OH232773   1.170   0.337   1.365
 3737TIP3    H132774   1.195   0.403   1.300
 3737TIP3    H232775   1.157   0.386   1.446
 3738TIP3   OH232776   0.458   6.674   7.653
 3738TIP3    H132777   0.400   6.622   7.707
 3738TIP3    H232778   0.497   6.738   7.713
 3739TIP3   OH232779   2.400   5.263   1.454
 3739TIP3    H132780   2.466   5.322   1.490
 3739TIP3    H232781   2.450   5.197   1.406
 3740TIP3   OH232782   6.988   5.404   0.325
 3740TIP3    H132783   7.043   5.482   0.324
 3740TIP3    H232784   6.928   5.417   0.250
 3741TIP3   OH232785   6.593   3.452   2.142
 3741TIP3    H132786   6.660   3.493   2.198
 3741TIP3    H232787   6.604   3.494   2.057
 3742TIP3   OH232788   2.530   1.820   1.491
 3742TIP3    H132789   2.555   1.755   1.556
 3742TIP3    H232790   2.534   1.774   1.407
 3743TIP3   OH232791   2.450   3.158   7.275
 3743TIP3    H132792   2.486   3.247   7.277
 3743TIP3    H232793   2.452   3.131   7.367
 3744TIP3   OH232794   3.680   3.696   6.785
 3744TIP3    H132795   3.602   3.747   6.808
 3744TIP3    H232796   3.748   3.762   6.771
 3745TIP3   OH232797   4.055   0.008   0.444
 3745TIP3    H132798   4.007   0.010   0.527
 3745TIP3    H232799   4.004  -0.052   0.389
 3746TIP3   OH232800   3.836   2.365   7.765
 3746TIP3    H132801   3.904   2.356   7.699
 3746TIP3    H232802   3.842   2.457   7.793
 3747TIP3   OH232803   4.145   6.326   1.900
 3747TIP3    H132804   4.119   6.415   1.876
 3747TIP3    H232805   4.129   6.321   1.994
 3748TIP3   OH232806   1.285   4.382   7.946
 3748TIP3    H132807   1.251   4.336   7.869
 3748TIP3    H232808   1.273   4.475   7.925
 3749TIP3   OH232809   2.122   3.916   8.344
 3749TIP3    H132810   2.175   3.949   8.271
 3749TIP3    H232811   2.085   3.834   8.312
 3750TIP3   OH232812   0.047   1.864   0.715
 3750TIP3    H132813   0.110   1.875   0.786
 3750TIP3    H232814   0.031   1.952   0.683
 3751TIP3   OH232815   1.038   3.782   6.364
 3751TIP3    H132816   1.035   3.710   6.300
 3751TIP3    H232817   0.949   3.816   6.367
 3752TIP3   OH232818   1.833   2.438   1.706
 3752TIP3    H132819   1.794   2.435   1.619
 3752TIP3    H232820   1.872   2.525   1.712
 3753TIP3   OH232821   2.698   1.099   6.658
 3753TIP3    H132822   2.640   1.167   6.690
 3753TIP3    H232823   2.754   1.143   6.594
 3754TIP3   OH232824   6.611   2.808   7.308
 3754TIP3    H132825   6.621   2.737   7.244
 3754TIP3    H232826   6.576   2.881   7.257
 3755TIP3   OH232827   1.874   3.337   1.366
 3755TIP3    H132828   1.926   3.384   1.302
 3755TIP3    H232829   1.899   3.376   1.450
 3756TIP3   OH232830   5.243   6.909   1.548
 3756TIP3    H132831   5.281   6.823   1.571
 3756TIP3    H232832   5.165   6.916   1.602
 3757TIP3   OH232833   1.778   3.998   1.578
 3757TIP3    H132834   1.754   3.984   1.670
 3757TIP3    H232835   1.841   3.929   1.559
 3758TIP3   OH232836   1.457   5.115   1.427
 3758TIP3    H132837   1.532   5.143   1.374
 3758TIP3    H232838   1.412   5.051   1.373
 3759TIP3   OH232839   0.005   6.035   0.148
 3759TIP3    H132840   0.037   6.124   0.134
 3759TIP3    H232841  -0.081   6.047   0.189
 3760TIP3   OH232842   3.754   0.136   0.412
 3760TIP3    H132843   3.747   0.230   0.430
 3760TIP3    H232844   3.779   0.132   0.320
 3761TIP3   OH232845   2.131   2.458   5.978
 3761TIP3    H132846   2.224   2.455   6.000
 3761TIP3    H232847   2.108   2.551   5.983
 3762TIP3   OH232848   3.241   4.263   6.981
 3762TIP3    H132849   3.249   4.356   6.960
 3762TIP3    H232850   3.330   4.235   7.001
 3763TIP3   OH232851   1.554   5.622   7.348
 3763TIP3    H132852   1.459   5.629   7.334
 3763TIP3    H232853   1.563   5.611   7.443
 3764TIP3   OH232854   4.840   5.643   1.481
 3764TIP3    H132855   4.828   5.636   1.386
 3764TIP3    H232856   4.778   5.580   1.517
 3765TIP3   OH232857   4.859   5.269   7.958
 3765TIP3    H132858   4.827   5.355   7.930
 3765TIP3    H232859   4.891   5.227   7.878
 3766TIP3   OH232860   0.764   4.300   7.075
 3766TIP3    H132861   0.836   4.237   7.074
 3766TIP3    H232862   0.800   4.380   7.037
 3767TIP3   OH232863   6.733   4.000   1.295
 3767TIP3    H132864   6.695   3.970   1.212
 3767TIP3    H232865   6.827   3.990   1.284
 3768TIP3   OH232866   0.965   0.913   0.345
 3768TIP3    H132867   0.975   0.933   0.438
 3768TIP3    H232868   0.991   0.993   0.300
 3769TIP3   OH232869   4.582   5.644   7.908
 3769TIP3    H132870   4.501   5.678   7.947
 3769TIP3    H232871   4.576   5.549   7.920
 3770TIP3   OH232872   2.218   6.959   6.886
 3770TIP3    H132873   2.202   6.877   6.839
 3770TIP3    H232874   2.283   7.005   6.833
 3771TIP3   OH232875   4.951   1.681   0.668
 3771TIP3    H132876   4.902   1.749   0.714
 3771TIP3    H232877   4.973   1.719   0.584
 3772TIP3   OH232878   3.571   4.992   1.689
 3772TIP3    H132879   3.624   4.971   1.766
 3772TIP3    H232880   3.489   4.943   1.702
 3773TIP3   OH232881   3.990   6.722   8.112
 3773TIP3    H132882   3.944   6.756   8.035
 3773TIP3    H232883   3.983   6.627   8.105
 3774TIP3   OH232884   2.015   0.576   6.803
 3774TIP3    H132885   2.043   0.511   6.867
 3774TIP3    H232886   2.021   0.659   6.850
 3775TIP3   OH232887   3.997   5.200   1.920
 3775TIP3    H132888   4.057   5.150   1.975
 3775TIP3    H232889   3.922   5.218   1.977
 3776TIP3   OH232890   1.435   1.021   8.145
 3776TIP3    H132891   1.445   1.074   8.066
 3776TIP3    H232892   1.516   0.970   8.149
 3777TIP3   OH232893   3.650   1.160   1.589
 3777TIP3    H132894   3.640   1.106   1.510
 3777TIP3    H232895   3.743   1.157   1.609
 3778TIP3   OH232896   0.099   0.982   5.762
 3778TIP3    H132897   0.135   0.932   5.835
 3778TIP3    H232898   0.009   1.002   5.790
 3779TIP3   OH232899   2.214   1.720   7.391
 3779TIP3    H132900   2.181   1.676   7.470
 3779TIP3    H232901   2.174   1.672   7.319
 3780TIP3   OH232902   0.381   5.508   6.606
 3780TIP3    H132903   0.345   5.442   6.664
 3780TIP3    H232904   0.411   5.460   6.529
 3781TIP3   OH232905   4.373   2.574   7.114
 3781TIP3    H132906   4.441   2.558   7.050
 3781TIP3    H232907   4.398   2.657   7.155
 3782TIP3   OH232908   3.980   1.538   6.208
 3782TIP3    H132909   3.920   1.487   6.154
 3782TIP3    H232910   3.996   1.618   6.158
 3783TIP3   OH232911   0.726   2.368   1.634
 3783TIP3    H132912   0.724   2.275   1.656
 3783TIP3    H232913   0.774   2.372   1.551
 3784TIP3   OH232914   5.000   2.324   1.547
 3784TIP3    H132915   4.934   2.339   1.479
 3784TIP3    H232916   4.949   2.300   1.625
 3785TIP3   OH232917   5.622   1.532   7.927
 3785TIP3    H132918   5.655   1.509   8.015
 3785TIP3    H232919   5.589   1.449   7.892
 3786TIP3   OH232920   3.328   2.267   7.778
 3786TIP3    H132921   3.402   2.261   7.718
 3786TIP3    H232922   3.358   2.223   7.858
 3787TIP3   OH232923   4.034   1.876   8.172
 3787TIP3    H132924   3.967   1.915   8.228
 3787TIP3    H232925   4.037   1.933   8.095
 3788TIP3   OH232926   1.006   0.630   6.953
 3788TIP3    H132927   1.006   0.615   6.859
 3788TIP3    H232928   0.922   0.594   6.983
 3789TIP3   OH232929   4.723   5.032   6.919
 3789TIP3    H132930   4.720   5.022   6.824
 3789TIP3    H232931   4.815   5.047   6.938
 3790TIP3   OH232932   1.873   4.262   8.165
 3790TIP3    H132933   1.779   4.246   8.167
 3790TIP3    H232934   1.910   4.184   8.122
 3791TIP3   OH232935   1.347   2.996   1.649
 3791TIP3    H132936   1.265   2.962   1.687
 3791TIP3    H232937   1.374   2.928   1.587
 3792TIP3   OH232938   0.793   5.221   7.009
 3792TIP3    H132939   0.766   5.164   7.080
 3792TIP3    H232940   0.873   5.263   7.041
 3793TIP3   OH232941   5.395   2.712   7.621
 3793TIP3    H132942   5.440   2.692   7.539
 3793TIP3    H232943   5.338   2.785   7.599
 3794TIP3   OH232944   4.547   3.450   7.974
 3794TIP3    H132945   4.594   3.511   8.032
 3794TIP3    H232946   4.511   3.506   7.905
 3795TIP3   OH232947   5.891   6.649   0.550
 3795TIP3    H132948   5.862   6.687   0.467
 3795TIP3    H232949   5.854   6.560   0.548
 3796TIP3   OH232950   1.875   3.451   1.632
 3796TIP3    H132951   1.854   3.538   1.600
 3796TIP3    H232952   1.799   3.427   1.686
 3797TIP3   OH232953   5.020   4.848   7.855
 3797TIP3    H132954   4.948   4.806   7.900
 3797TIP3    H232955   5.090   4.853   7.920
 3798TIP3   OH232956   4.215   4.389   7.969
 3798TIP3    H132957   4.307   4.380   7.994
 3798TIP3    H232958   4.218   4.399   7.873
 3799TIP3   OH232959   2.072   1.607   7.599
 3799TIP3    H132960   1.996   1.652   7.636
 3799TIP3    H232961   2.038   1.523   7.568
 3800TIP3   OH232962   1.802   3.284   7.252
 3800TIP3    H132963   1.728   3.237   7.290
 3800TIP3    H232964   1.817   3.243   7.167
 3801TIP3   OH232965   1.084   6.138   6.653
 3801TIP3    H132966   1.025   6.213   6.655
 3801TIP3    H232967   1.073   6.102   6.565
 3802TIP3   OH232968   0.630   1.204   7.482
 3802TIP3    H132969   0.708   1.170   7.438
 3802TIP3    H232970   0.564   1.136   7.469
 3803TIP3   OH232971   3.415   1.469   6.421
 3803TIP3    H132972   3.346   1.404   6.411
 3803TIP3    H232973   3.370   1.550   6.446
 3804TIP3   OH232974   2.315   4.166   7.603
 3804TIP3    H132975   2.258   4.096   7.570
 3804TIP3    H232976   2.370   4.189   7.529
 3805TIP3   OH232977   5.426   5.013   0.911
 3805TIP3    H132978   5.422   4.946   0.979
 3805TIP3    H232979   5.519   5.023   0.892
 3806TIP3   OH232980   5.102   5.387   0.902
 3806TIP3    H132981   5.132   5.405   0.813
 3806TIP3    H232982   5.117   5.293   0.914
 3807TIP3   OH232983   6.299   0.699   0.854
 3807TIP3    H132984   6.305   0.709   0.759
 3807TIP3    H232985   6.373   0.749   0.888
 3808TIP3   OH232986   3.998   0.705   0.201
 3808TIP3    H132987   4.030   0.675   0.116
 3808TIP3    H232988   3.910   0.737   0.183
 3809TIP3   OH232989   0.158   0.596   1.570
 3809TIP3    H132990   0.138   0.603   1.476
 3809TIP3    H232991   0.248   0.564   1.572
 3810TIP3   OH232992   0.891   1.415   7.762
 3810TIP3    H132993   0.840   1.490   7.732
 3810TIP3    H232994   0.848   1.339   7.721
 3811TIP3   OH232995   1.532   4.820   7.267
 3811TIP3    H132996   1.563   4.903   7.232
 3811TIP3    H232997   1.532   4.761   7.191
 3812TIP3   OH232998   4.310   2.208   7.182
 3812TIP3    H132999   4.265   2.253   7.111
 3812TIP3    H233000   4.240   2.180   7.241
 3813TIP3   OH233001   5.794   2.807   1.006
 3813TIP3    H133002   5.765   2.737   1.065
 3813TIP3    H233003   5.889   2.811   1.019
 3814TIP3   OH233004   1.593   5.252   0.342
 3814TIP3    H133005   1.600   5.343   0.312
 3814TIP3    H233006   1.679   5.215   0.325
 3815TIP3   OH233007   6.022   4.750   6.078
 3815TIP3    H133008   6.008   4.819   6.144
 3815TIP3    H233009   6.056   4.676   6.128
 3816TIP3   OH233010   5.009   3.002   1.398
 3816TIP3    H133011   5.085   2.982   1.452
 3816TIP3    H233012   5.045   3.021   1.311
 3817TIP3   OH233013   0.085   6.439   8.134
 3817TIP3    H133014   0.022   6.433   8.205
 3817TIP3    H233015   0.031   6.438   8.054
 3818TIP3   OH233016   3.237   4.155   7.864
 3818TIP3    H133017   3.160   4.212   7.865
 3818TIP3    H233018   3.298   4.198   7.804
 3819TIP3   OH233019   5.926   2.378   1.347
 3819TIP3    H133020   6.008   2.427   1.343
 3819TIP3    H233021   5.891   2.383   1.258
 3820TIP3   OH233022   2.515   1.970   7.311
 3820TIP3    H133023   2.505   1.944   7.219
 3820TIP3    H233024   2.606   2.001   7.316
 3821TIP3   OH233025   4.535   1.592   8.156
 3821TIP3    H133026   4.608   1.654   8.157
 3821TIP3    H233027   4.523   1.569   8.248
 3822TIP3   OH233028   0.030   6.964   8.014
 3822TIP3    H133029  -0.038   6.959   7.947
 3822TIP3    H233030   0.112   6.961   7.965
 3823TIP3   OH233031   6.558   4.331   0.549
 3823TIP3    H133032   6.475   4.346   0.504
 3823TIP3    H233033   6.614   4.291   0.483
 3824TIP3   OH233034   5.562   5.953   7.024
 3824TIP3    H133035   5.523   5.997   6.949
 3824TIP3    H233036   5.502   5.970   7.096
 3825TIP3   OH233037   1.272   0.089   1.615
 3825TIP3    H133038   1.358   0.129   1.628
 3825TIP3    H233039   1.224   0.109   1.696
 3826TIP3   OH233040   0.232   5.592   0.668
 3826TIP3    H133041   0.269   5.679   0.650
 3826TIP3    H233042   0.308   5.535   0.679
 3827TIP3   OH233043   4.018   4.908   1.103
 3827TIP3    H133044   3.946   4.845   1.108
 3827TIP3    H233045   4.000   4.958   1.023
 3828TIP3   OH233046   1.470   3.795   1.337
 3828TIP3    H133047   1.445   3.724   1.397
 3828TIP3    H233048   1.491   3.869   1.395
 3829TIP3   OH233049   2.312   2.754   7.694
 3829TIP3    H133050   2.364   2.685   7.653
 3829TIP3    H233051   2.377   2.817   7.726
 3830TIP3   OH233052   4.399   0.108   2.130
 3830TIP3    H133053   4.378   0.199   2.149
 3830TIP3    H233054   4.383   0.098   2.036
 3831TIP3   OH233055   0.902   3.290   7.529
 3831TIP3    H133056   0.872   3.238   7.604
 3831TIP3    H233057   0.936   3.371   7.568
 3832TIP3   OH233058   2.895   1.938   1.576
 3832TIP3    H133059   2.845   1.920   1.656
 3832TIP3    H233060   2.855   2.018   1.540
 3833TIP3   OH233061   1.899   2.466   1.960
 3833TIP3    H133062   1.876   2.425   1.877
 3833TIP3    H233063   1.821   2.455   2.014
 3834TIP3   OH233064   4.452   2.701   6.749
 3834TIP3    H133065   4.362   2.683   6.778
 3834TIP3    H233066   4.501   2.622   6.774
 3835TIP3   OH233067   4.752   1.944   1.725
 3835TIP3    H133068   4.708   2.028   1.741
 3835TIP3    H233069   4.705   1.906   1.652
 3836TIP3   OH233070   5.562   4.677   8.116
 3836TIP3    H133071   5.567   4.770   8.138
 3836TIP3    H233072   5.646   4.641   8.144
 3837TIP3   OH233073   0.555   4.682   2.005
 3837TIP3    H133074   0.488   4.621   2.036
 3837TIP3    H233075   0.630   4.666   2.062
 3838TIP3   OH233076   1.898   1.742   1.969
 3838TIP3    H133077   1.978   1.745   2.021
 3838TIP3    H233078   1.851   1.666   2.002
 3839TIP3   OH233079   0.346   4.530   0.592
 3839TIP3    H133080   0.270   4.472   0.595
 3839TIP3    H233081   0.363   4.552   0.684
 3840TIP3   OH233082   2.674   4.939   1.951
 3840TIP3    H133083   2.583   4.929   1.977
 3840TIP3    H233084   2.700   5.024   1.987
 3841TIP3   OH233085   1.240   5.544   1.245
 3841TIP3    H133086   1.297   5.612   1.210
 3841TIP3    H233087   1.215   5.574   1.332
 3842TIP3   OH233088   6.842   3.815   8.342
 3842TIP3    H133089   6.765   3.777   8.300
 3842TIP3    H233090   6.808   3.893   8.387
 3843TIP3   OH233091   5.673   0.243   0.347
 3843TIP3    H133092   5.596   0.199   0.382
 3843TIP3    H233093   5.651   0.260   0.255
 3844TIP3   OH233094   6.341   6.406   6.070
 3844TIP3    H133095   6.257   6.362   6.053
 3844TIP3    H233096   6.389   6.343   6.124
 3845TIP3   OH233097   2.461   6.487   0.079
 3845TIP3    H133098   2.550   6.453   0.068
 3845TIP3    H233099   2.431   6.506  -0.010
 3846TIP3   OH233100   3.125   3.580   7.338
 3846TIP3    H133101   3.067   3.508   7.362
 3846TIP3    H233102   3.111   3.592   7.244
 3847TIP3   OH233103   5.525   1.687   0.260
 3847TIP3    H133104   5.436   1.651   0.258
 3847TIP3    H233105   5.569   1.640   0.330
 3848TIP3   OH233106   4.846   0.298   1.452
 3848TIP3    H133107   4.763   0.300   1.405
 3848TIP3    H233108   4.897   0.232   1.405
 3849TIP3   OH233109   2.463   0.106   7.046
 3849TIP3    H133110   2.420   0.030   7.084
 3849TIP3    H233111   2.393   0.171   7.037
 3850TIP3   OH233112   0.659   5.180   6.717
 3850TIP3    H133113   0.625   5.185   6.628
 3850TIP3    H233114   0.723   5.251   6.723
 3851TIP3   OH233115   6.881   4.049   1.556
 3851TIP3    H133116   6.899   4.012   1.470
 3851TIP3    H233117   6.958   4.104   1.575
 3852TIP3   OH233118   5.965   2.108   1.375
 3852TIP3    H133119   6.004   2.095   1.462
 3852TIP3    H233120   5.931   2.197   1.377
 3853TIP3   OH233121   1.279   5.835   0.977
 3853TIP3    H133122   1.264   5.920   1.017
 3853TIP3    H233123   1.248   5.845   0.887
 3854TIP3   OH233124   6.617   6.665   8.347
 3854TIP3    H133125   6.617   6.571   8.362
 3854TIP3    H233126   6.661   6.676   8.262
 3855TIP3   OH233127   5.514   3.046   7.322
 3855TIP3    H133128   5.449   2.979   7.341
 3855TIP3    H233129   5.575   3.003   7.261
 3856TIP3   OH233130   0.022   0.173   7.636
 3856TIP3    H133131   0.070   0.103   7.681
 3856TIP3    H233132   0.007   0.138   7.548
 3857TIP3   OH233133   3.806   1.562   1.192
 3857TIP3    H133134   3.761   1.603   1.266
 3857TIP3    H233135   3.777   1.471   1.194
 3858TIP3   OH233136   6.612   2.111   7.510
 3858TIP3    H133137   6.528   2.108   7.463
 3858TIP3    H233138   6.612   2.196   7.554
 3859TIP3   OH233139   0.143   3.534   6.511
 3859TIP3    H133140   0.235   3.552   6.531
 3859TIP3    H233141   0.118   3.469   6.577
 3860TIP3   OH233142   6.655   0.285   7.048
 3860TIP3    H133143   6.683   0.299   6.958
 3860TIP3    H233144   6.610   0.366   7.072
 3861TIP3   OH233145   4.657   6.312   6.869
 3861TIP3    H133146   4.738   6.321   6.920
 3861TIP3    H233147   4.681   6.254   6.796
 3862TIP3   OH233148   0.194   6.401   0.419
 3862TIP3    H133149   0.228   6.466   0.358
 3862TIP3    H233150   0.106   6.432   0.441
 3863TIP3   OH233151   2.609   3.919   1.369
 3863TIP3    H133152   2.627   3.840   1.317
 3863TIP3    H233153   2.522   3.904   1.405
 3864TIP3   OH233154   2.757   4.285   1.685
 3864TIP3    H133155   2.706   4.365   1.697
 3864TIP3    H233156   2.838   4.301   1.733
 3865TIP3   OH233157   4.690   1.558   1.406
 3865TIP3    H133158   4.762   1.558   1.469
 3865TIP3    H233159   4.698   1.475   1.360
 3866TIP3   OH233160   1.232   0.401   6.888
 3866TIP3    H133161   1.322   0.415   6.858
 3866TIP3    H233162   1.178   0.420   6.811
 3867TIP3   OH233163   1.415   2.829   7.887
 3867TIP3    H133164   1.423   2.800   7.797
 3867TIP3    H233165   1.484   2.894   7.898
 3868TIP3   OH233166   1.442   0.665   2.181
 3868TIP3    H133167   1.439   0.637   2.272
 3868TIP3    H233168   1.423   0.586   2.130
 3869TIP3   OH233169   6.790   2.638   7.545
 3869TIP3    H133170   6.842   2.709   7.507
 3869TIP3    H233171   6.699   2.670   7.541
 3870TIP3   OH233172   6.195   1.619   7.969
 3870TIP3    H133173   6.193   1.598   7.875
 3870TIP3    H233174   6.279   1.586   7.999
 3871TIP3   OH233175   4.009   5.553   8.299
 3871TIP3    H133176   3.955   5.509   8.234
 3871TIP3    H233177   4.099   5.539   8.268
 3872TIP3   OH233178   2.285   0.977   1.727
 3872TIP3    H133179   2.249   0.889   1.738
 3872TIP3    H233180   2.275   1.018   1.813
 3873TIP3   OH233181   3.164   5.426   7.720
 3873TIP3    H133182   3.161   5.494   7.653
 3873TIP3    H233183   3.089   5.443   7.776
 3874TIP3   OH233184   0.421   3.202   0.653
 3874TIP3    H133185   0.361   3.249   0.596
 3874TIP3    H233186   0.494   3.179   0.596
 3875TIP3   OH233187   6.290   6.909   6.858
 3875TIP3    H133188   6.256   6.997   6.871
 3875TIP3    H233189   6.267   6.862   6.939
 3876TIP3   OH233190   4.876   3.456   7.673
 3876TIP3    H133191   4.948   3.481   7.615
 3876TIP3    H233192   4.918   3.403   7.741
 3877TIP3   OH233193   6.573   6.953   8.333
 3877TIP3    H133194   6.586   6.858   8.340
 3877TIP3    H233195   6.479   6.963   8.317
 3878TIP3   OH233196   4.005   1.460   0.476
 3878TIP3    H133197   4.068   1.469   0.547
 3878TIP3    H233198   4.058   1.438   0.399
 3879TIP3   OH233199   2.854   4.074   1.294
 3879TIP3    H133200   2.794   4.014   1.338
 3879TIP3    H233201   2.812   4.159   1.297
 3880TIP3   OH233202   6.524   1.639   1.331
 3880TIP3    H133203   6.595   1.651   1.268
 3880TIP3    H233204   6.551   1.562   1.382
 3881TIP3   OH233205   5.484   6.298   0.674
 3881TIP3    H133206   5.466   6.370   0.613
 3881TIP3    H233207   5.567   6.261   0.644
 3882TIP3   OH233208   4.423   1.869   7.982
 3882TIP3    H133209   4.516   1.848   7.979
 3882TIP3    H233210   4.402   1.897   7.893
 3883TIP3   OH233211   4.811   4.723   7.644
 3883TIP3    H133212   4.857   4.685   7.569
 3883TIP3    H233213   4.881   4.757   7.700
 3884TIP3   OH233214   1.690   6.136   8.036
 3884TIP3    H133215   1.613   6.081   8.019
 3884TIP3    H233216   1.758   6.075   8.064
 3885TIP3   OH233217   2.945   5.975   2.016
 3885TIP3    H133218   2.987   6.056   2.046
 3885TIP3    H233219   2.976   5.963   1.926
 3886TIP3   OH233220   3.349   1.985   0.160
 3886TIP3    H133221   3.305   2.047   0.218
 3886TIP3    H233222   3.440   1.988   0.187
 3887TIP3   OH233223   5.990   4.372   6.617
 3887TIP3    H133224   6.049   4.437   6.579
 3887TIP3    H233225   6.047   4.300   6.643
 3888TIP3   OH233226   0.846   6.728   7.558
 3888TIP3    H133227   0.793   6.674   7.617
 3888TIP3    H233228   0.783   6.761   7.494
 3889TIP3   OH233229   3.115   1.779   0.498
 3889TIP3    H133230   3.062   1.859   0.495
 3889TIP3    H233231   3.134   1.766   0.591
 3890TIP3   OH233232   5.094   6.422   8.062
 3890TIP3    H133233   5.111   6.504   8.015
 3890TIP3    H233234   5.140   6.355   8.011
 3891TIP3   OH233235   6.625   6.744   1.469
 3891TIP3    H133236   6.648   6.837   1.471
 3891TIP3    H233237   6.703   6.701   1.435
 3892TIP3   OH233238   2.215   0.961   1.467
 3892TIP3    H133239   2.172   0.881   1.498
 3892TIP3    H233240   2.236   1.009   1.548
 3893TIP3   OH233241   6.711   1.444   1.073
 3893TIP3    H133242   6.739   1.415   0.986
 3893TIP3    H233243   6.695   1.362   1.121
 3894TIP3   OH233244   4.940   5.475   7.264
 3894TIP3    H133245   4.895   5.435   7.189
 3894TIP3    H233246   4.911   5.425   7.340
 3895TIP3   OH233247   1.162   2.670   2.307
 3895TIP3    H133248   1.083   2.707   2.266
 3895TIP3    H233249   1.156   2.576   2.288
 3896TIP3   OH233250   5.752   3.995   0.146
 3896TIP3    H133251   5.761   4.010   0.052
 3896TIP3    H233252   5.834   3.952   0.171
 3897TIP3   OH233253   1.711   5.818   1.169
 3897TIP3    H133254   1.716   5.729   1.205
 3897TIP3    H233255   1.793   5.860   1.198
 3898TIP3   OH233256   6.103   3.333   0.350
 3898TIP3    H133257   6.188   3.372   0.372
 3898TIP3    H233258   6.104   3.325   0.255
 3899TIP3   OH233259   5.778   4.491   6.720
 3899TIP3    H133260   5.829   4.488   6.801
 3899TIP3    H233261   5.831   4.442   6.656
 3900TIP3   OH233262   5.156   5.237   0.530
 3900TIP3    H133263   5.200   5.153   0.519
 3900TIP3    H233264   5.224   5.296   0.561
 3901TIP3   OH233265   2.728   4.021   7.973
 3901TIP3    H133266   2.816   4.031   7.936
 3901TIP3    H233267   2.669   4.041   7.900
 3902TIP3   OH233268   6.946   2.914   7.663
 3902TIP3    H133269   7.032   2.957   7.657
 3902TIP3    H233270   6.954   2.855   7.738
 3903TIP3   OH233271   3.040   1.083   0.694
 3903TIP3    H133272   3.067   1.056   0.606
 3903TIP3    H233273   3.026   1.177   0.687
 3904TIP3   OH233274   2.507   0.841   8.172
 3904TIP3    H133275   2.421   0.868   8.137
 3904TIP3    H233276   2.490   0.822   8.264
 3905TIP3   OH233277   4.210   4.221   0.764
 3905TIP3    H133278   4.264   4.169   0.705
 3905TIP3    H233279   4.263   4.299   0.782
 3906TIP3   OH233280   4.945   2.639   0.900
 3906TIP3    H133281   4.991   2.559   0.925
 3906TIP3    H233282   4.886   2.657   0.973
 3907TIP3   OH233283   2.219   3.790   0.287
 3907TIP3    H133284   2.140   3.836   0.318
 3907TIP3    H233285   2.243   3.732   0.360
 3908TIP3   OH233286   5.566   0.014   7.520
 3908TIP3    H133287   5.498   0.062   7.565
 3908TIP3    H233288   5.561   0.044   7.429
 3909TIP3   OH233289   3.859   5.210   8.234
 3909TIP3    H133290   3.847   5.234   8.326
 3909TIP3    H233291   3.827   5.287   8.185
 3910TIP3   OH233292   2.143   2.750   0.267
 3910TIP3    H133293   2.191   2.790   0.194
 3910TIP3    H233294   2.100   2.674   0.228
 3911TIP3   OH233295   5.421   2.234   0.726
 3911TIP3    H133296   5.423   2.324   0.759
 3911TIP3    H233297   5.502   2.194   0.760
 3912TIP3   OH233298   2.688   5.099   1.198
 3912TIP3    H133299   2.642   5.183   1.202
 3912TIP3    H233300   2.779   5.120   1.218
 3913TIP3   OH233301   2.798   3.893   0.911
 3913TIP3    H133302   2.770   3.808   0.946
 3913TIP3    H233303   2.888   3.879   0.883
 3914TIP3   OH233304   3.960   1.634   0.024
 3914TIP3    H133305   3.919   1.716   0.053
 3914TIP3    H233306   4.039   1.626   0.078
 3915TIP3   OH233307   4.419   0.097   0.696
 3915TIP3    H133308   4.426   0.095   0.601
 3915TIP3    H233309   4.399   0.189   0.716
 3916TIP3   OH233310   4.382   6.524   2.456
 3916TIP3    H133311   4.405   6.464   2.385
 3916TIP3    H233312   4.445   6.505   2.525
 3917TIP3   OH233313   3.015   0.441   8.000
 3917TIP3    H133314   2.952   0.497   7.954
 3917TIP3    H233315   3.079   0.418   7.933
 3918TIP3   OH233316   5.460   4.907   7.641
 3918TIP3    H133317   5.501   4.918   7.727
 3918TIP3    H233318   5.381   4.960   7.645
 3919TIP3   OH233319   6.431   2.615   0.886
 3919TIP3    H133320   6.386   2.530   0.890
 3919TIP3    H233321   6.522   2.595   0.910
 3920TIP3   OH233322   6.391   2.177   0.014
 3920TIP3    H133323   6.323   2.171   0.080
 3920TIP3    H233324   6.391   2.091  -0.029
 3921TIP3   OH233325   6.415   0.423   2.047
 3921TIP3    H133326   6.415   0.402   2.140
 3921TIP3    H233327   6.328   0.459   2.031
 3922TIP3   OH233328   3.052   5.875   7.750
 3922TIP3    H133329   3.144   5.856   7.767
 3922TIP3    H233330   3.025   5.931   7.823
 3923TIP3   OH233331   1.115   0.692   8.252
 3923TIP3    H133332   1.200   0.675   8.295
 3923TIP3    H233333   1.056   0.713   8.324
 3924TIP3   OH233334   6.370   5.357   7.315
 3924TIP3    H133335   6.383   5.452   7.315
 3924TIP3    H233336   6.277   5.345   7.298
 3925TIP3   OH233337   6.035   3.603   6.279
 3925TIP3    H133338   5.977   3.661   6.230
 3925TIP3    H233339   6.097   3.571   6.215
 3926TIP3   OH233340   0.498   4.725   1.233
 3926TIP3    H133341   0.503   4.631   1.251
 3926TIP3    H233342   0.404   4.745   1.233
 3927TIP3   OH233343   3.567   6.143   0.991
 3927TIP3    H133344   3.603   6.116   1.076
 3927TIP3    H233345   3.482   6.098   0.986
 3928TIP3   OH233346   0.446   4.069   6.640
 3928TIP3    H133347   0.372   4.070   6.579
 3928TIP3    H233348   0.420   4.129   6.710
 3929TIP3   OH233349   2.791   5.478   1.332
 3929TIP3    H133350   2.821   5.543   1.268
 3929TIP3    H233351   2.871   5.448   1.375
 3930TIP3   OH233352   4.162   1.439   1.399
 3930TIP3    H133353   4.174   1.526   1.361
 3930TIP3    H233354   4.244   1.393   1.379
 3931TIP3   OH233355   1.351   0.761   1.408
 3931TIP3    H133356   1.356   0.842   1.459
 3931TIP3    H233357   1.432   0.758   1.358
 3932TIP3   OH233358   4.351   3.417   1.283
 3932TIP3    H133359   4.321   3.372   1.362
 3932TIP3    H233360   4.273   3.423   1.228
 3933TIP3   OH233361   0.226   1.376   0.173
 3933TIP3    H133362   0.165   1.383   0.100
 3933TIP3    H233363   0.269   1.461   0.177
 3934TIP3   OH233364   1.335   4.747   0.624
 3934TIP3    H133365   1.373   4.763   0.537
 3934TIP3    H233366   1.329   4.834   0.663
 3935TIP3   OH233367   1.685   4.087   1.828
 3935TIP3    H133368   1.706   4.043   1.911
 3935TIP3    H233369   1.608   4.140   1.848
 3936TIP3   OH233370   4.128   3.749   7.225
 3936TIP3    H133371   4.067   3.820   7.204
 3936TIP3    H233372   4.169   3.728   7.141
 3937TIP3   OH233373   5.882   3.433   1.471
 3937TIP3    H133374   5.890   3.528   1.468
 3937TIP3    H233375   5.972   3.401   1.469
 3938TIP3   OH233376   6.405   4.127   1.813
 3938TIP3    H133377   6.431   4.193   1.878
 3938TIP3    H233378   6.328   4.164   1.771
 3939TIP3   OH233379   5.381   4.822   0.738
 3939TIP3    H133380   5.405   4.896   0.793
 3939TIP3    H233381   5.304   4.784   0.781
 3940TIP3   OH233382   2.958   4.815   1.605
 3940TIP3    H133383   3.030   4.818   1.669
 3940TIP3    H233384   2.995   4.855   1.526
 3941TIP3   OH233385   4.877   2.081   0.161
 3941TIP3    H133386   4.940   2.097   0.230
 3941TIP3    H233387   4.820   2.158   0.163
 3942TIP3   OH233388   5.780   0.246   1.031
 3942TIP3    H133389   5.793   0.288   1.116
 3942TIP3    H233390   5.692   0.209   1.035
 3943TIP3   OH233391   2.634   5.209   0.086
 3943TIP3    H133392   2.556   5.165   0.118
 3943TIP3    H233393   2.614   5.231  -0.005
 3944TIP3   OH233394   1.661   2.078   0.649
 3944TIP3    H133395   1.739   2.088   0.704
 3944TIP3    H233396   1.695   2.067   0.560
 3945TIP3   OH233397   0.419   4.596   7.545
 3945TIP3    H133398   0.364   4.668   7.574
 3945TIP3    H233399   0.414   4.599   7.449
 3946TIP3   OH233400   2.540   1.304   0.039
 3946TIP3    H133401   2.572   1.378   0.091
 3946TIP3    H233402   2.542   1.335  -0.051
 3947TIP3   OH233403   3.722   5.677   0.334
 3947TIP3    H133404   3.672   5.620   0.275
 3947TIP3    H233405   3.655   5.719   0.389
 3948TIP3   OH233406   1.510   1.856   7.403
 3948TIP3    H133407   1.517   1.781   7.462
 3948TIP3    H233408   1.525   1.820   7.316
 3949TIP3   OH233409   2.575   0.320   0.348
 3949TIP3    H133410   2.608   0.239   0.387
 3949TIP3    H233411   2.578   0.304   0.254
 3950TIP3   OH233412   3.586   0.478   1.075
 3950TIP3    H133413   3.521   0.422   1.033
 3950TIP3    H233414   3.621   0.531   1.004
 3951TIP3   OH233415   2.053   1.464   6.121
 3951TIP3    H133416   2.025   1.544   6.166
 3951TIP3    H233417   2.136   1.441   6.161
 3952TIP3   OH233418   5.653   5.204   6.281
 3952TIP3    H133419   5.582   5.183   6.221
 3952TIP3    H233420   5.642   5.143   6.354
 3953TIP3   OH233421   3.361   4.082   1.265
 3953TIP3    H133422   3.281   4.035   1.243
 3953TIP3    H233423   3.431   4.031   1.223
 3954TIP3   OH233424   4.247   1.784   6.459
 3954TIP3    H133425   4.329   1.814   6.498
 3954TIP3    H233426   4.202   1.864   6.433
 3955TIP3   OH233427   2.161   3.613   1.744
 3955TIP3    H133428   2.206   3.668   1.808
 3955TIP3    H233429   2.149   3.669   1.668
 3956TIP3   OH233430   1.469   4.575   0.371
 3956TIP3    H133431   1.540   4.563   0.434
 3956TIP3    H233432   1.512   4.611   0.293
 3957TIP3   OH233433   4.086   2.824   1.315
 3957TIP3    H133434   4.061   2.916   1.309
 3957TIP3    H233435   4.066   2.800   1.405
 3958TIP3   OH233436   4.858   1.775   7.025
 3958TIP3    H133437   4.800   1.828   7.081
 3958TIP3    H233438   4.935   1.830   7.011
 3959TIP3   OH233439   3.332   1.742   0.046
 3959TIP3    H133440   3.340   1.831   0.082
 3959TIP3    H233441   3.253   1.744  -0.007
 3960TIP3   OH233442   1.664   4.199   0.222
 3960TIP3    H133443   1.730   4.182   0.289
 3960TIP3    H233444   1.695   4.152   0.145
 3961TIP3   OH233445   4.549   1.016   0.182
 3961TIP3    H133446   4.492   1.022   0.105
 3961TIP3    H233447   4.501   0.958   0.242
 3962TIP3   OH233448   6.442   3.400   8.058
 3962TIP3    H133449   6.443   3.330   8.123
 3962TIP3    H233450   6.392   3.470   8.101
 3963TIP3   OH233451   4.287   6.832   7.583
 3963TIP3    H133452   4.365   6.811   7.634
 3963TIP3    H233453   4.320   6.878   7.506
 3964TIP3   OH233454   4.124   6.122   7.438
 3964TIP3    H133455   4.130   6.182   7.364
 3964TIP3    H233456   4.082   6.044   7.402
 3965TIP3   OH233457   5.906   1.561   1.671
 3965TIP3    H133458   5.927   1.616   1.596
 3965TIP3    H233459   5.898   1.473   1.635
 3966TIP3   OH233460   5.062   3.411   0.408
 3966TIP3    H133461   5.100   3.439   0.492
 3966TIP3    H233462   4.985   3.466   0.397
 3967TIP3   OH233463   4.729   6.783   1.065
 3967TIP3    H133464   4.648   6.792   1.015
 3967TIP3    H233465   4.752   6.691   1.059
 3968TIP3   OH233466   1.807   6.476   2.028
 3968TIP3    H133467   1.728   6.435   2.065
 3968TIP3    H233468   1.786   6.569   2.026
 3969TIP3   OH233469   0.795   3.464   0.497
 3969TIP3    H133470   0.842   3.494   0.575
 3969TIP3    H233471   0.862   3.420   0.444
 3970TIP3   OH233472   1.818   4.789   7.100
 3970TIP3    H133473   1.837   4.846   7.026
 3970TIP3    H233474   1.743   4.736   7.071
 3971TIP3   OH233475   1.001   3.028   1.008
 3971TIP3    H133476   1.015   2.970   1.082
 3971TIP3    H233477   0.914   3.066   1.023
 3972TIP3   OH233478   4.225   6.826   1.341
 3972TIP3    H133479   4.283   6.775   1.398
 3972TIP3    H233480   4.170   6.761   1.298
 3973TIP3   OH233481   1.442   2.038   1.015
 3973TIP3    H133482   1.462   2.129   0.991
 3973TIP3    H233483   1.437   2.039   1.110
 3974TIP3   OH233484   6.835   4.769   1.028
 3974TIP3    H133485   6.833   4.677   1.001
 3974TIP3    H233486   6.856   4.765   1.122
 3975TIP3   OH233487   2.948   1.411   0.133
 3975TIP3    H133488   2.978   1.413   0.224
 3975TIP3    H233489   2.989   1.333   0.096
 3976TIP3   OH233490   1.480   4.107   2.257
 3976TIP3    H133491   1.427   4.090   2.334
 3976TIP3    H233492   1.433   4.177   2.211
 3977TIP3   OH233493   6.804   4.504   6.188
 3977TIP3    H133494   6.865   4.574   6.211
 3977TIP3    H233495   6.858   4.425   6.183
 3978TIP3   OH233496   3.117   4.860   7.131
 3978TIP3    H133497   3.025   4.883   7.121
 3978TIP3    H233498   3.116   4.774   7.173
 3979TIP3   OH233499   2.517   3.605   1.422
 3979TIP3    H133500   2.504   3.512   1.440
 3979TIP3    H233501   2.600   3.608   1.375
 3980TIP3   OH233502   1.501   1.780   6.958
 3980TIP3    H133503   1.489   1.708   7.021
 3980TIP3    H233504   1.508   1.736   6.873
 3981TIP3   OH233505   5.052   3.627   7.547
 3981TIP3    H133506   4.999   3.700   7.516
 3981TIP3    H233507   5.085   3.585   7.467
 3982TIP3   OH233508   2.282   5.428   1.635
 3982TIP3    H133509   2.218   5.389   1.695
 3982TIP3    H233510   2.295   5.362   1.567
 3983TIP3   OH233511   4.903   6.296   6.409
 3983TIP3    H133512   4.895   6.357   6.336
 3983TIP3    H233513   4.953   6.222   6.374
 3984TIP3   OH233514   4.398   5.322   0.633
 3984TIP3    H133515   4.361   5.404   0.599
 3984TIP3    H233516   4.482   5.348   0.671
 3985TIP3   OH233517   2.642   2.644   0.745
 3985TIP3    H133518   2.597   2.560   0.753
 3985TIP3    H233519   2.725   2.631   0.791
 3986TIP3   OH233520   2.316   0.560   7.347
 3986TIP3    H133521   2.252   0.536   7.280
 3986TIP3    H233522   2.309   0.656   7.353
 3987TIP3   OH233523   1.499   2.539   1.669
 3987TIP3    H133524   1.472   2.593   1.744
 3987TIP3    H233525   1.444   2.570   1.597
 3988TIP3   OH233526   5.503   4.283   0.190
 3988TIP3    H133527   5.544   4.360   0.151
 3988TIP3    H233528   5.525   4.211   0.131
 3989TIP3   OH233529   2.261   5.341   7.929
 3989TIP3    H133530   2.267   5.401   7.855
 3989TIP3    H233531   2.340   5.287   7.923
 3990TIP3   OH233532   2.700   1.242   1.065
 3990TIP3    H133533   2.690   1.164   1.120
 3990TIP3    H233534   2.710   1.314   1.127
 3991TIP3   OH233535   2.258   1.850   1.300
 3991TIP3    H133536   2.294   1.825   1.385
 3991TIP3    H233537   2.329   1.834   1.238
 3992TIP3   OH233538   3.536   2.503   7.287
 3992TIP3    H133539   3.567   2.438   7.223
 3992TIP3    H233540   3.451   2.530   7.254
 3993TIP3   OH233541   3.267   1.366   1.681
 3993TIP3    H133542   3.255   1.271   1.684
 3993TIP3    H233543   3.341   1.383   1.739
 3994TIP3   OH233544   1.180   4.235   0.167
 3994TIP3    H133545   1.219   4.315   0.132
 3994TIP3    H233546   1.089   4.237   0.135
 3995TIP3   OH233547   0.975   4.885   7.308
 3995TIP3    H133548   0.992   4.904   7.401
 3995TIP3    H233549   0.997   4.966   7.263
 3996TIP3   OH233550   2.008   3.800   8.003
 3996TIP3    H133551   1.923   3.764   8.027
 3996TIP3    H233552   2.056   3.725   7.967
 3997TIP3   OH233553   6.582   5.872   6.592
 3997TIP3    H133554   6.537   5.793   6.563
 3997TIP3    H233555   6.512   5.927   6.629
 3998TIP3   OH233556   1.744   0.955   1.459
 3998TIP3    H133557   1.783   0.999   1.535
 3998TIP3    H233558   1.650   0.975   1.465
 3999TIP3   OH233559   4.749   5.866   0.626
 3999TIP3    H133560   4.770   5.880   0.533
 3999TIP3    H233561   4.750   5.954   0.664
 4000TIP3   OH233562   2.861   0.340   1.050
 4000TIP3    H133563   2.835   0.275   1.115
 4000TIP3    H233564   2.779   0.369   1.011
 4001TIP3   OH233565   1.240   5.455   7.211
 4001TIP3    H133566   1.321   5.409   7.231
 4001TIP3    H233567   1.240   5.530   7.270
 4002TIP3   OH233568   1.126   3.399   7.878
 4002TIP3    H133569   1.075   3.412   7.958
 4002TIP3    H233570   1.204   3.350   7.907
 4003TIP3   OH233571   3.337   1.013   6.042
 4003TIP3    H133572   3.275   1.080   6.071
 4003TIP3    H233573   3.420   1.060   6.034
 4004TIP3   OH233574   2.666   1.268   7.180
 4004TIP3    H133575   2.637   1.182   7.210
 4004TIP3    H233576   2.734   1.249   7.116
 4005TIP3   OH233577   0.750   0.492   2.283
 4005TIP3    H133578   0.760   0.397   2.279
 4005TIP3    H233579   0.669   0.510   2.235
 4006TIP3   OH233580   4.175   6.532   6.906
 4006TIP3    H133581   4.252   6.479   6.927
 4006TIP3    H233582   4.134   6.549   6.990
 4007TIP3   OH233583   5.254   6.066   7.901
 4007TIP3    H133584   5.333   6.022   7.932
 4007TIP3    H233585   5.287   6.141   7.852
 4008TIP3   OH233586   1.682   1.610   6.567
 4008TIP3    H133587   1.748   1.679   6.568
 4008TIP3    H233588   1.709   1.550   6.498
 4009TIP3   OH233589   6.310   6.737   7.065
 4009TIP3    H133590   6.384   6.736   7.126
 4009TIP3    H233591   6.233   6.718   7.120
 4010TIP3   OH233592   4.047   0.638   0.623
 4010TIP3    H133593   4.129   0.592   0.644
 4010TIP3    H233594   4.074   0.729   0.612
 4011TIP3   OH233595   3.862   4.492   8.024
 4011TIP3    H133596   3.802   4.534   8.085
 4011TIP3    H233597   3.947   4.532   8.042
 4012TIP3   OH233598   3.109   3.043   0.506
 4012TIP3    H133599   3.121   3.130   0.545
 4012TIP3    H233600   3.044   3.001   0.562
 4013TIP3   OH233601   1.656   0.759   6.800
 4013TIP3    H133602   1.674   0.665   6.803
 4013TIP3    H233603   1.609   0.777   6.882
 4014TIP3   OH233604   3.947   0.235   7.768
 4014TIP3    H133605   3.866   0.207   7.809
 4014TIP3    H233606   3.921   0.306   7.710
 4015TIP3   OH233607   1.103   6.522   1.627
 4015TIP3    H133608   1.063   6.504   1.712
 4015TIP3    H233609   1.192   6.488   1.634
 4016TIP3   OH233610   3.440   4.839   1.902
 4016TIP3    H133611   3.437   4.912   1.964
 4016TIP3    H233612   3.455   4.762   1.956
 4017TIP3   OH233613   0.220   6.298   1.225
 4017TIP3    H133614   0.237   6.223   1.167
 4017TIP3    H233615   0.141   6.272   1.273
 4018TIP3   OH233616   1.333   3.400   7.209
 4018TIP3    H133617   1.246   3.439   7.212
 4018TIP3    H233618   1.372   3.419   7.294
 4019TIP3   OH233619   2.915   0.076   5.975
 4019TIP3    H133620   2.995   0.059   6.025
 4019TIP3    H233621   2.945   0.124   5.897
 4020TIP3   OH233622   4.109   1.952   6.712
 4020TIP3    H133623   4.092   1.985   6.623
 4020TIP3    H233624   4.083   2.024   6.769
 4021TIP3   OH233625   2.967   5.399   2.170
 4021TIP3    H133626   2.958   5.494   2.181
 4021TIP3    H233627   3.028   5.373   2.238
 4022TIP3   OH233628   3.374   3.022   8.141
 4022TIP3    H133629   3.446   2.970   8.175
 4022TIP3    H233630   3.297   2.967   8.154
 4023TIP3   OH233631   2.243   3.942   8.113
 4023TIP3    H133632   2.218   4.024   8.072
 4023TIP3    H233633   2.206   3.874   8.056
 4024TIP3   OH233634   1.728   0.263   5.941
 4024TIP3    H133635   1.779   0.198   5.892
 4024TIP3    H233636   1.647   0.218   5.964
 4025TIP3   OH233637   2.833   4.603   7.713
 4025TIP3    H133638   2.770   4.663   7.673
 4025TIP3    H233639   2.779   4.530   7.743
 4026TIP3   OH233640   1.321   4.153   0.921
 4026TIP3    H133641   1.374   4.082   0.958
 4026TIP3    H233642   1.269   4.110   0.853
 4027TIP3   OH233643   4.319   5.081   1.398
 4027TIP3    H133644   4.235   5.037   1.414
 4027TIP3    H233645   4.351   5.104   1.485
 4028TIP3   OH233646   1.387   1.892   0.169
 4028TIP3    H133647   1.458   1.906   0.232
 4028TIP3    H233648   1.432   1.869   0.087
 4029TIP3   OH233649   1.967   3.506   0.594
 4029TIP3    H133650   1.941   3.590   0.558
 4029TIP3    H233651   1.922   3.441   0.540
 4030TIP3   OH233652   6.580   6.970   8.029
 4030TIP3    H133653   6.590   7.029   8.104
 4030TIP3    H233654   6.492   6.987   7.997
 4031TIP3   OH233655   3.079   5.972   1.294
 4031TIP3    H133656   3.060   6.062   1.321
 4031TIP3    H233657   3.003   5.921   1.322
 4032TIP3   OH233658   4.275   1.014   7.437
 4032TIP3    H133659   4.334   0.973   7.500
 4032TIP3    H233660   4.230   1.083   7.486
 4033TIP3   OH233661   2.823   0.783   0.978
 4033TIP3    H133662   2.911   0.749   0.994
 4033TIP3    H233663   2.829   0.827   0.893
 4034TIP3   OH233664   4.120   2.379   0.360
 4034TIP3    H133665   4.091   2.387   0.451
 4034TIP3    H233666   4.064   2.312   0.322
 4035TIP3   OH233667   5.293   5.399   8.117
 4035TIP3    H133668   5.252   5.479   8.085
 4035TIP3    H233669   5.281   5.336   8.046
 4036TIP3   OH233670   3.636   3.304   0.983
 4036TIP3    H133671   3.606   3.363   0.914
 4036TIP3    H233672   3.556   3.269   1.021
 4037TIP3   OH233673   1.328   1.544   1.464
 4037TIP3    H133674   1.326   1.617   1.403
 4037TIP3    H233675   1.259   1.563   1.527
 4038TIP3   OH233676   0.266   4.802   7.939
 4038TIP3    H133677   0.328   4.873   7.961
 4038TIP3    H233678   0.191   4.818   7.995
 4039TIP3   OH233679   1.063   6.665   8.199
 4039TIP3    H133680   1.092   6.686   8.288
 4039TIP3    H233681   1.143   6.651   8.149
 4040TIP3   OH233682   1.469   0.115   7.849
 4040TIP3    H133683   1.485   0.055   7.922
 4040TIP3    H233684   1.394   0.166   7.877
 4041TIP3   OH233685   2.611   3.851   7.078
 4041TIP3    H133686   2.640   3.760   7.074
 4041TIP3    H233687   2.625   3.885   6.990
 4042TIP3   OH233688   3.763   5.395   6.457
 4042TIP3    H133689   3.850   5.359   6.442
 4042TIP3    H233690   3.710   5.361   6.385
 4043TIP3   OH233691   5.204   0.625   7.344
 4043TIP3    H133692   5.145   0.558   7.378
 4043TIP3    H233693   5.238   0.588   7.262
 4044TIP3   OH233694   5.784   6.649   0.249
 4044TIP3    H133695   5.831   6.569   0.226
 4044TIP3    H233696   5.830   6.718   0.201
 4045TIP3   OH233697   6.231   2.703   8.175
 4045TIP3    H133698   6.296   2.751   8.124
 4045TIP3    H233699   6.258   2.611   8.168
 4046TIP3   OH233700   2.456   3.208   6.414
 4046TIP3    H133701   2.477   3.223   6.322
 4046TIP3    H233702   2.385   3.270   6.433
 4047TIP3   OH233703   3.650   5.338   1.404
 4047TIP3    H133704   3.619   5.271   1.342
 4047TIP3    H233705   3.588   5.333   1.477
 4048TIP3   OH233706   3.207   5.164   7.782
 4048TIP3    H133707   3.255   5.105   7.724
 4048TIP3    H233708   3.199   5.245   7.732
 4049TIP3   OH233709   3.529   1.777   1.892
 4049TIP3    H133710   3.580   1.851   1.926
 4049TIP3    H233711   3.491   1.810   1.811
 4050TIP3   OH233712   2.959   6.550   6.303
 4050TIP3    H133713   2.924   6.502   6.228
 4050TIP3    H233714   3.010   6.485   6.351
 4051TIP3   OH233715   1.498   5.796   8.265
 4051TIP3    H133716   1.456   5.826   8.345
 4051TIP3    H233717   1.591   5.819   8.276
 4052TIP3   OH233718   0.181   0.677   1.239
 4052TIP3    H133719   0.251   0.734   1.271
 4052TIP3    H233720   0.119   0.737   1.197
 4053TIP3   OH233721   3.568   0.667   7.241
 4053TIP3    H133722   3.656   0.693   7.269
 4053TIP3    H233723   3.543   0.733   7.176
 4054TIP3   OH233724   5.724   3.116   8.149
 4054TIP3    H133725   5.708   3.201   8.191
 4054TIP3    H233726   5.817   3.100   8.162
 4055TIP3   OH233727   2.379   1.486   0.531
 4055TIP3    H133728   2.417   1.398   0.523
 4055TIP3    H233729   2.315   1.491   0.460
 4056TIP3   OH233730   5.603   0.937   1.330
 4056TIP3    H133731   5.555   0.998   1.274
 4056TIP3    H233732   5.579   0.962   1.419
 4057TIP3   OH233733   6.994   5.074   0.696
 4057TIP3    H133734   6.934   5.002   0.677
 4057TIP3    H233735   7.003   5.073   0.791
 4058TIP3   OH233736   0.730   4.288   1.336
 4058TIP3    H133737   0.791   4.361   1.332
 4058TIP3    H233738   0.784   4.211   1.321
 4059TIP3   OH233739   5.786   1.870   0.253
 4059TIP3    H133740   5.692   1.852   0.263
 4059TIP3    H233741   5.789   1.946   0.194
 4060TIP3   OH233742   1.159   3.121   0.276
 4060TIP3    H133743   1.133   3.031   0.297
 4060TIP3    H233744   1.167   3.122   0.181
 4061TIP3   OH233745   5.378   2.085   8.123
 4061TIP3    H133746   5.388   2.180   8.132
 4061TIP3    H233747   5.411   2.050   8.206
 4062TIP3   OH233748   5.741   6.330   2.202
 4062TIP3    H133749   5.677   6.399   2.217
 4062TIP3    H233750   5.693   6.248   2.216
 4063TIP3   OH233751   2.083   5.079   0.555
 4063TIP3    H133752   2.073   5.056   0.648
 4063TIP3    H233753   2.012   5.140   0.537
 4064TIP3   OH233754   1.515   2.289   0.939
 4064TIP3    H133755   1.478   2.374   0.966
 4064TIP3    H233756   1.506   2.289   0.844
 4065TIP3   OH233757   4.477   3.669   1.577
 4065TIP3    H133758   4.401   3.675   1.519
 4065TIP3    H233759   4.442   3.632   1.658
 4066TIP3   OH233760   5.185   2.287   1.743
 4066TIP3    H133761   5.131   2.287   1.822
 4066TIP3    H233762   5.128   2.252   1.675
 4067TIP3   OH233763   6.885   2.657   7.131
 4067TIP3    H133764   6.944   2.723   7.094
 4067TIP3    H233765   6.941   2.602   7.185
 4068TIP3   OH233766   0.308   2.418   0.103
 4068TIP3    H133767   0.353   2.427   0.186
 4068TIP3    H233768   0.233   2.476   0.110
 4069TIP3   OH233769   0.723   6.030   1.923
 4069TIP3    H133770   0.672   6.106   1.949
 4069TIP3    H233771   0.662   5.974   1.875
 4070TIP3   OH233772   5.784   2.005   8.238
 4070TIP3    H133773   5.870   1.997   8.279
 4070TIP3    H233774   5.778   2.098   8.213
 4071TIP3   OH233775   1.311   1.373   8.299
 4071TIP3    H133776   1.330   1.427   8.376
 4071TIP3    H233777   1.300   1.284   8.335
 4072TIP3   OH233778   4.338   2.751   7.513
 4072TIP3    H133779   4.347   2.746   7.608
 4072TIP3    H233780   4.386   2.830   7.487
 4073TIP3   OH233781   1.281   4.445   6.858
 4073TIP3    H133782   1.307   4.519   6.802
 4073TIP3    H233783   1.266   4.485   6.944
 4074TIP3   OH233784   0.401   4.994   6.295
 4074TIP3    H133785   0.409   4.947   6.212
 4074TIP3    H233786   0.307   5.007   6.306
 4075TIP3   OH233787   2.977   7.000   7.226
 4075TIP3    H133788   2.915   6.930   7.244
 4075TIP3    H233789   2.923   7.076   7.203
 4076TIP3   OH233790   0.499   1.938   1.116
 4076TIP3    H133791   0.426   1.926   1.178
 4076TIP3    H233792   0.571   1.888   1.154
 4077TIP3   OH233793   4.570   5.563   6.514
 4077TIP3    H133794   4.498   5.517   6.472
 4077TIP3    H233795   4.645   5.547   6.457
 4078TIP3   OH233796   5.786   6.132   1.530
 4078TIP3    H133797   5.820   6.046   1.555
 4078TIP3    H233798   5.827   6.151   1.446
 4079TIP3   OH233799   3.506   6.849   7.970
 4079TIP3    H133800   3.490   6.819   8.059
 4079TIP3    H233801   3.422   6.838   7.925
 4080TIP3   OH233802   5.460   6.044   8.118
 4080TIP3    H133803   5.403   6.079   8.186
 4080TIP3    H233804   5.546   6.081   8.138
 4081TIP3   OH233805   3.231   3.216   1.652
 4081TIP3    H133806   3.288   3.140   1.652
 4081TIP3    H233807   3.142   3.180   1.647
 4082TIP3   OH233808   0.953   6.416   6.704
 4082TIP3    H133809   1.039   6.458   6.703
 4082TIP3    H233810   0.894   6.481   6.666
 4083TIP3   OH233811   5.011   6.130   0.459
 4083TIP3    H133812   4.962   6.063   0.411
 4083TIP3    H233813   5.019   6.203   0.399
 4084TIP3   OH233814   1.630   3.397   6.875
 4084TIP3    H133815   1.606   3.398   6.783
 4084TIP3    H233816   1.560   3.447   6.918
 4085TIP3   OH233817   3.059   3.144   6.331
 4085TIP3    H133818   3.070   3.049   6.324
 4085TIP3    H233819   3.130   3.181   6.278
 4086TIP3   OH233820   3.601   6.361   7.995
 4086TIP3    H133821   3.528   6.410   8.033
 4086TIP3    H233822   3.679   6.409   8.023
 4087TIP3   OH233823   3.946   2.456   8.237
 4087TIP3    H133824   3.942   2.371   8.281
 4087TIP3    H233825   4.008   2.442   8.165
 4088TIP3   OH233826   6.126   5.280   7.610
 4088TIP3    H133827   6.129   5.287   7.515
 4088TIP3    H233828   6.210   5.314   7.640
 4089TIP3   OH233829   0.997   0.313   1.033
 4089TIP3    H133830   1.090   0.300   1.015
 4089TIP3    H233831   0.983   0.274   1.119
 4090TIP3   OH233832   5.654   2.315   7.869
 4090TIP3    H133833   5.704   2.319   7.787
 4090TIP3    H233834   5.603   2.234   7.861
 4091TIP3   OH233835   4.224   2.863   2.023
 4091TIP3    H133836   4.253   2.800   2.089
 4091TIP3    H233837   4.303   2.885   1.974
 4092TIP3   OH233838   1.534   4.668   1.828
 4092TIP3    H133839   1.580   4.586   1.808
 4092TIP3    H233840   1.603   4.734   1.835
 4093TIP3   OH233841   3.399   4.708   1.572
 4093TIP3    H133842   3.358   4.622   1.583
 4093TIP3    H233843   3.375   4.756   1.651
 4094TIP3   OH233844   2.644   4.000   6.569
 4094TIP3    H133845   2.646   4.004   6.665
 4094TIP3    H233846   2.559   4.036   6.545
 4095TIP3   OH233847   3.137   2.260   7.029
 4095TIP3    H133848   3.126   2.215   6.946
 4095TIP3    H233849   3.066   2.226   7.084
 4096TIP3   OH233850   1.948   3.412   7.430
 4096TIP3    H133851   1.985   3.486   7.382
 4096TIP3    H233852   1.910   3.357   7.362
 4097TIP3   OH233853   4.244   4.065   6.635
 4097TIP3    H133854   4.332   4.071   6.599
 4097TIP3    H233855   4.190   4.117   6.575
 4098TIP3   OH233856   1.133   6.293   7.627
 4098TIP3    H133857   1.053   6.344   7.613
 4098TIP3    H233858   1.146   6.294   7.722
 4099TIP3   OH233859   0.505   6.857   6.663
 4099TIP3    H133860   0.575   6.809   6.620
 4099TIP3    H233861   0.460   6.903   6.591
 4100TIP3   OH233862   0.522   3.077   8.273
 4100TIP3    H133863   0.455   3.013   8.250
 4100TIP3    H233864   0.597   3.054   8.218
 4101TIP3   OH233865   6.633   6.484   7.005
 4101TIP3    H133866   6.641   6.568   7.051
 4101TIP3    H233867   6.692   6.493   6.930
 4102TIP3   OH233868   0.721   5.843   7.308
 4102TIP3    H133869   0.750   5.761   7.268
 4102TIP3    H233870   0.640   5.865   7.261
 4103TIP3   OH233871   6.898   6.367   8.316
 4103TIP3    H133872   6.809   6.384   8.347
 4103TIP3    H233873   6.944   6.336   8.394
 4104TIP3   OH233874   2.075   1.932   7.596
 4104TIP3    H133875   1.996   1.889   7.564
 4104TIP3    H233876   2.044   2.012   7.639
 4105TIP3   OH233877   5.601   2.330   6.598
 4105TIP3    H133878   5.513   2.296   6.586
 4105TIP3    H233879   5.595   2.423   6.576
 4106TIP3   OH233880   5.760   4.566   1.194
 4106TIP3    H133881   5.786   4.658   1.197
 4106TIP3    H233882   5.664   4.568   1.188
 4107TIP3   OH233883   0.973   4.974   6.115
 4107TIP3    H133884   0.967   4.933   6.201
 4107TIP3    H233885   1.062   5.009   6.111
 4108TIP3   OH233886   3.939   4.367   7.305
 4108TIP3    H133887   3.863   4.340   7.357
 4108TIP3    H233888   3.982   4.285   7.280
 4109TIP3   OH233889   4.592   0.930   7.467
 4109TIP3    H133890   4.640   0.850   7.447
 4109TIP3    H233891   4.570   0.923   7.559
 4110TIP3   OH233892   1.096   4.071   7.999
 4110TIP3    H133893   1.065   4.118   8.076
 4110TIP3    H233894   1.100   4.137   7.930
 4111TIP3   OH233895   1.937   1.227   0.402
 4111TIP3    H133896   1.946   1.321   0.418
 4111TIP3    H233897   1.933   1.188   0.490
 4112TIP3   OH233898   2.944   4.515   0.499
 4112TIP3    H133899   2.881   4.481   0.563
 4112TIP3    H233900   3.027   4.520   0.548
 4113TIP3   OH233901   4.984   0.328   0.072
 4113TIP3    H133902   4.982   0.234   0.092
 4113TIP3    H233903   4.938   0.335  -0.012
 4114TIP3   OH233904   4.191   1.454   7.521
 4114TIP3    H133905   4.156   1.402   7.449
 4114TIP3    H233906   4.165   1.406   7.600
 4115TIP3   OH233907   2.137   2.532   7.212
 4115TIP3    H133908   2.104   2.616   7.246
 4115TIP3    H233909   2.166   2.485   7.290
 4116TIP3   OH233910   6.077   0.628   6.331
 4116TIP3    H133911   6.154   0.665   6.289
 4116TIP3    H233912   6.009   0.694   6.318
 4117TIP3   OH233913   3.068   1.190   7.546
 4117TIP3    H133914   3.101   1.100   7.552
 4117TIP3    H233915   3.116   1.227   7.472
 4118TIP3   OH233916   5.166   4.538   1.073
 4118TIP3    H133917   5.163   4.568   1.164
 4118TIP3    H233918   5.108   4.462   1.071
 4119TIP3   OH233919   2.573   0.795   1.065
 4119TIP3    H133920   2.667   0.779   1.067
 4119TIP3    H233921   2.563   0.873   1.010
 4120TIP3   OH233922   3.094   4.241   6.258
 4120TIP3    H133923   3.105   4.336   6.250
 4120TIP3    H233924   3.179   4.209   6.287
 4121TIP3   OH233925   2.841   3.127   0.051
 4121TIP3    H133926   2.913   3.066   0.068
 4121TIP3    H233927   2.871   3.210   0.089
 4122TIP3   OH233928   0.865   5.542   7.981
 4122TIP3    H133929   0.935   5.480   7.997
 4122TIP3    H233930   0.869   5.604   8.054
 4123TIP3   OH233931   4.866   4.784   0.128
 4123TIP3    H133932   4.918   4.707   0.150
 4123TIP3    H233933   4.861   4.784   0.033
 4124TIP3   OH233934   2.503   6.415   1.603
 4124TIP3    H133935   2.454   6.467   1.667
 4124TIP3    H233936   2.586   6.395   1.647
 4125TIP3   OH233937   5.779   4.631   7.490
 4125TIP3    H133938   5.723   4.562   7.526
 4125TIP3    H233939   5.719   4.704   7.472
 4126TIP3   OH233940   1.482   2.125   7.469
 4126TIP3    H133941   1.506   2.038   7.439
 4126TIP3    H233942   1.516   2.184   7.401
 4127TIP3   OH233943   2.136   6.596   0.491
 4127TIP3    H133944   2.230   6.609   0.480
 4127TIP3    H233945   2.119   6.618   0.582
 4128TIP3   OH233946   4.420   1.880   7.592
 4128TIP3    H133947   4.489   1.938   7.625
 4128TIP3    H233948   4.467   1.806   7.554
 4129TIP3   OH233949   4.547   0.733   1.933
 4129TIP3    H133950   4.513   0.814   1.970
 4129TIP3    H233951   4.618   0.761   1.875
 4130TIP3   OH233952   1.756   3.187   0.196
 4130TIP3    H133953   1.691   3.116   0.191
 4130TIP3    H233954   1.831   3.153   0.147
 4131TIP3   OH233955   4.732   6.676   7.437
 4131TIP3    H133956   4.803   6.643   7.493
 4131TIP3    H233957   4.653   6.669   7.490
 4132TIP3   OH233958   6.771   4.438   0.055
 4132TIP3    H133959   6.683   4.466   0.030
 4132TIP3    H233960   6.824   4.452  -0.024
 4133TIP3   OH233961   6.043   6.845   1.534
 4133TIP3    H133962   6.090   6.766   1.561
 4133TIP3    H233963   6.056   6.850   1.439
 4134TIP3   OH233964   0.960   4.107   6.958
 4134TIP3    H133965   1.044   4.064   6.972
 4134TIP3    H233966   0.914   4.050   6.896
 4135TIP3   OH233967   2.129   0.269   6.743
 4135TIP3    H133968   2.182   0.301   6.670
 4135TIP3    H233969   2.100   0.182   6.715
 4136TIP3   OH233970   1.566   6.246   1.792
 4136TIP3    H133971   1.639   6.245   1.729
 4136TIP3    H233972   1.542   6.154   1.802
 4137TIP3   OH233973   1.517   3.882   0.066
 4137TIP3    H133974   1.465   3.960   0.086
 4137TIP3    H233975   1.601   3.915   0.035
 4138TIP3   OH233976   6.110   4.052   1.881
 4138TIP3    H133977   6.203   4.066   1.866
 4138TIP3    H233978   6.097   4.076   1.973
 4139TIP3   OH233979   1.463   0.166   7.143
 4139TIP3    H133980   1.488   0.134   7.056
 4139TIP3    H233981   1.376   0.203   7.131
 4140TIP3   OH233982   0.127   6.616   7.584
 4140TIP3    H133983   0.182   6.686   7.548
 4140TIP3    H233984   0.105   6.647   7.673
 4141TIP3   OH233985   4.236   4.833   0.600
 4141TIP3    H133986   4.164   4.804   0.544
 4141TIP3    H233987   4.285   4.894   0.545
 4142TIP3   OH233988   1.950   2.270   1.262
 4142TIP3    H133989   1.886   2.285   1.192
 4142TIP3    H233990   1.981   2.181   1.246
 4143TIP3   OH233991   4.009   3.966   0.591
 4143TIP3    H133992   4.022   3.897   0.526
 4143TIP3    H233993   4.093   4.012   0.593
 4144TIP3   OH233994   4.608   0.013   7.052
 4144TIP3    H133995   4.671   0.019   6.981
 4144TIP3    H233996   4.653  -0.039   7.119
 4145TIP3   OH233997   5.673   5.415   1.951
 4145TIP3    H133998   5.739   5.365   2.000
 4145TIP3    H233999   5.604   5.432   2.016
 4146TIP3   OH234000   5.777   3.022   0.189
 4146TIP3    H134001   5.714   2.975   0.134
 4146TIP3    H234002   5.861   3.006   0.148
 4147TIP3   OH234003   1.047   2.870   1.267
 4147TIP3    H134004   1.133   2.840   1.298
 4147TIP3    H234005   1.041   2.960   1.298
 4148TIP3   OH234006   5.242   5.097   7.596
 4148TIP3    H134007   5.257   5.117   7.503
 4148TIP3    H234008   5.158   5.136   7.616
 4149TIP3   OH234009   5.190   2.741   2.410
 4149TIP3    H134010   5.243   2.804   2.458
 4149TIP3    H234011   5.108   2.736   2.459
 4150TIP3   OH234012   6.143   4.556   1.329
 4150TIP3    H134013   6.213   4.493   1.343
 4150TIP3    H234014   6.182   4.640   1.354
 4151TIP3   OH234015   6.935   5.147   0.980
 4151TIP3    H134016   6.950   5.059   1.015
 4151TIP3    H234017   6.841   5.162   0.993
 4152TIP3   OH234018   3.723   3.067   0.449
 4152TIP3    H134019   3.697   2.974   0.448
 4152TIP3    H234020   3.654   3.110   0.499
 4153TIP3   OH234021   0.622   2.492   8.189
 4153TIP3    H134022   0.669   2.444   8.257
 4153TIP3    H234023   0.567   2.427   8.146
 4154TIP3   OH234024   6.092   6.019   1.050
 4154TIP3    H134025   6.133   6.045   0.968
 4154TIP3    H234026   6.137   6.071   1.117
 4155TIP3   OH234027   6.898   3.539   0.094
 4155TIP3    H134028   6.882   3.565   0.184
 4155TIP3    H234029   6.941   3.615   0.054
 4156TIP3   OH234030   2.353   3.777   6.868
 4156TIP3    H134031   2.364   3.852   6.810
 4156TIP3    H234032   2.422   3.716   6.842
 4157TIP3   OH234033   0.808   4.122   0.417
 4157TIP3    H134034   0.714   4.117   0.433
 4157TIP3    H234035   0.818   4.194   0.355
 4158TIP3   OH234036   2.835   1.919   0.985
 4158TIP3    H134037   2.860   1.978   1.056
 4158TIP3    H234038   2.887   1.840   1.000
 4159TIP3   OH234039   1.150   3.885   6.919
 4159TIP3    H134040   1.236   3.844   6.909
 4159TIP3    H234041   1.117   3.897   6.830
 4160TIP3   OH234042   1.540   1.321   0.491
 4160TIP3    H134043   1.463   1.275   0.458
 4160TIP3    H234044   1.582   1.257   0.550
 4161TIP3   OH234045   3.359   4.589   1.156
 4161TIP3    H134046   3.384   4.526   1.089
 4161TIP3    H234047   3.316   4.660   1.108
 4162TIP3   OH234048   3.625   3.951   7.726
 4162TIP3    H134049   3.610   3.915   7.813
 4162TIP3    H234050   3.575   3.894   7.668
 4163TIP3   OH234051   0.745   2.395   8.401
 4163TIP3    H134052   0.789   2.467   8.446
 4163TIP3    H234053   0.748   2.322   8.463
 4164TIP3   OH234054   2.593   4.470   0.875
 4164TIP3    H134055   2.625   4.448   0.962
 4164TIP3    H234056   2.647   4.545   0.848
 4165TIP3   OH234057   1.321   5.933   6.407
 4165TIP3    H134058   1.239   5.883   6.412
 4165TIP3    H234059   1.374   5.898   6.479
 4166TIP3   OH234060   5.325   0.143   7.530
 4166TIP3    H134061   5.335   0.078   7.460
 4166TIP3    H234062   5.313   0.226   7.483
 4167TIP3   OH234063   4.214   4.503   8.373
 4167TIP3    H134064   4.126   4.486   8.406
 4167TIP3    H234065   4.249   4.570   8.431
 4168TIP3   OH234066   2.851   1.164   1.801
 4168TIP3    H134067   2.918   1.187   1.865
 4168TIP3    H234068   2.863   1.070   1.787
 4169TIP3   OH234069   6.044   1.228   1.124
 4169TIP3    H134070   6.053   1.323   1.119
 4169TIP3    H234071   6.032   1.210   1.218
 4170TIP3   OH234072   6.413   0.746   1.169
 4170TIP3    H134073   6.453   0.716   1.251
 4170TIP3    H234074   6.354   0.817   1.196
 4171TIP3   OH234075   5.800   6.177   7.073
 4171TIP3    H134076   5.731   6.199   7.136
 4171TIP3    H234077   5.755   6.178   6.988
 4172TIP3   OH234078   3.401   3.284   0.821
 4172TIP3    H134079   3.346   3.209   0.795
 4172TIP3    H234080   3.407   3.337   0.741
 4173TIP3   OH234081   6.972   1.060   0.999
 4173TIP3    H134082   6.936   1.051   0.910
 4173TIP3    H234083   7.060   1.095   0.985
 4174TIP3   OH234084   6.032   0.639   0.838
 4174TIP3    H134085   6.002   0.549   0.822
 4174TIP3    H234086   6.117   0.629   0.880
 4175TIP3   OH234087   4.306   0.680   1.014
 4175TIP3    H134088   4.358   0.721   1.083
 4175TIP3    H234089   4.223   0.727   1.014
 4176TIP3   OH234090   0.953   0.705   7.575
 4176TIP3    H134091   0.988   0.729   7.660
 4176TIP3    H234092   0.904   0.782   7.546
 4177TIP3   OH234093   5.808   4.889   7.842
 4177TIP3    H134094   5.845   4.809   7.805
 4177TIP3    H234095   5.863   4.960   7.807
 4178TIP3   OH234096   0.261   0.940   8.242
 4178TIP3    H134097   0.257   0.923   8.148
 4178TIP3    H234098   0.203   1.015   8.255
 4179TIP3   OH234099   2.987   6.825   1.611
 4179TIP3    H134100   2.989   6.875   1.692
 4179TIP3    H234101   2.924   6.755   1.627
 4180TIP3   OH234102   0.804   3.619   6.731
 4180TIP3    H134103   0.898   3.610   6.714
 4180TIP3    H234104   0.772   3.675   6.660
 4181TIP3   OH234105   1.657   6.566   1.311
 4181TIP3    H134106   1.738   6.531   1.347
 4181TIP3    H234107   1.613   6.606   1.386
 4182TIP3   OH234108   3.651   1.680   7.683
 4182TIP3    H134109   3.647   1.713   7.773
 4182TIP3    H234110   3.741   1.696   7.655
 4183TIP3   OH234111   4.851   5.016   8.061
 4183TIP3    H134112   4.865   5.109   8.044
 4183TIP3    H234113   4.803   4.984   7.985
 4184TIP3   OH234114   3.087   0.875   1.290
 4184TIP3    H134115   3.112   0.905   1.377
 4184TIP3    H234116   3.128   0.937   1.230
 4185TIP3   OH234117   0.140   1.676   2.306
 4185TIP3    H134118   0.209   1.658   2.242
 4185TIP3    H234119   0.065   1.625   2.276
 4186TIP3   OH234120   6.705   5.009   1.026
 4186TIP3    H134121   6.749   4.923   1.021
 4186TIP3    H234122   6.612   4.988   1.030
 4187TIP3   OH234123   4.994   4.277   6.430
 4187TIP3    H134124   4.956   4.296   6.344
 4187TIP3    H234125   5.048   4.354   6.450
 4188TIP3   OH234126   0.402   0.523   0.260
 4188TIP3    H134127   0.474   0.553   0.315
 4188TIP3    H234128   0.438   0.449   0.211
 4189TIP3   OH234129   4.314   1.225   0.639
 4189TIP3    H134130   4.293   1.142   0.680
 4189TIP3    H234131   4.337   1.283   0.712
 4190TIP3   OH234132   2.827   2.716   2.108
 4190TIP3    H134133   2.735   2.691   2.103
 4190TIP3    H234134   2.845   2.759   2.024
 4191TIP3   OH234135   0.630   0.428   0.770
 4191TIP3    H134136   0.598   0.500   0.825
 4191TIP3    H234137   0.717   0.409   0.804
 4192TIP3   OH234138   1.004   4.649   1.310
 4192TIP3    H134139   0.977   4.573   1.362
 4192TIP3    H234140   1.044   4.709   1.374
 4193TIP3   OH234141   0.566   4.610   7.001
 4193TIP3    H134142   0.620   4.651   7.069
 4193TIP3    H234143   0.519   4.682   6.960
 4194TIP3   OH234144   5.553   4.923   7.892
 4194TIP3    H134145   5.646   4.917   7.869
 4194TIP3    H234146   5.550   4.900   7.985
 4195TIP3   OH234147   1.589   5.660   7.688
 4195TIP3    H134148   1.577   5.755   7.692
 4195TIP3    H234149   1.540   5.627   7.764
 4196TIP3   OH234150   5.067   0.747   0.645
 4196TIP3    H134151   5.051   0.838   0.670
 4196TIP3    H234152   5.067   0.748   0.549
 4197TIP3   OH234153   0.240   4.404   8.341
 4197TIP3    H134154   0.262   4.484   8.292
 4197TIP3    H234155   0.323   4.374   8.376
 4198TIP3   OH234156   6.195   2.594   5.848
 4198TIP3    H134157   6.146   2.512   5.853
 4198TIP3    H234158   6.129   2.660   5.823
 4199TIP3   OH234159   3.823   1.233   1.043
 4199TIP3    H134160   3.902   1.238   1.098
 4199TIP3    H234161   3.751   1.220   1.105
 4200TIP3   OH234162   4.803   2.268   8.194
 4200TIP3    H134163   4.772   2.358   8.203
 4200TIP3    H234164   4.724   2.215   8.205
 4201TIP3   OH234165   4.619   4.939   1.589
 4201TIP3    H134166   4.527   4.949   1.612
 4201TIP3    H234167   4.665   4.944   1.673
 4202TIP3   OH234168   1.533   4.203   7.442
 4202TIP3    H134169   1.531   4.287   7.488
 4202TIP3    H234170   1.604   4.212   7.378
 4203TIP3   OH234171   0.582   5.173   1.246
 4203TIP3    H134172   0.508   5.145   1.299
 4203TIP3    H234173   0.612   5.094   1.203
 4204TIP3   OH234174   1.797   0.476   7.797
 4204TIP3    H134175   1.842   0.402   7.837
 4204TIP3    H234176   1.868   0.530   7.760
 4205TIP3   OH234177   5.930   2.422   6.516
 4205TIP3    H134178   5.987   2.422   6.439
 4205TIP3    H234179   5.849   2.463   6.487
 4206TIP3   OH234180   4.623   4.509   8.121
 4206TIP3    H134181   4.600   4.421   8.091
 4206TIP3    H234182   4.681   4.494   8.196
 4207TIP3   OH234183   5.991   1.967   6.853
 4207TIP3    H134184   5.936   2.003   6.783
 4207TIP3    H234185   5.969   1.874   6.856
 4208TIP3   OH234186   4.886   1.566   1.614
 4208TIP3    H134187   4.914   1.575   1.705
 4208TIP3    H234188   4.900   1.652   1.575
 4209TIP3   OH234189   2.687   0.573   0.374
 4209TIP3    H134190   2.652   0.485   0.386
 4209TIP3    H234191   2.782   0.561   0.368
 4210TIP3   OH234192   0.850   2.019   6.234
 4210TIP3    H134193   0.780   2.081   6.214
 4210TIP3    H234194   0.857   1.963   6.157
 4211TIP3   OH234195   0.994   3.299   1.052
 4211TIP3    H134196   1.050   3.369   1.084
 4211TIP3    H234197   0.913   3.308   1.103
 4212TIP3   OH234198   1.866   2.647   6.250
 4212TIP3    H134199   1.938   2.619   6.193
 4212TIP3    H234200   1.897   2.628   6.339
 4213TIP3   OH234201   6.504   3.020   7.134
 4213TIP3    H134202   6.469   3.025   7.045
 4213TIP3    H234203   6.592   3.057   7.127
 4214TIP3   OH234204   3.014   4.043   7.581
 4214TIP3    H134205   3.032   3.961   7.535
 4214TIP3    H234206   3.005   4.108   7.511
 4215TIP3   OH234207   3.619   0.410   0.491
 4215TIP3    H134208   3.679   0.479   0.464
 4215TIP3    H234209   3.550   0.456   0.539
 4216TIP3   OH234210   2.283   0.642   8.178
 4216TIP3    H134211   2.205   0.697   8.180
 4216TIP3    H234212   2.314   0.647   8.088
 4217TIP3   OH234213   1.360   1.527   6.464
 4217TIP3    H134214   1.424   1.460   6.438
 4217TIP3    H234215   1.412   1.605   6.482
 4218TIP3   OH234216   3.772   5.530   1.240
 4218TIP3    H134217   3.752   5.463   1.306
 4218TIP3    H234218   3.859   5.561   1.264
 4219TIP3   OH234219   4.274   2.498   7.421
 4219TIP3    H134220   4.296   2.588   7.443
 4219TIP3    H234221   4.317   2.483   7.336
 4220TIP3   OH234222   4.413   4.207   2.290
 4220TIP3    H134223   4.351   4.278   2.277
 4220TIP3    H234224   4.445   4.219   2.379
 4221TIP3   OH234225   5.611   4.482   7.657
 4221TIP3    H134226   5.552   4.485   7.581
 4221TIP3    H234227   5.554   4.465   7.731
 4222TIP3   OH234228   1.441   1.465   0.959
 4222TIP3    H134229   1.381   1.487   1.031
 4222TIP3    H234230   1.408   1.383   0.924
 4223TIP3   OH234231   6.004   3.467   8.262
 4223TIP3    H134232   6.021   3.485   8.169
 4223TIP3    H234233   5.913   3.494   8.275
 4224TIP3   OH234234   5.580   2.144   1.689
 4224TIP3    H134235   5.589   2.225   1.637
 4224TIP3    H234236   5.650   2.088   1.656
 4225TIP3   OH234237   6.924   2.981   7.401
 4225TIP3    H134238   6.989   2.916   7.373
 4225TIP3    H234239   6.912   2.963   7.495
 4226TIP3   OH234240   4.179   6.203   1.460
 4226TIP3    H134241   4.101   6.232   1.414
 4226TIP3    H234242   4.148   6.134   1.519
 4227TIP3   OH234243   2.798   2.195   1.494
 4227TIP3    H134244   2.760   2.269   1.541
 4227TIP3    H234245   2.768   2.207   1.403
 4228TIP3   OH234246   0.870   5.401   6.711
 4228TIP3    H134247   0.909   5.442   6.633
 4228TIP3    H234248   0.831   5.473   6.759
 4229TIP3   OH234249   0.339   5.081   1.416
 4229TIP3    H134250   0.285   5.153   1.449
 4229TIP3    H234251   0.286   5.041   1.347
 4230TIP3   OH234252   1.084   1.908   7.666
 4230TIP3    H134253   1.158   1.847   7.675
 4230TIP3    H234254   1.123   1.995   7.673
 4231TIP3   OH234255   4.429   0.579   2.125
 4231TIP3    H134256   4.406   0.659   2.173
 4231TIP3    H234257   4.472   0.612   2.046
 4232TIP3   OH234258   5.090   6.463   6.576
 4232TIP3    H134259   5.128   6.407   6.643
 4232TIP3    H234260   5.051   6.403   6.513
 4233TIP3   OH234261   0.778   5.763   8.144
 4233TIP3    H134262   0.854   5.791   8.195
 4233TIP3    H234263   0.782   5.817   8.065
 4234TIP3   OH234264   6.961   4.546   0.760
 4234TIP3    H134265   7.042   4.531   0.808
 4234TIP3    H234266   6.892   4.535   0.825
 4235TIP3   OH234267   4.338   2.391   6.564
 4235TIP3    H134268   4.407   2.354   6.509
 4235TIP3    H234269   4.385   2.439   6.632
 4236TIP3   OH234270   1.925   4.865   0.980
 4236TIP3    H134271   1.920   4.925   1.054
 4236TIP3    H234272   1.871   4.905   0.912
 4237TIP3   OH234273   4.831   4.702   0.961
 4237TIP3    H134274   4.744   4.678   0.927
 4237TIP3    H234275   4.820   4.704   1.056
 4238TIP3   OH234276   0.488   3.956   8.083
 4238TIP3    H134277   0.511   3.990   7.996
 4238TIP3    H234278   0.402   3.995   8.102
 4239TIP3   OH234279   4.209   5.418   8.142
 4239TIP3    H134280   4.159   5.394   8.064
 4239TIP3    H234281   4.300   5.408   8.117
 4240TIP3   OH234282   3.119   4.161   6.764
 4240TIP3    H134283   3.196   4.130   6.718
 4240TIP3    H234284   3.153   4.196   6.847
 4241TIP3   OH234285   2.425   1.515   1.380
 4241TIP3    H134286   2.331   1.504   1.361
 4241TIP3    H234287   2.467   1.515   1.294
 4242TIP3   OH234288   3.127   2.942   8.243
 4242TIP3    H134289   3.075   2.958   8.164
 4242TIP3    H234290   3.116   2.849   8.262
 4243TIP3   OH234291   1.858   4.961   1.619
 4243TIP3    H134292   1.854   4.922   1.532
 4243TIP3    H234293   1.949   4.989   1.629
 4244TIP3   OH234294   1.216   4.323   0.528
 4244TIP3    H134295   1.310   4.304   0.538
 4244TIP3    H234296   1.201   4.398   0.585
 4245TIP3   OH234297   1.805   0.008   7.267
 4245TIP3    H134298   1.722  -0.022   7.303
 4245TIP3    H234299   1.867  -0.001   7.339
 4246TIP3   OH234300   0.303   3.837   5.961
 4246TIP3    H134301   0.314   3.930   5.982
 4246TIP3    H234302   0.381   3.815   5.910
 4247TIP3   OH234303   0.953   1.219   1.468
 4247TIP3    H134304   0.860   1.195   1.470
 4247TIP3    H234305   0.953   1.313   1.450
 4248TIP3   OH234306   0.713   1.783   0.797
 4248TIP3    H134307   0.641   1.829   0.754
 4248TIP3    H234308   0.670   1.714   0.848
 4249TIP3   OH234309   4.122   5.873   8.297
 4249TIP3    H134310   4.184   5.917   8.239
 4249TIP3    H234311   4.106   5.937   8.367
 4250TIP3   OH234312   3.661   4.657   7.398
 4250TIP3    H134313   3.626   4.569   7.385
 4250TIP3    H234314   3.615   4.689   7.476
 4251TIP3   OH234315   3.308   2.605   5.895
 4251TIP3    H134316   3.402   2.599   5.882
 4251TIP3    H234317   3.273   2.525   5.856
 4252TIP3   OH234318   3.747   6.269   6.241
 4252TIP3    H134319   3.733   6.205   6.310
 4252TIP3    H234320   3.770   6.217   6.164
 4253TIP3   OH234321   0.706   3.184   0.847
 4253TIP3    H134322   0.724   3.176   0.941
 4253TIP3    H234323   0.649   3.109   0.828
 4254TIP3   OH234324   2.667   6.084   1.876
 4254TIP3    H134325   2.678   6.001   1.922
 4254TIP3    H234326   2.575   6.108   1.891
 4255TIP3   OH234327   5.462   4.635   7.447
 4255TIP3    H134328   5.380   4.588   7.433
 4255TIP3    H234329   5.437   4.713   7.496
 4256TIP3   OH234330   4.923   4.522   7.471
 4256TIP3    H134331   4.992   4.458   7.484
 4256TIP3    H234332   4.879   4.495   7.390
 4257TIP3   OH234333   3.511   2.894   7.303
 4257TIP3    H134334   3.510   2.900   7.399
 4257TIP3    H234335   3.547   2.807   7.286
 4258TIP3   OH234336   6.269   4.140   2.109
 4258TIP3    H134337   6.265   4.213   2.047
 4258TIP3    H234338   6.360   4.111   2.106
 4259TIP3   OH234339   4.820   0.040   6.874
 4259TIP3    H134340   4.893   0.065   6.931
 4259TIP3    H234341   4.840   0.081   6.790
 4260TIP3   OH234342   2.712   3.549   7.519
 4260TIP3    H134343   2.703   3.505   7.604
 4260TIP3    H234344   2.724   3.641   7.541
 4261TIP3   OH234345   3.280   2.777   0.858
 4261TIP3    H134346   3.324   2.828   0.791
 4261TIP3    H234347   3.189   2.805   0.855
 4262TIP3   OH234348   2.154   4.425   7.228
 4262TIP3    H134349   2.112   4.357   7.174
 4262TIP3    H234350   2.094   4.499   7.224
 4263TIP3   OH234351   6.033   6.829   0.209
 4263TIP3    H134352   6.034   6.870   0.295
 4263TIP3    H234353   6.125   6.811   0.189
 4264TIP3   OH234354   5.495   2.214   7.178
 4264TIP3    H134355   5.561   2.253   7.119
 4264TIP3    H234356   5.536   2.217   7.264
 4265TIP3   OH234357   0.346   1.576   2.142
 4265TIP3    H134358   0.376   1.495   2.100
 4265TIP3    H234359   0.425   1.628   2.154
 4266TIP3   OH234360   0.011   4.439   6.428
 4266TIP3    H134361  -0.010   4.525   6.391
 4266TIP3    H234362  -0.037   4.378   6.372
 4267TIP3   OH234363   0.230   1.221   2.249
 4267TIP3    H134364   0.276   1.302   2.230
 4267TIP3    H234365   0.202   1.188   2.163
 4268TIP3   OH234366   2.320   3.268   1.756
 4268TIP3    H134367   2.308   3.202   1.823
 4268TIP3    H234368   2.357   3.343   1.802
 4269TIP3   OH234369   1.688   3.803   7.789
 4269TIP3    H134370   1.666   3.895   7.807
 4269TIP3    H234371   1.740   3.806   7.709
 4270TIP3   OH234372   1.640   5.310   8.296
 4270TIP3    H134373   1.658   5.276   8.209
 4270TIP3    H234374   1.603   5.235   8.344
 4271TIP3   OH234375   6.802   4.809   0.541
 4271TIP3    H134376   6.769   4.839   0.626
 4271TIP3    H234377   6.743   4.738   0.516
 4272TIP3   OH234378   5.309   4.830   1.944
 4272TIP3    H134379   5.243   4.888   1.981
 4272TIP3    H234380   5.319   4.761   2.010
 4273TIP3   OH234381   5.421   5.185   8.282
 4273TIP3    H134382   5.387   5.255   8.227
 4273TIP3    H234383   5.477   5.229   8.347
 4274TIP3   OH234384   4.331   3.428   6.880
 4274TIP3    H134385   4.388   3.390   6.814
 4274TIP3    H234386   4.261   3.470   6.829
 4275TIP3   OH234387   0.984   1.083   7.989
 4275TIP3    H134388   0.970   1.046   7.901
 4275TIP3    H234389   1.057   1.033   8.024
 4276TIP3   OH234390   4.974   1.323   7.226
 4276TIP3    H134391   4.954   1.301   7.135
 4276TIP3    H234392   4.937   1.251   7.277
 4277TIP3   OH234393   2.213   3.084   6.844
 4277TIP3    H134394   2.283   3.109   6.904
 4277TIP3    H234395   2.248   3.009   6.796
 4278TIP3   OH234396   1.331   4.853   6.963
 4278TIP3    H134397   1.384   4.917   7.011
 4278TIP3    H234398   1.274   4.905   6.908
 4279TIP3   OH234399   4.339   0.320   0.823
 4279TIP3    H134400   4.323   0.311   0.917
 4279TIP3    H234401   4.424   0.364   0.818
 4280TIP3   OH234402   4.365   4.175   6.340
 4280TIP3    H134403   4.376   4.105   6.404
 4280TIP3    H234404   4.286   4.221   6.367
 4281TIP3   OH234405   0.992   0.908   7.039
 4281TIP3    H134406   0.983   0.989   6.989
 4281TIP3    H234407   0.995   0.839   6.973
 4282TIP3   OH234408   6.892   2.231   8.264
 4282TIP3    H134409   6.947   2.269   8.196
 4282TIP3    H234410   6.911   2.137   8.260
 4283TIP3   OH234411   3.842   5.990   1.273
 4283TIP3    H134412   3.865   5.898   1.265
 4283TIP3    H234413   3.909   6.036   1.222
 4284TIP3   OH234414   5.890   3.974   6.396
 4284TIP3    H134415   5.926   4.060   6.377
 4284TIP3    H234416   5.965   3.915   6.392
 4285TIP3   OH234417   5.636   5.009   1.148
 4285TIP3    H134418   5.655   4.926   1.103
 4285TIP3    H234419   5.666   4.995   1.238
 4286TIP3   OH234420   1.934   4.019   2.267
 4286TIP3    H134421   1.913   4.008   2.360
 4286TIP3    H234422   2.023   4.056   2.267
 4287TIP3   OH234423   6.964   4.199   1.177
 4287TIP3    H134424   6.994   4.109   1.189
 4287TIP3    H234425   6.885   4.205   1.231
 4288TIP3   OH234426   4.381   3.055   0.610
 4288TIP3    H134427   4.434   3.041   0.688
 4288TIP3    H234428   4.395   2.977   0.557
 4289TIP3   OH234429   0.485   2.448   1.585
 4289TIP3    H134430   0.579   2.444   1.571
 4289TIP3    H234431   0.471   2.408   1.671
 4290TIP3   OH234432   3.905   4.504   0.515
 4290TIP3    H134433   3.850   4.495   0.593
 4290TIP3    H234434   3.926   4.414   0.490
 4291TIP3   OH234435   2.758   5.390   8.280
 4291TIP3    H134436   2.671   5.428   8.268
 4291TIP3    H234437   2.792   5.381   8.191
 4292TIP3   OH234438   5.508   3.706   0.324
 4292TIP3    H134439   5.426   3.752   0.308
 4292TIP3    H234440   5.482   3.619   0.354
 4293TIP3   OH234441   4.927   0.056   7.403
 4293TIP3    H134442   4.912   0.104   7.322
 4293TIP3    H234443   4.970   0.119   7.461
 4294TIP3   OH234444   6.189   5.094   6.958
 4294TIP3    H134445   6.171   5.082   7.051
 4294TIP3    H234446   6.102   5.094   6.917
 4295TIP3   OH234447   0.100   1.359   0.964
 4295TIP3    H134448   0.105   1.392   1.054
 4295TIP3    H234449   0.022   1.400   0.928
 4296TIP3   OH234450   4.374   1.794   0.646
 4296TIP3    H134451   4.430   1.872   0.654
 4296TIP3    H234452   4.287   1.826   0.669
 4297TIP3   OH234453   4.629   4.777   0.280
 4297TIP3    H134454   4.690   4.770   0.206
 4297TIP3    H234455   4.676   4.739   0.354
 4298TIP3   OH234456   4.851   0.207   7.156
 4298TIP3    H134457   4.756   0.196   7.151
 4298TIP3    H234458   4.867   0.294   7.122
 4299TIP3   OH234459   2.791   3.438   8.320
 4299TIP3    H134460   2.793   3.533   8.306
 4299TIP3    H234461   2.881   3.410   8.306
 4300TIP3   OH234462   3.664   6.135   0.236
 4300TIP3    H134463   3.688   6.067   0.299
 4300TIP3    H234464   3.574   6.159   0.259
 4301TIP3   OH234465   4.041   1.890   7.216
 4301TIP3    H134466   3.963   1.892   7.161
 4301TIP3    H234467   4.114   1.880   7.155
 4302TIP3   OH234468   2.849   2.840   7.343
 4302TIP3    H134469   2.848   2.936   7.352
 4302TIP3    H234470   2.937   2.820   7.311
 4303TIP3   OH234471   3.307   1.917   6.856
 4303TIP3    H134472   3.270   1.829   6.855
 4303TIP3    H234473   3.233   1.975   6.839
 4304TIP3   OH234474   3.400   3.850   0.389
 4304TIP3    H134475   3.479   3.797   0.397
 4304TIP3    H234476   3.341   3.797   0.334
 4305TIP3   OH234477   1.541   6.701   5.977
 4305TIP3    H134478   1.563   6.650   5.899
 4305TIP3    H234479   1.612   6.765   5.985
 4306TIP3   OH234480   1.761   3.797   7.526
 4306TIP3    H134481   1.826   3.838   7.469
 4306TIP3    H234482   1.680   3.846   7.509
 4307TIP3   OH234483   6.241   3.543   1.893
 4307TIP3    H134484   6.281   3.578   1.972
 4307TIP3    H234485   6.271   3.452   1.889
 4308TIP3   OH234486   3.265   5.567   5.927
 4308TIP3    H134487   3.313   5.498   5.971
 4308TIP3    H234488   3.184   5.576   5.978
 4309TIP3   OH234489   0.278   6.739   0.599
 4309TIP3    H134490   0.186   6.724   0.580
 4309TIP3    H234491   0.319   6.751   0.514
 4310TIP3   OH234492   1.784   4.609   7.969
 4310TIP3    H134493   1.774   4.703   7.953
 4310TIP3    H234494   1.717   4.589   8.035
 4311TIP3   OH234495   3.391   0.700   1.060
 4311TIP3    H134496   3.452   0.635   1.096
 4311TIP3    H234497   3.414   0.705   0.967
 4312TIP3   OH234498   2.181   1.307   6.321
 4312TIP3    H134499   2.213   1.232   6.271
 4312TIP3    H234500   2.117   1.270   6.382
 4313TIP3   OH234501   6.634   4.150   6.764
 4313TIP3    H134502   6.655   4.129   6.854
 4313TIP3    H234503   6.706   4.114   6.712
 4314TIP3   OH234504   3.601   5.104   6.369
 4314TIP3    H134505   3.652   5.053   6.306
 4314TIP3    H234506   3.603   5.194   6.335
 4315TIP3   OH234507   4.076   2.174   7.996
 4315TIP3    H134508   3.988   2.171   7.961
 4315TIP3    H234509   4.133   2.147   7.924
 4316TIP3   OH234510   2.114   1.402   8.025
 4316TIP3    H134511   2.121   1.489   7.986
 4316TIP3    H234512   2.202   1.366   8.020
 4317TIP3   OH234513   6.814   5.651   1.210
 4317TIP3    H134514   6.828   5.744   1.223
 4317TIP3    H234515   6.732   5.632   1.256
 4318TIP3   OH234516   3.678   2.188   6.871
 4318TIP3    H134517   3.595   2.236   6.877
 4318TIP3    H234518   3.718   2.222   6.791
 4319TIP3   OH234519   3.280   1.716   8.002
 4319TIP3    H134520   3.267   1.638   7.947
 4319TIP3    H234521   3.253   1.687   8.090
 4320TIP3   OH234522   1.686   1.619   0.629
 4320TIP3    H134523   1.594   1.601   0.611
 4320TIP3    H234524   1.696   1.600   0.722
 4321TIP3   OH234525   3.226   3.162   7.480
 4321TIP3    H134526   3.294   3.176   7.546
 4321TIP3    H234527   3.257   3.085   7.431
 4322TIP3   OH234528   4.218   1.097   7.199
 4322TIP3    H134529   4.278   1.145   7.142
 4322TIP3    H234530   4.274   1.060   7.267
 4323TIP3   OH234531   6.132   4.086   6.663
 4323TIP3    H134532   6.122   4.039   6.580
 4323TIP3    H234533   6.226   4.082   6.681
 4324TIP3   OH234534   6.924   0.604   8.020
 4324TIP3    H134535   6.930   0.688   7.974
 4324TIP3    H234536   6.997   0.605   8.082
 4325TIP3   OH234537   1.279   5.812   0.603
 4325TIP3    H134538   1.278   5.842   0.512
 4325TIP3    H234539   1.336   5.735   0.603
 4326TIP3   OH234540   0.905   6.103   8.231
 4326TIP3    H134541   0.825   6.085   8.280
 4326TIP3    H234542   0.929   6.192   8.256
 4327TIP3   OH234543   1.096   6.956   1.281
 4327TIP3    H134544   1.034   6.909   1.224
 4327TIP3    H234545   1.064   7.046   1.282
 4328TIP3   OH234546   1.532   0.768   0.326
 4328TIP3    H134547   1.566   0.712   0.256
 4328TIP3    H234548   1.443   0.734   0.342
 4329TIP3   OH234549   4.458   2.355   0.221
 4329TIP3    H134550   4.514   2.320   0.151
 4329TIP3    H234551   4.474   2.297   0.295
 4330TIP3   OH234552   6.909   5.043   7.482
 4330TIP3    H134553   6.973   5.052   7.553
 4330TIP3    H234554   6.826   5.028   7.526
 4331TIP3   OH234555   3.370   5.892   7.029
 4331TIP3    H134556   3.431   5.922   7.097
 4331TIP3    H234557   3.410   5.813   6.994
 4332TIP3   OH234558   6.559   4.991   6.697
 4332TIP3    H134559   6.539   5.052   6.768
 4332TIP3    H234560   6.546   4.904   6.735
 4333TIP3   OH234561   0.475   5.466   0.718
 4333TIP3    H134562   0.501   5.376   0.739
 4333TIP3    H234563   0.555   5.507   0.684
 4334TIP3   OH234564   5.582   2.786   0.843
 4334TIP3    H134565   5.618   2.853   0.784
 4334TIP3    H234566   5.650   2.775   0.910
 4335TIP3   OH234567   6.060   3.089   1.985
 4335TIP3    H134568   6.151   3.060   1.977
 4335TIP3    H234569   6.062   3.153   2.055
 4336TIP3   OH234570   1.227   0.585   7.112
 4336TIP3    H134571   1.206   0.529   7.037
 4336TIP3    H234572   1.143   0.607   7.151
 4337TIP3   OH234573   0.138   5.825   7.695
 4337TIP3    H134574   0.231   5.815   7.713
 4337TIP3    H234575   0.098   5.838   7.781
 4338TIP3   OH234576   6.682   5.784   0.181
 4338TIP3    H134577   6.615   5.776   0.249
 4338TIP3    H234578   6.665   5.869   0.140
 4339TIP3   OH234579   5.734   3.570   6.176
 4339TIP3    H134580   5.791   3.647   6.174
 4339TIP3    H234581   5.793   3.496   6.165
 4340TIP3   OH234582   5.902   1.518   0.420
 4340TIP3    H134583   5.934   1.476   0.500
 4340TIP3    H234584   5.972   1.578   0.395
 4341TIP3   OH234585   5.806   4.858   8.319
 4341TIP3    H134586   5.794   4.765   8.302
 4341TIP3    H234587   5.891   4.864   8.362
 4342TIP3   OH234588   3.029   6.564   0.826
 4342TIP3    H134589   3.058   6.602   0.743
 4342TIP3    H234590   2.990   6.481   0.802
 4343TIP3   OH234591   0.078   2.100   7.794
 4343TIP3    H134592   0.088   2.130   7.885
 4343TIP3    H234593  -0.010   2.127   7.770
 4344TIP3   OH234594   3.800   0.917   7.079
 4344TIP3    H134595   3.864   0.952   7.141
 4344TIP3    H234596   3.744   0.991   7.057
 4345TIP3   OH234597   2.943   2.813   0.564
 4345TIP3    H134598   2.979   2.739   0.515
 4345TIP3    H234599   2.874   2.847   0.508
 4346TIP3   OH234600   0.722   3.654   7.020
 4346TIP3    H134601   0.747   3.620   6.934
 4346TIP3    H234602   0.784   3.613   7.080
 4347TIP3   OH234603   3.250   3.302   1.387
 4347TIP3    H134604   3.184   3.291   1.319
 4347TIP3    H234605   3.211   3.263   1.465
 4348TIP3   OH234606   6.472   5.155   6.902
 4348TIP3    H134607   6.378   5.143   6.915
 4348TIP3    H234608   6.511   5.125   6.984
 4349TIP3   OH234609   0.895   6.124   6.949
 4349TIP3    H134610   0.944   6.177   7.012
 4349TIP3    H234611   0.843   6.187   6.899
 4350TIP3   OH234612   0.977   3.520   0.707
 4350TIP3    H134613   1.017   3.434   0.720
 4350TIP3    H234614   1.042   3.582   0.740
 4351TIP3   OH234615   3.249   0.234   8.178
 4351TIP3    H134616   3.297   0.159   8.215
 4351TIP3    H234617   3.219   0.203   8.093
 4352TIP3   OH234618   2.578   5.310   7.265
 4352TIP3    H134619   2.645   5.335   7.202
 4352TIP3    H234620   2.619   5.240   7.317
 4353TIP3   OH234621   5.491   5.846   8.406
 4353TIP3    H134622   5.554   5.912   8.435
 4353TIP3    H234623   5.529   5.808   8.327
 4354TIP3   OH234624   6.759   5.364   0.847
 4354TIP3    H134625   6.805   5.373   0.931
 4354TIP3    H234626   6.825   5.383   0.781
 4355TIP3   OH234627   5.221   1.492   0.935
 4355TIP3    H134628   5.300   1.530   0.898
 4355TIP3    H234629   5.213   1.532   1.021
 4356TIP3   OH234630   6.072   2.631   0.123
 4356TIP3    H134631   6.037   2.717   0.147
 4356TIP3    H234632   6.009   2.568   0.157
 4357TIP3   OH234633   1.491   4.500   7.315
 4357TIP3    H134634   1.494   4.505   7.410
 4357TIP3    H234635   1.406   4.461   7.296
 4358TIP3   OH234636   0.284   6.012   1.429
 4358TIP3    H134637   0.194   5.980   1.433
 4358TIP3    H234638   0.291   6.073   1.502
 4359TIP3   OH234639   5.696   4.262   8.368
 4359TIP3    H134640   5.774   4.235   8.416
 4359TIP3    H234641   5.725   4.340   8.319
 4360TIP3   OH234642   1.416   3.490   1.733
 4360TIP3    H134643   1.448   3.580   1.737
 4360TIP3    H234644   1.486   3.438   1.773
 4361TIP3   OH234645   1.079   6.251   7.115
 4361TIP3    H134646   1.046   6.336   7.145
 4361TIP3    H234647   1.094   6.202   7.196
 4362TIP3   OH234648   6.871   4.348   7.276
 4362TIP3    H134649   6.939   4.306   7.223
 4362TIP3    H234650   6.903   4.437   7.291
 4363TIP3   OH234651   0.851   2.415   2.206
 4363TIP3    H134652   0.799   2.485   2.167
 4363TIP3    H234653   0.794   2.377   2.273
 4364TIP3   OH234654   1.225   5.329   8.114
 4364TIP3    H134655   1.279   5.400   8.147
 4364TIP3    H234656   1.284   5.275   8.061
 4365TIP3   OH234657   4.385   5.198   1.133
 4365TIP3    H134658   4.310   5.183   1.074
 4365TIP3    H234659   4.365   5.144   1.210
 4366TIP3   OH234660   6.867   2.987   6.176
 4366TIP3    H134661   6.845   2.900   6.141
 4366TIP3    H234662   6.799   3.004   6.241
 4367TIP3   OH234663   2.329   5.364   0.358
 4367TIP3    H134664   2.237   5.382   0.376
 4367TIP3    H234665   2.342   5.274   0.387
 4368TIP3   OH234666   5.080   1.474   8.235
 4368TIP3    H134667   4.999   1.504   8.194
 4368TIP3    H234668   5.114   1.407   8.176
 4369TIP3   OH234669   5.572   2.586   7.799
 4369TIP3    H134670   5.586   2.496   7.768
 4369TIP3    H234671   5.520   2.628   7.730
 4370TIP3   OH234672   3.750   1.870   6.547
 4370TIP3    H134673   3.706   1.921   6.615
 4370TIP3    H234674   3.790   1.936   6.490
 4371TIP3   OH234675   6.582   0.822   8.363
 4371TIP3    H134676   6.646   0.752   8.372
 4371TIP3    H234677   6.510   0.797   8.421
 4372TIP3   OH234678   2.926   3.419   1.725
 4372TIP3    H134679   2.866   3.493   1.731
 4372TIP3    H234680   2.959   3.408   1.814
 4373TIP3   OH234681   3.611   0.507   6.661
 4373TIP3    H134682   3.585   0.551   6.742
 4373TIP3    H234683   3.705   0.495   6.669
 4374TIP3   OH234684   0.213   3.634   8.012
 4374TIP3    H134685   0.303   3.650   7.983
 4374TIP3    H234686   0.183   3.560   7.958
 4375TIP3   OH234687   4.513   1.019   6.620
 4375TIP3    H134688   4.420   0.997   6.619
 4375TIP3    H234689   4.516   1.111   6.592
 4376TIP3   OH234690   1.970   3.510   0.274
 4376TIP3    H134691   1.883   3.469   0.272
 4376TIP3    H234692   2.028   3.442   0.306
 4377TIP3   OH234693   3.805   2.281   0.648
 4377TIP3    H134694   3.857   2.361   0.656
 4377TIP3    H234695   3.720   2.304   0.686
 4378TIP3   OH234696   4.596   4.980   0.681
 4378TIP3    H134697   4.520   4.958   0.735
 4378TIP3    H234698   4.668   4.987   0.744
 4379TIP3   OH234699   0.945   3.812   2.266
 4379TIP3    H134700   0.952   3.719   2.284
 4379TIP3    H234701   0.873   3.819   2.204
 4380TIP3   OH234702   1.395   3.392   0.275
 4380TIP3    H134703   1.440   3.475   0.288
 4380TIP3    H234704   1.343   3.380   0.354
 4381TIP3   OH234705   4.010   4.971   8.226
 4381TIP3    H134706   4.088   4.994   8.175
 4381TIP3    H234707   3.958   5.052   8.227
 4382TIP3   OH234708   2.737   1.994   7.727
 4382TIP3    H134709   2.821   1.998   7.681
 4382TIP3    H234710   2.701   2.082   7.718
 4383TIP3   OH234711   2.920   3.321   0.898
 4383TIP3    H134712   2.950   3.341   0.987
 4383TIP3    H234713   2.830   3.291   0.910
 4384TIP3   OH234714   3.580   6.453   0.190
 4384TIP3    H134715   3.545   6.398   0.119
 4384TIP3    H234716   3.525   6.432   0.266
 4385TIP3   OH234717   4.496   4.871   6.979
 4385TIP3    H134718   4.412   4.896   7.018
 4385TIP3    H234719   4.557   4.938   7.009
 4386TIP3   OH234720   6.398   6.720   7.772
 4386TIP3    H134721   6.381   6.813   7.763
 4386TIP3    H234722   6.386   6.703   7.866
 4387TIP3   OH234723   3.579   1.901   1.077
 4387TIP3    H134724   3.650   1.880   1.138
 4387TIP3    H234725   3.543   1.816   1.051
 4388TIP3   OH234726   5.061   1.805   0.352
 4388TIP3    H134727   5.110   1.810   0.270
 4388TIP3    H234728   5.018   1.891   0.359
 4389TIP3   OH234729   6.860   0.635   0.358
 4389TIP3    H134730   6.889   0.706   0.301
 4389TIP3    H234731   6.774   0.609   0.324
 4390TIP3   OH234732   1.069   4.788   2.186
 4390TIP3    H134733   1.129   4.830   2.248
 4390TIP3    H234734   1.085   4.832   2.103
 4391TIP3   OH234735   1.470   2.290   7.201
 4391TIP3    H134736   1.531   2.352   7.162
 4391TIP3    H234737   1.446   2.232   7.129
 4392TIP3   OH234738   0.389   4.248   1.126
 4392TIP3    H134739   0.455   4.178   1.121
 4392TIP3    H234740   0.380   4.278   1.036
 4393TIP3   OH234741   6.574   1.344   6.654
 4393TIP3    H134742   6.515   1.408   6.613
 4393TIP3    H234743   6.596   1.382   6.738
 4394TIP3   OH234744   5.052   1.423   7.838
 4394TIP3    H134745   5.111   1.456   7.906
 4394TIP3    H234746   5.070   1.478   7.762
 4395TIP3   OH234747   4.552   1.525   0.020
 4395TIP3    H134748   4.617   1.461  -0.008
 4395TIP3    H234749   4.469   1.476   0.020
 4396TIP3   OH234750   3.819   2.093   8.216
 4396TIP3    H134751   3.791   2.120   8.128
 4396TIP3    H234752   3.911   2.119   8.221
 4397TIP3   OH234753   0.707   1.068   0.077
 4397TIP3    H134754   0.613   1.077   0.089
 4397TIP3    H234755   0.724   1.108  -0.009
 4398TIP3   OH234756   1.637   2.960   7.960
 4398TIP3    H134757   1.678   3.001   7.883
 4398TIP3    H234758   1.705   2.902   7.994
 4399TIP3   OH234759   3.642   3.090   0.774
 4399TIP3    H134760   3.659   3.122   0.863
 4399TIP3    H234761   3.708   3.133   0.720
 4400TIP3   OH234762   0.990   3.767   1.987
 4400TIP3    H134763   0.899   3.788   1.967
 4400TIP3    H234764   1.036   3.850   1.975
 4401TIP3   OH234765   6.653   3.578   7.589
 4401TIP3    H134766   6.641   3.608   7.499
 4401TIP3    H234767   6.568   3.540   7.613
 4402TIP3   OH234768   5.205   1.505   0.465
 4402TIP3    H134769   5.112   1.486   0.458
 4402TIP3    H234770   5.228   1.543   0.381
 4403TIP3   OH234771   2.436   6.004   0.446
 4403TIP3    H134772   2.427   6.097   0.424
 4403TIP3    H234773   2.442   6.002   0.541
 4404TIP3   OH234774   6.819   0.930   0.288
 4404TIP3    H134775   6.875   0.877   0.231
 4404TIP3    H234776   6.770   0.986   0.228
 4405TIP3   OH234777   4.788   1.491   7.655
 4405TIP3    H134778   4.817   1.402   7.634
 4405TIP3    H234779   4.867   1.535   7.683
 4406TIP3   OH234780   4.385   3.300   7.157
 4406TIP3    H134781   4.362   3.341   7.073
 4406TIP3    H234782   4.409   3.210   7.134
 4407TIP3   OH234783   1.428   2.601   8.071
 4407TIP3    H134784   1.423   2.531   8.006
 4407TIP3    H234785   1.425   2.682   8.020
 4408TIP3   OH234786   1.452   3.118   0.216
 4408TIP3    H134787   1.362   3.101   0.187
 4408TIP3    H234788   1.448   3.204   0.256
 4409TIP3   OH234789   1.731   5.309   7.957
 4409TIP3    H134790   1.767   5.398   7.960
 4409TIP3    H234791   1.808   5.252   7.953
 4410TIP3   OH234792   1.556   0.058   6.522
 4410TIP3    H134793   1.503  -0.008   6.479
 4410TIP3    H234794   1.590   0.015   6.600
 4411TIP3   OH234795   0.190   3.251   7.226
 4411TIP3    H134796   0.199   3.181   7.291
 4411TIP3    H234797   0.275   3.296   7.228
 4412TIP3   OH234798   0.059   1.945   0.296
 4412TIP3    H134799  -0.012   1.937   0.232
 4412TIP3    H234800   0.066   1.858   0.334
 4413TIP3   OH234801   0.970   1.817   0.756
 4413TIP3    H134802   0.874   1.808   0.761
 4413TIP3    H234803   1.002   1.758   0.824
 4414TIP3   OH234804   1.976   4.250   7.085
 4414TIP3    H134805   1.981   4.225   6.992
 4414TIP3    H234806   1.884   4.237   7.108
 4415TIP3   OH234807   1.150   6.638   2.129
 4415TIP3    H134808   1.174   6.719   2.084
 4415TIP3    H234809   1.213   6.630   2.200
 4416TIP3   OH234810   3.484   4.298   0.610
 4416TIP3    H134811   3.492   4.243   0.688
 4416TIP3    H234812   3.438   4.244   0.546
 4417TIP3   OH234813   3.085   3.552   7.078
 4417TIP3    H134814   3.032   3.523   7.004
 4417TIP3    H234815   3.131   3.629   7.044
 4418TIP3   OH234816   2.073   3.138   1.561
 4418TIP3    H134817   2.018   3.136   1.482
 4418TIP3    H234818   2.139   3.205   1.543
 4419TIP3   OH234819   3.064   6.264   0.851
 4419TIP3    H134820   3.159   6.277   0.844
 4419TIP3    H234821   3.054   6.179   0.895
 4420TIP3   OH234822   1.466   5.985   0.747
 4420TIP3    H134823   1.392   5.927   0.726
 4420TIP3    H234824   1.519   5.936   0.809
 4421TIP3   OH234825   2.849   3.173   6.742
 4421TIP3    H134826   2.934   3.148   6.780
 4421TIP3    H234827   2.848   3.269   6.747
 4422TIP3   OH234828   5.963   1.522   0.802
 4422TIP3    H134829   5.889   1.472   0.837
 4422TIP3    H234830   6.005   1.463   0.739
 4423TIP3   OH234831   6.516   0.321   7.960
 4423TIP3    H134832   6.601   0.356   7.933
 4423TIP3    H234833   6.521   0.317   8.056
 4424TIP3   OH234834   1.245   5.876   2.416
 4424TIP3    H134835   1.213   5.884   2.327
 4424TIP3    H234836   1.303   5.799   2.414
 4425TIP3   OH234837   5.272   6.141   1.792
 4425TIP3    H134838   5.282   6.190   1.711
 4425TIP3    H234839   5.321   6.060   1.777
 4426TIP3   OH234840   6.281   2.048   6.908
 4426TIP3    H134841   6.297   2.050   7.002
 4426TIP3    H234842   6.216   1.978   6.896
 4427TIP3   OH234843   4.215   3.989   0.326
 4427TIP3    H134844   4.275   4.036   0.270
 4427TIP3    H234845   4.212   3.900   0.289
 4428TIP3   OH234846   0.493   3.431   2.177
 4428TIP3    H134847   0.468   3.402   2.265
 4428TIP3    H234848   0.415   3.475   2.143
 4429TIP3   OH234849   6.148   3.285   0.626
 4429TIP3    H134850   6.154   3.282   0.531
 4429TIP3    H234851   6.234   3.255   0.656
 4430TIP3   OH234852   5.564   3.576   0.720
 4430TIP3    H134853   5.633   3.580   0.786
 4430TIP3    H234854   5.610   3.582   0.636
 4431TIP3   OH234855   6.525   2.085   7.937
 4431TIP3    H134856   6.451   2.063   7.880
 4431TIP3    H234857   6.582   2.008   7.932
 4432TIP3   OH234858   2.321   2.904   8.183
 4432TIP3    H134859   2.272   2.836   8.138
 4432TIP3    H234860   2.279   2.986   8.156
 4433TIP3   OH234861   5.749   5.039   1.871
 4433TIP3    H134862   5.760   5.117   1.926
 4433TIP3    H234863   5.738   4.968   1.934
 4434TIP3   OH234864   4.090   1.780   6.140
 4434TIP3    H134865   4.168   1.749   6.095
 4434TIP3    H234866   4.087   1.874   6.123
 4435TIP3   OH234867   3.508   5.692   1.260
 4435TIP3    H134868   3.540   5.737   1.338
 4435TIP3    H234869   3.586   5.650   1.224
 4436TIP3   OH234870   3.473   1.339   0.733
 4436TIP3    H134871   3.470   1.389   0.652
 4436TIP3    H234872   3.560   1.357   0.769
 4437TIP3   OH234873   3.325   0.773   7.430
 4437TIP3    H134874   3.277   0.718   7.492
 4437TIP3    H234875   3.387   0.714   7.388
 4438TIP3   OH234876   2.693   1.640   7.260
 4438TIP3    H134877   2.641   1.706   7.307
 4438TIP3    H234878   2.767   1.622   7.318
 4439TIP3   OH234879   3.404   0.454   8.189
 4439TIP3    H134880   3.435   0.476   8.101
 4439TIP3    H234881   3.351   0.375   8.177
 4440TIP3   OH234882   2.043   3.378   7.858
 4440TIP3    H134883   2.091   3.410   7.781
 4440TIP3    H234884   1.951   3.382   7.833
 4441TIP3   OH234885   1.068   5.665   6.865
 4441TIP3    H134886   1.087   5.755   6.837
 4441TIP3    H234887   0.988   5.642   6.817
 4442TIP3   OH234888   5.468   1.588   6.661
 4442TIP3    H134889   5.439   1.626   6.743
 4442TIP3    H234890   5.511   1.660   6.615
 4443TIP3   OH234891   5.532   1.628   7.245
 4443TIP3    H134892   5.478   1.612   7.167
 4443TIP3    H234893   5.619   1.647   7.209
 4444TIP3   OH234894   5.412   1.218   1.332
 4444TIP3    H134895   5.444   1.277   1.265
 4444TIP3    H234896   5.486   1.204   1.390
 4445TIP3   OH234897   1.759   3.105   1.489
 4445TIP3    H134898   1.684   3.156   1.520
 4445TIP3    H234899   1.820   3.171   1.456
 4446TIP3   OH234900   2.609   6.330   6.233
 4446TIP3    H134901   2.648   6.389   6.169
 4446TIP3    H234902   2.683   6.293   6.280
 4447TIP3   OH234903   0.450   6.070   6.944
 4447TIP3    H134904   0.508   6.113   7.007
 4447TIP3    H234905   0.445   5.979   6.975
 4448TIP3   OH234906   4.972   6.387   8.322
 4448TIP3    H134907   5.063   6.390   8.294
 4448TIP3    H234908   4.975   6.390   8.417
 4449TIP3   OH234909   4.747   5.369   0.054
 4449TIP3    H134910   4.789   5.455   0.059
 4449TIP3    H234911   4.816   5.311   0.022
 4450TIP3   OH234912   2.040   3.100   0.076
 4450TIP3    H134913   2.088   3.180   0.051
 4450TIP3    H234914   2.070   3.081   0.165
 4451TIP3   OH234915   0.226   1.700   7.700
 4451TIP3    H134916   0.163   1.632   7.723
 4451TIP3    H234917   0.220   1.707   7.605
 4452TIP3   OH234918   5.165   2.301   0.678
 4452TIP3    H134919   5.132   2.246   0.607
 4452TIP3    H234920   5.245   2.257   0.707
 4453TIP3   OH234921   4.680   5.292   0.383
 4453TIP3    H134922   4.770   5.320   0.401
 4453TIP3    H234923   4.672   5.295   0.288
 4454TIP3   OH234924   4.528   6.242   1.653
 4454TIP3    H134925   4.451   6.300   1.653
 4454TIP3    H234926   4.531   6.206   1.564
 4455TIP3   OH234927   1.193   6.118   7.320
 4455TIP3    H134928   1.193   6.146   7.412
 4455TIP3    H234929   1.285   6.115   7.296
 4456TIP3   OH234930   6.089   5.754   7.259
 4456TIP3    H134931   6.157   5.766   7.193
 4456TIP3    H234932   6.029   5.828   7.245
 4457TIP3   OH234933   5.351   6.911   7.312
 4457TIP3    H134934   5.410   6.913   7.237
 4457TIP3    H234935   5.269   6.949   7.279
 4458TIP3   OH234936   2.088   6.820   0.901
 4458TIP3    H134937   2.132   6.761   0.962
 4458TIP3    H234938   2.033   6.876   0.956
 4459TIP3   OH234939   0.472   6.159   0.942
 4459TIP3    H134940   0.514   6.092   0.888
 4459TIP3    H234941   0.450   6.114   1.024
 4460TIP3   OH234942   3.838   4.992   2.186
 4460TIP3    H134943   3.792   5.072   2.164
 4460TIP3    H234944   3.916   5.021   2.234
 4461TIP3   OH234945   1.126   3.285   0.802
 4461TIP3    H134946   1.220   3.302   0.811
 4461TIP3    H234947   1.092   3.290   0.891
 4462TIP3   OH234948   1.776   6.454   0.140
 4462TIP3    H134949   1.855   6.475   0.191
 4462TIP3    H234950   1.704   6.464   0.202
 4463TIP3   OH234951   2.857   0.239   7.153
 4463TIP3    H134952   2.875   0.256   7.060
 4463TIP3    H234953   2.884   0.319   7.198
 4464TIP3   OH234954   2.539   4.949   6.113
 4464TIP3    H134955   2.569   4.907   6.193
 4464TIP3    H234956   2.489   5.026   6.143
 4465TIP3   OH234957   5.320   1.767   1.652
 4465TIP3    H134958   5.267   1.697   1.690
 4465TIP3    H234959   5.259   1.839   1.638
 4466TIP3   OH234960   6.556   4.278   1.293
 4466TIP3    H134961   6.553   4.297   1.386
 4466TIP3    H234962   6.521   4.189   1.285
 4467TIP3   OH234963   2.791   1.958   7.296
 4467TIP3    H134964   2.847   1.952   7.374
 4467TIP3    H234965   2.843   1.918   7.227
 4468TIP3   OH234966   1.837   4.295   1.445
 4468TIP3    H134967   1.870   4.252   1.524
 4468TIP3    H234968   1.861   4.237   1.373
 4469TIP3   OH234969   5.070   4.894   1.127
 4469TIP3    H134970   5.039   4.947   1.200
 4469TIP3    H234971   5.009   4.821   1.122
 4470TIP3   OH234972   3.147   1.836   1.233
 4470TIP3    H134973   3.214   1.848   1.301
 4470TIP3    H234974   3.077   1.789   1.278
 4471TIP3   OH234975   4.060   6.563   0.573
 4471TIP3    H134976   4.049   6.586   0.665
 4471TIP3    H234977   4.121   6.629   0.539
 4472TIP3   OH234978   4.695   4.423   7.668
 4472TIP3    H134979   4.661   4.479   7.598
 4472TIP3    H234980   4.750   4.481   7.721
 4473TIP3   OH234981   5.656   5.574   6.720
 4473TIP3    H134982   5.597   5.574   6.645
 4473TIP3    H234983   5.615   5.633   6.783
 4474TIP3   OH234984   4.925   0.890   1.638
 4474TIP3    H134985   4.984   0.958   1.607
 4474TIP3    H234986   4.982   0.815   1.659
 4475TIP3   OH234987   6.588   6.906   0.313
 4475TIP3    H134988   6.644   6.974   0.351
 4475TIP3    H234989   6.646   6.855   0.257
 4476TIP3   OH234990   3.691   3.703   1.662
 4476TIP3    H134991   3.722   3.750   1.585
 4476TIP3    H234992   3.621   3.758   1.697
 4477TIP3   OH234993   0.232   4.536   0.235
 4477TIP3    H134994   0.201   4.533   0.145
 4477TIP3    H234995   0.326   4.522   0.229
 4478TIP3   OH234996   5.237   6.196   8.276
 4478TIP3    H134997   5.226   6.263   8.344
 4478TIP3    H234998   5.298   6.236   8.214
 4479TIP3   OH234999   5.793   1.636   7.441
 4479TIP3    H135000   5.826   1.564   7.495
 4479TIP3    H235001   5.773   1.596   7.357
 4480TIP3   OH235002   5.543   5.547   0.783
 4480TIP3    H135003   5.612   5.520   0.844
 4480TIP3    H235004   5.583   5.614   0.728
 4481TIP3   OH235005   6.526   6.702   1.699
 4481TIP3    H135006   6.580   6.691   1.621
 4481TIP3    H235007   6.511   6.797   1.704
 4482TIP3   OH235008   1.332   3.563   6.304
 4482TIP3    H135009   1.323   3.473   6.271
 4482TIP3    H235010   1.334   3.617   6.225
 4483TIP3   OH235011   1.496   5.786   6.870
 4483TIP3    H135012   1.512   5.879   6.852
 4483TIP3    H235013   1.416   5.786   6.923
 4484TIP3   OH235014   0.952   1.439   7.476
 4484TIP3    H135015   0.875   1.395   7.512
 4484TIP3    H235016   0.940   1.531   7.499
 4485TIP3   OH235017   6.130   0.959   2.236
 4485TIP3    H135018   6.119   0.887   2.174
 4485TIP3    H235019   6.218   0.948   2.271
 4486TIP3   OH235020   3.875   2.590   6.919
 4486TIP3    H135021   3.971   2.589   6.913
 4486TIP3    H235022   3.846   2.584   6.828
 4487TIP3   OH235023   3.287   5.035   7.321
 4487TIP3    H135024   3.213   4.981   7.297
 4487TIP3    H235025   3.353   5.017   7.255
 4488TIP3   OH235026   5.584   1.752   7.566
 4488TIP3    H135027   5.549   1.804   7.493
 4488TIP3    H235028   5.653   1.698   7.526
 4489TIP3   OH235029   4.278   5.611   0.999
 4489TIP3    H135030   4.344   5.605   0.929
 4489TIP3    H235031   4.312   5.554   1.069
 4490TIP3   OH235032   6.798   2.900   1.449
 4490TIP3    H135033   6.754   2.984   1.434
 4490TIP3    H235034   6.824   2.870   1.362
 4491TIP3   OH235035   6.520   6.024   7.042
 4491TIP3    H135036   6.519   5.930   7.028
 4491TIP3    H235037   6.496   6.061   6.957
 4492TIP3   OH235038   1.372   2.467   0.091
 4492TIP3    H135039   1.447   2.509   0.134
 4492TIP3    H235040   1.307   2.537   0.083
 4493TIP3   OH235041   2.913   3.297   0.237
 4493TIP3    H135042   2.875   3.359   0.299
 4493TIP3    H235043   3.001   3.329   0.220
 4494TIP3   OH235044   1.668   4.446   1.761
 4494TIP3    H135045   1.654   4.381   1.692
 4494TIP3    H235046   1.757   4.429   1.792
 4495TIP3   OH235047   2.154   2.209   8.293
 4495TIP3    H135048   2.184   2.136   8.238
 4495TIP3    H235049   2.113   2.167   8.368
 4496TIP3   OH235050   0.628   3.095   0.208
 4496TIP3    H135051   0.631   3.167   0.270
 4496TIP3    H235052   0.545   3.051   0.226
 4497TIP3   OH235053   1.109   6.784   7.627
 4497TIP3    H135054   1.020   6.748   7.621
 4497TIP3    H235055   1.097   6.878   7.630
 4498TIP3   OH235056   5.474   4.315   8.074
 4498TIP3    H135057   5.442   4.404   8.058
 4498TIP3    H235058   5.415   4.259   8.024
 4499TIP3   OH235059   5.738   4.329   8.047
 4499TIP3    H135060   5.643   4.324   8.052
 4499TIP3    H235061   5.760   4.415   8.083
 4500TIP3   OH235062   3.841   6.917   1.407
 4500TIP3    H135063   3.786   6.919   1.329
 4500TIP3    H235064   3.795   6.973   1.470
 4501TIP3   OH235065   4.517   3.982   1.238
 4501TIP3    H135066   4.510   4.014   1.148
 4501TIP3    H235067   4.525   3.887   1.230
 4502TIP3   OH235068   3.051   1.201   1.032
 4502TIP3    H135069   3.038   1.108   1.053
 4502TIP3    H235070   3.145   1.209   1.018
 4503TIP3   OH235071   3.873   4.524   2.140
 4503TIP3    H135072   3.930   4.516   2.217
 4503TIP3    H235073   3.917   4.473   2.072
 4504TIP3   OH235074   3.588   1.129   2.003
 4504TIP3    H135075   3.574   1.038   2.026
 4504TIP3    H235076   3.676   1.132   1.966
 4505TIP3   OH235077   1.161   5.183   6.063
 4505TIP3    H135078   1.231   5.120   6.079
 4505TIP3    H235079   1.204   5.257   6.020
 4506TIP3   OH235080   4.799   0.826   1.954
 4506TIP3    H135081   4.814   0.829   2.048
 4506TIP3    H235082   4.830   0.739   1.928
 4507TIP3   OH235083   5.467   6.723   7.812
 4507TIP3    H135084   5.561   6.714   7.792
 4507TIP3    H235085   5.424   6.686   7.735
 4508TIP3   OH235086   4.124   6.597   1.703
 4508TIP3    H135087   4.088   6.619   1.789
 4508TIP3    H235088   4.063   6.636   1.641
 4509TIP3   OH235089   0.441   6.290   0.329
 4509TIP3    H135090   0.477   6.378   0.320
 4509TIP3    H235091   0.349   6.303   0.349
 4510TIP3   OH235092   3.945   3.063   1.267
 4510TIP3    H135093   3.862   3.033   1.302
 4510TIP3    H235094   3.922   3.130   1.202
 4511TIP3   OH235095   6.793   0.261   7.754
 4511TIP3    H135096   6.875   0.244   7.707
 4511TIP3    H235097   6.725   0.250   7.687
 4512TIP3   OH235098   0.881   1.227   0.594
 4512TIP3    H135099   0.938   1.152   0.612
 4512TIP3    H235100   0.809   1.219   0.656
 4513TIP3   OH235101   5.328   3.365   8.364
 4513TIP3    H135102   5.362   3.453   8.352
 4513TIP3    H235103   5.261   3.374   8.431
 4514TIP3   OH235104   5.199   1.071   0.559
 4514TIP3    H135105   5.249   1.153   0.564
 4514TIP3    H235106   5.153   1.077   0.475
 4515TIP3   OH235107   3.921   5.073   0.600
 4515TIP3    H135108   4.008   5.092   0.566
 4515TIP3    H235109   3.873   5.156   0.593
 4516TIP3   OH235110   2.042   4.648   0.203
 4516TIP3    H135111   2.026   4.621   0.293
 4516TIP3    H235112   1.955   4.650   0.162
 4517TIP3   OH235113   1.925   4.528   8.193
 4517TIP3    H135114   1.903   4.568   8.109
 4517TIP3    H235115   1.889   4.439   8.187
 4518TIP3   OH235116   5.898   1.637   8.398
 4518TIP3    H135117   5.921   1.627   8.306
 4518TIP3    H235118   5.826   1.700   8.399
 4519TIP3   OH235119   6.032   6.668   0.920
 4519TIP3    H135120   6.032   6.582   0.878
 4519TIP3    H235121   6.109   6.667   0.977
 4520TIP3   OH235122   2.787   0.349   8.347
 4520TIP3    H135123   2.767   0.443   8.342
 4520TIP3    H235124   2.882   0.345   8.344
 4521TIP3   OH235125   1.443   1.677   7.646
 4521TIP3    H135126   1.512   1.650   7.707
 4521TIP3    H235127   1.364   1.682   7.700
 4522TIP3   OH235128   4.495   6.153   0.481
 4522TIP3    H135129   4.556   6.188   0.545
 4522TIP3    H235130   4.408   6.168   0.519
 4523TIP3   OH235131   1.221   0.937   0.194
 4523TIP3    H135132   1.227   0.928   0.289
 4523TIP3    H235133   1.127   0.942   0.176
 4524TIP3   OH235134   3.654   5.055   7.309
 4524TIP3    H135135   3.625   5.097   7.390
 4524TIP3    H235136   3.575   5.050   7.255
 4525TIP3   OH235137   0.532   2.815   1.021
 4525TIP3    H135138   0.462   2.780   1.077
 4525TIP3    H235139   0.610   2.766   1.046
 4526TIP3   OH235140   2.085   0.204   7.314
 4526TIP3    H135141   2.094   0.278   7.375
 4526TIP3    H235142   2.039   0.240   7.239
 4527TIP3   OH235143   0.946   6.627   1.380
 4527TIP3    H135144   0.965   6.663   1.294
 4527TIP3    H235145   1.030   6.633   1.428
 4528TIP3   OH235146   0.389   6.790   7.248
 4528TIP3    H135147   0.448   6.716   7.231
 4528TIP3    H235148   0.443   6.868   7.232
 4529TIP3   OH235149   5.475   1.327   6.151
 4529TIP3    H135150   5.559   1.373   6.157
 4529TIP3    H235151   5.490   1.259   6.085
 4530TIP3   OH235152   5.682   6.685   2.090
 4530TIP3    H135153   5.631   6.625   2.145
 4530TIP3    H235154   5.632   6.692   2.009
 4531TIP3   OH235155   6.793   6.973   6.426
 4531TIP3    H135156   6.798   6.878   6.417
 4531TIP3    H235157   6.744   7.002   6.349
 4532TIP3   OH235158   5.374   2.484   1.641
 4532TIP3    H135159   5.451   2.495   1.696
 4532TIP3    H235160   5.338   2.399   1.667
 4533TIP3   OH235161   2.004   3.869   0.826
 4533TIP3    H135162   2.060   3.942   0.801
 4533TIP3    H235163   2.049   3.792   0.792
 4534TIP3   OH235164   6.224   3.548   0.717
 4534TIP3    H135165   6.219   3.456   0.690
 4534TIP3    H235166   6.243   3.545   0.811
 4535TIP3   OH235167   3.155   3.638   8.398
 4535TIP3    H135168   3.062   3.629   8.376
 4535TIP3    H235169   3.191   3.694   8.330
 4536TIP3   OH235170   6.813   1.717   7.204
 4536TIP3    H135171   6.855   1.776   7.141
 4536TIP3    H235172   6.759   1.774   7.258
 4537TIP3   OH235173   5.729   2.381   1.532
 4537TIP3    H135174   5.788   2.412   1.600
 4537TIP3    H235175   5.776   2.395   1.450
 4538TIP3   OH235176   1.311   1.769   1.281
 4538TIP3    H135177   1.329   1.857   1.248
 4538TIP3    H235178   1.216   1.759   1.272
 4539TIP3   OH235179   5.827   2.463   7.148
 4539TIP3    H135180   5.901   2.415   7.110
 4539TIP3    H235181   5.824   2.545   7.099
 4540TIP3   OH235182   4.340   6.406   0.705
 4540TIP3    H135183   4.305   6.323   0.737
 4540TIP3    H235184   4.426   6.413   0.746
 4541TIP3   OH235185   4.946   4.344   8.073
 4541TIP3    H135186   5.004   4.281   8.116
 4541TIP3    H235187   4.874   4.290   8.038
 4542TIP3   OH235188   1.204   6.360   8.162
 4542TIP3    H135189   1.220   6.309   8.242
 4542TIP3    H235190   1.291   6.383   8.131
 4543TIP3   OH235191   6.416   3.835   1.926
 4543TIP3    H135192   6.495   3.868   1.884
 4543TIP3    H235193   6.440   3.822   2.018
 4544TIP3   OH235194   6.559   3.202   1.971
 4544TIP3    H135195   6.612   3.129   2.004
 4544TIP3    H235196   6.583   3.276   2.027
 4545TIP3   OH235197   0.108   2.144   0.599
 4545TIP3    H135198   0.091   2.191   0.681
 4545TIP3    H235199   0.045   2.181   0.537
 4546TIP3   OH235200   0.154   3.628   5.854
 4546TIP3    H135201   0.194   3.709   5.885
 4546TIP3    H235202   0.223   3.562   5.864
 4547TIP3   OH235203   4.481   0.814   0.342
 4547TIP3    H135204   4.525   0.764   0.411
 4547TIP3    H235205   4.439   0.748   0.287
 4548TIP3   OH235206   1.656   6.034   8.321
 4548TIP3    H135207   1.683   5.993   8.403
 4548TIP3    H235208   1.730   6.020   8.262
 4549TIP3   OH235209   2.377   1.649   0.203
 4549TIP3    H135210   2.469   1.676   0.206
 4549TIP3    H235211   2.374   1.566   0.250
 4550TIP3   OH235212   5.892   1.402   7.124
 4550TIP3    H135213   5.891   1.320   7.076
 4550TIP3    H235214   5.815   1.449   7.094
 4551TIP3   OH235215   6.936   4.275   6.210
 4551TIP3    H135216   7.008   4.212   6.214
 4551TIP3    H235217   6.866   4.227   6.164
 4552TIP3   OH235218   0.071   1.147   0.311
 4552TIP3    H135219   0.060   1.136   0.217
 4552TIP3    H235220   0.132   1.221   0.320
 4553TIP3   OH235221   2.513   4.188   1.330
 4553TIP3    H135222   2.553   4.104   1.349
 4553TIP3    H235223   2.538   4.244   1.404
 4554TIP3   OH235224   2.319   0.013   7.482
 4554TIP3    H135225   2.377  -0.011   7.410
 4554TIP3    H235226   2.247   0.061   7.441
 4555TIP3   OH235227   5.647   3.497   8.034
 4555TIP3    H135228   5.691   3.445   7.966
 4555TIP3    H235229   5.621   3.577   7.989
 4556TIP3   OH235230   6.395   1.998   6.293
 4556TIP3    H135231   6.328   1.930   6.300
 4556TIP3    H235232   6.478   1.951   6.299
 4557TIP3   OH235233   4.487   6.484   1.291
 4557TIP3    H135234   4.498   6.402   1.340
 4557TIP3    H235235   4.509   6.553   1.354
 4558TIP3   OH235236   3.175   0.086   1.568
 4558TIP3    H135237   3.225   0.035   1.632
 4558TIP3    H235238   3.091   0.103   1.612
 4559TIP3   OH235239   2.795   3.181   7.141
 4559TIP3    H135240   2.714   3.208   7.098
 4559TIP3    H235241   2.863   3.200   7.076
 4560TIP3   OH235242   0.560   6.544   0.357
 4560TIP3    H135243   0.625   6.602   0.398
 4560TIP3    H235244   0.492   6.604   0.326
 4561TIP3   OH235245   5.869   4.857   0.942
 4561TIP3    H135246   5.864   4.940   0.990
 4561TIP3    H235247   5.927   4.802   0.995
 4562TIP3   OH235248   5.130   1.914   7.617
 4562TIP3    H135249   5.147   2.007   7.610
 4562TIP3    H235250   5.097   1.889   7.531
 4563TIP3   OH235251   6.174   0.570   0.169
 4563TIP3    H135252   6.155   0.495   0.226
 4563TIP3    H235253   6.088   0.602   0.142
 4564TIP3   OH235254   2.672   5.151   6.842
 4564TIP3    H135255   2.726   5.082   6.804
 4564TIP3    H235256   2.722   5.231   6.826
 4565TIP3   OH235257   1.199   6.461   6.889
 4565TIP3    H135258   1.258   6.525   6.848
 4565TIP3    H235259   1.130   6.515   6.927
 4566TIP3   OH235260   3.414   0.909   6.651
 4566TIP3    H135261   3.387   0.971   6.719
 4566TIP3    H235262   3.401   0.957   6.569
 4567TIP3   OH235263   2.193   2.711   2.221
 4567TIP3    H135264   2.132   2.773   2.261
 4567TIP3    H235265   2.272   2.762   2.203
 4568TIP3   OH235266   6.779   3.137   1.042
 4568TIP3    H135267   6.844   3.164   1.107
 4568TIP3    H235268   6.770   3.214   0.985
 4569TIP3   OH235269   6.779   2.530   8.174
 4569TIP3    H135270   6.766   2.622   8.150
 4569TIP3    H235271   6.696   2.505   8.215
 4570TIP3   OH235272   3.219   2.446   8.067
 4570TIP3    H135273   3.218   2.351   8.055
 4570TIP3    H235274   3.156   2.479   8.004
 4571TIP3   OH235275   3.249   2.026   8.318
 4571TIP3    H135276   3.273   2.050   8.408
 4571TIP3    H235277   3.160   1.991   8.326
 4572TIP3   OH235278   6.172   2.265   0.166
 4572TIP3    H135279   6.183   2.255   0.260
 4572TIP3    H235280   6.220   2.346   0.145
 4573TIP3   OH235281   6.253   1.098   6.509
 4573TIP3    H135282   6.313   1.046   6.454
 4573TIP3    H235283   6.172   1.047   6.510
 4574TIP3   OH235284   0.346   2.919   0.517
 4574TIP3    H135285   0.375   2.974   0.590
 4574TIP3    H235286   0.404   2.942   0.445
 4575TIP3   OH235287   0.022   6.223   1.398
 4575TIP3    H135288   0.013   6.264   1.483
 4575TIP3    H235289  -0.001   6.131   1.412
 4576TIP3   OH235290   0.681   3.272   7.207
 4576TIP3    H135291   0.656   3.190   7.164
 4576TIP3    H235292   0.598   3.315   7.228
 4577TIP3   OH235293   3.010   3.252   6.993
 4577TIP3    H135294   3.083   3.252   7.054
 4577TIP3    H235295   3.030   3.323   6.932
 4578TIP3   OH235296   1.290   1.238   7.325
 4578TIP3    H135297   1.242   1.308   7.281
 4578TIP3    H235298   1.365   1.220   7.268
 4579TIP3   OH235299   2.969   6.632   6.571
 4579TIP3    H135300   2.955   6.620   6.477
 4579TIP3    H235301   3.030   6.563   6.596
 4580TIP3   OH235302   4.599   4.372   0.977
 4580TIP3    H135303   4.684   4.362   1.022
 4580TIP3    H235304   4.553   4.438   1.029
 4581TIP3   OH235305   4.281   1.000   0.800
 4581TIP3    H135306   4.227   0.923   0.779
 4581TIP3    H235307   4.364   0.964   0.831
 4582TIP3   OH235308   2.137   5.061   6.851
 4582TIP3    H135309   2.043   5.059   6.873
 4582TIP3    H235310   2.176   5.116   6.919
 4583TIP3   OH235311   2.516   5.504   8.258
 4583TIP3    H135312   2.439   5.519   8.204
 4583TIP3    H235313   2.483   5.511   8.348
 4584TIP3   OH235314   1.468   1.332   1.572
 4584TIP3    H135315   1.422   1.392   1.515
 4584TIP3    H235316   1.409   1.320   1.647
 4585TIP3   OH235317   2.744   5.781   7.053
 4585TIP3    H135318   2.687   5.720   7.007
 4585TIP3    H235319   2.825   5.781   7.003
 4586TIP3   OH235320   0.656   5.690   1.174
 4586TIP3    H135321   0.672   5.749   1.248
 4586TIP3    H235322   0.724   5.623   1.182
 4587TIP3   OH235323   5.008   3.886   8.222
 4587TIP3    H135324   5.054   3.856   8.143
 4587TIP3    H235325   4.962   3.809   8.254
 4588TIP3   OH235326   1.898   0.166   0.200
 4588TIP3    H135327   1.912   0.176   0.106
 4588TIP3    H235328   1.984   0.182   0.239
 4589TIP3   OH235329   1.515   4.026   0.386
 4589TIP3    H135330   1.421   4.032   0.405
 4589TIP3    H235331   1.530   4.091   0.318
 4590TIP3   OH235332   5.533   1.254   7.984
 4590TIP3    H135333   5.485   1.278   7.904
 4590TIP3    H235334   5.613   1.213   7.952
 4591TIP3   OH235335   1.299   1.490   6.794
 4591TIP3    H135336   1.356   1.424   6.756
 4591TIP3    H235337   1.327   1.572   6.753
 4592TIP3   OH235338   6.553   5.641   8.022
 4592TIP3    H135339   6.577   5.598   8.104
 4592TIP3    H235340   6.492   5.710   8.048
 4593TIP3   OH235341   1.255   1.320   7.636
 4593TIP3    H135342   1.345   1.298   7.662
 4593TIP3    H235343   1.249   1.292   7.545
 4594TIP3   OH235344   6.095   3.271   1.426
 4594TIP3    H135345   6.114   3.228   1.509
 4594TIP3    H235346   6.036   3.211   1.381
 4595TIP3   OH235347   4.381   1.874   0.296
 4595TIP3    H135348   4.368   1.967   0.313
 4595TIP3    H235349   4.312   1.830   0.346
 4596TIP3   OH235350   4.054   0.587   8.374
 4596TIP3    H135351   4.119   0.532   8.329
 4596TIP3    H235352   3.987   0.525   8.403
 4597TIP3   OH235353   0.746   2.724   1.802
 4597TIP3    H135354   0.699   2.641   1.802
 4597TIP3    H235355   0.758   2.745   1.710
 4598TIP3   OH235356   1.513   6.782   0.581
 4598TIP3    H135357   1.558   6.866   0.589
 4598TIP3    H235358   1.528   6.738   0.664
 4599TIP3   OH235359   5.059   5.095   6.166
 4599TIP3    H135360   5.011   5.140   6.096
 4599TIP3    H235361   5.065   5.004   6.135
 4600TIP3   OH235362   2.357   5.787   6.798
 4600TIP3    H135363   2.368   5.795   6.703
 4600TIP3    H235364   2.307   5.865   6.822
 4601TIP3   OH235365   6.353   6.911   1.538
 4601TIP3    H135366   6.382   6.892   1.449
 4601TIP3    H235367   6.314   6.829   1.569
 4602TIP3   OH235368   5.072   3.605   8.331
 4602TIP3    H135369   5.038   3.622   8.418
 4602TIP3    H235370   5.167   3.603   8.342
 4603TIP3   OH235371   5.077   3.795   1.400
 4603TIP3    H135372   5.101   3.702   1.407
 4603TIP3    H235373   5.161   3.841   1.397
 4604TIP3   OH235374   6.139   3.340   0.070
 4604TIP3    H135375   6.220   3.386   0.051
 4604TIP3    H235376   6.075   3.377   0.009
 4605TIP3   OH235377   2.668   6.870   7.606
 4605TIP3    H135378   2.671   6.965   7.595
 4605TIP3    H235379   2.699   6.854   7.694
 4606TIP3   OH235380   1.571   3.303   6.379
 4606TIP3    H135381   1.492   3.274   6.335
 4606TIP3    H235382   1.642   3.253   6.338
 4607TIP3   OH235383   4.045   4.921   7.448
 4607TIP3    H135384   3.991   4.981   7.397
 4607TIP3    H235385   3.983   4.877   7.507
 4608TIP3   OH235386   2.439   1.864   1.075
 4608TIP3    H135387   2.505   1.801   1.104
 4608TIP3    H235388   2.411   1.832   0.990
 4609TIP3   OH235389   6.463   1.593   6.588
 4609TIP3    H135390   6.372   1.619   6.573
 4609TIP3    H235391   6.512   1.675   6.588
 4610TIP3   OH235392   6.964   4.214   0.062
 4610TIP3    H135393   7.025   4.225   0.135
 4610TIP3    H235394   6.902   4.287   0.071
 4611TIP3   OH235395   2.515   2.380   0.667
 4611TIP3    H135396   2.574   2.321   0.619
 4611TIP3    H235397   2.486   2.443   0.601
 4612TIP3   OH235398   5.453   5.187   7.217
 4612TIP3    H135399   5.519   5.230   7.162
 4612TIP3    H235400   5.463   5.227   7.303
 4613TIP3   OH235401   5.859   6.817   1.095
 4613TIP3    H135402   5.791   6.758   1.127
 4613TIP3    H235403   5.921   6.759   1.049
 4614TIP3   OH235404   1.114   2.848   0.827
 4614TIP3    H135405   1.090   2.922   0.882
 4614TIP3    H235406   1.045   2.783   0.843
 4615TIP3   OH235407   0.106   3.378   6.808
 4615TIP3    H135408   0.182   3.427   6.841
 4615TIP3    H235409   0.062   3.345   6.886
 4616TIP3   OH235410   3.018   3.642   2.222
 4616TIP3    H135411   3.088   3.670   2.281
 4616TIP3    H235412   3.063   3.598   2.151
 4617TIP3   OH235413   0.994   2.882   0.014
 4617TIP3    H135414   1.037   2.967   0.009
 4617TIP3    H235415   0.916   2.898   0.068
 4618TIP3   OH235416   5.151   2.164   6.367
 4618TIP3    H135417   5.206   2.182   6.290
 4618TIP3    H235418   5.063   2.156   6.331
 4619TIP3   OH235419   6.295   3.880   7.213
 4619TIP3    H135420   6.323   3.970   7.230
 4619TIP3    H235421   6.248   3.885   7.130
 4620TIP3   OH235422   3.274   3.863   6.749
 4620TIP3    H135423   3.360   3.902   6.766
 4620TIP3    H235424   3.248   3.898   6.664
 4621TIP3   OH235425   4.313   0.072   7.782
 4621TIP3    H135426   4.373   0.090   7.710
 4621TIP3    H235427   4.363   0.093   7.861
 4622TIP3   OH235428   5.287   2.688   6.320
 4622TIP3    H135429   5.305   2.782   6.329
 4622TIP3    H235430   5.279   2.656   6.410
 4623TIP3   OH235431   1.472   4.309   0.630
 4623TIP3    H135432   1.544   4.269   0.677
 4623TIP3    H235433   1.482   4.403   0.645
 4624TIP3   OH235434   6.742   5.045   6.305
 4624TIP3    H135435   6.804   5.117   6.317
 4624TIP3    H235436   6.750   5.021   6.213
 4625TIP3   OH235437   6.158   4.816   7.698
 4625TIP3    H135438   6.069   4.782   7.706
 4625TIP3    H235439   6.204   4.750   7.645
 4626TIP3   OH235440   6.529   2.987   0.353
 4626TIP3    H135441   6.575   2.904   0.348
 4626TIP3    H235442   6.517   3.013   0.261
 4627TIP3   OH235443   3.282   5.011   0.456
 4627TIP3    H135444   3.360   5.062   0.432
 4627TIP3    H235445   3.308   4.963   0.535
 4628TIP3   OH235446   4.521   4.217   0.414
 4628TIP3    H135447   4.438   4.190   0.453
 4628TIP3    H235448   4.573   4.249   0.487
 4629TIP3   OH235449   1.848   4.959   6.540
 4629TIP3    H135450   1.938   4.928   6.527
 4629TIP3    H235451   1.806   4.890   6.591
 4630TIP3   OH235452   3.873   1.353   7.090
 4630TIP3    H135453   3.968   1.347   7.088
 4630TIP3    H235454   3.845   1.279   7.143
 4631TIP3   OH235455   1.414   2.360   0.376
 4631TIP3    H135456   1.461   2.438   0.345
 4631TIP3    H235457   1.322   2.378   0.357
 4632TIP3   OH235458   2.491   4.233   1.605
 4632TIP3    H135459   2.574   4.214   1.648
 4632TIP3    H235460   2.430   4.250   1.677
 4633TIP3   OH235461   3.061   1.679   8.369
 4633TIP3    H135462   2.997   1.631   8.316
 4633TIP3    H235463   3.009   1.743   8.418
 4634TIP3   OH235464   3.641   3.484   7.979
 4634TIP3    H135465   3.686   3.426   8.040
 4634TIP3    H235466   3.631   3.431   7.899
 4635TIP3   OH235467   5.472   5.767   6.584
 4635TIP3    H135468   5.445   5.683   6.549
 4635TIP3    H235469   5.530   5.803   6.517
 4636TIP3   OH235470   4.504   5.232   1.845
 4636TIP3    H135471   4.581   5.283   1.873
 4636TIP3    H235472   4.431   5.274   1.890
 4637TIP3   OH235473   6.141   5.229   0.562
 4637TIP3    H135474   6.185   5.168   0.622
 4637TIP3    H235475   6.190   5.311   0.571
 4638TIP3   OH235476   1.498   0.205   1.698
 4638TIP3    H135477   1.591   0.201   1.675
 4638TIP3    H235478   1.491   0.284   1.753
 4639TIP3   OH235479   0.640   5.939   1.539
 4639TIP3    H135480   0.563   5.950   1.595
 4639TIP3    H235481   0.642   5.846   1.518
 4640TIP3   OH235482   6.221   1.690   8.312
 4640TIP3    H135483   6.141   1.702   8.261
 4640TIP3    H235484   6.212   1.603   8.350
 4641TIP3   OH235485   0.899   2.409   1.887
 4641TIP3    H135486   0.879   2.344   1.955
 4641TIP3    H235487   0.822   2.409   1.830
 4642TIP3   OH235488   2.675   0.759   7.686
 4642TIP3    H135489   2.726   0.840   7.687
 4642TIP3    H235490   2.591   0.783   7.724
 4643TIP3   OH235491   4.557   2.197   6.132
 4643TIP3    H135492   4.503   2.128   6.171
 4643TIP3    H235493   4.517   2.279   6.160
 4644TIP3   OH235494   1.490   3.732   6.666
 4644TIP3    H135495   1.546   3.661   6.635
 4644TIP3    H235496   1.401   3.703   6.646
 4645TIP3   OH235497   4.799   6.172   2.362
 4645TIP3    H135498   4.810   6.160   2.268
 4645TIP3    H235499   4.805   6.084   2.399
 4646TIP3   OH235500   6.110   6.492   6.571
 4646TIP3    H135501   6.081   6.575   6.610
 4646TIP3    H235502   6.105   6.429   6.643
 4647TIP3   OH235503   4.146   6.128   6.640
 4647TIP3    H135504   4.156   6.223   6.641
 4647TIP3    H235505   4.136   6.106   6.547
 4648TIP3   OH235506   4.907   3.215   1.662
 4648TIP3    H135507   4.974   3.147   1.653
 4648TIP3    H235508   4.846   3.180   1.726
 4649TIP3   OH235509   5.910   0.104   8.283
 4649TIP3    H135510   5.987   0.148   8.247
 4649TIP3    H235511   5.910   0.128   8.376
 4650TIP3   OH235512   6.270   4.795   1.360
 4650TIP3    H135513   6.311   4.790   1.447
 4650TIP3    H235514   6.222   4.877   1.362
 4651TIP3   OH235515   5.376   2.771   7.027
 4651TIP3    H135516   5.370   2.866   7.036
 4651TIP3    H235517   5.285   2.742   7.011
 4652TIP3   OH235518   5.444   4.226   7.684
 4652TIP3    H135519   5.450   4.212   7.590
 4652TIP3    H235520   5.494   4.154   7.722
 4653TIP3   OH235521   6.638   0.276   6.774
 4653TIP3    H135522   6.611   0.185   6.786
 4653TIP3    H235523   6.557   0.327   6.785
 4654TIP3   OH235524   5.358   4.149   8.390
 4654TIP3    H135525   5.428   4.099   8.347
 4654TIP3    H235526   5.284   4.144   8.329
 4655TIP3   OH235527   2.155   1.656   0.980
 4655TIP3    H135528   2.218   1.625   1.046
 4655TIP3    H235529   2.183   1.614   0.899
 4656TIP3   OH235530   0.441   3.799   7.810
 4656TIP3    H135531   0.385   3.876   7.816
 4656TIP3    H235532   0.387   3.733   7.766
 4657TIP3   OH235533   5.807   5.208   2.060
 4657TIP3    H135534   5.897   5.240   2.057
 4657TIP3    H235535   5.790   5.192   2.153
 4658TIP3   OH235536   1.940   2.531   7.767
 4658TIP3    H135537   1.920   2.508   7.858
 4658TIP3    H235538   2.005   2.601   7.775
 4659TIP3   OH235539   1.888   2.108   0.825
 4659TIP3    H135540   1.936   2.184   0.858
 4659TIP3    H235541   1.957   2.044   0.805
 4660TIP3   OH235542   5.068   5.807   0.563
 4660TIP3    H135543   5.125   5.867   0.612
 4660TIP3    H235544   5.000   5.863   0.527
 4661TIP3   OH235545   4.568   5.790   6.679
 4661TIP3    H135546   4.553   5.713   6.623
 4661TIP3    H235547   4.482   5.809   6.716
 4662TIP3   OH235548   4.708   1.888   0.371
 4662TIP3    H135549   4.803   1.898   0.369
 4662TIP3    H235550   4.683   1.874   0.279
 4663TIP3   OH235551   4.801   2.214   5.984
 4663TIP3    H135552   4.712   2.205   6.016
 4663TIP3    H235553   4.817   2.308   5.984
 4664TIP3   OH235554   2.820   4.553   0.011
 4664TIP3    H135555   2.742   4.606  -0.005
 4664TIP3    H235556   2.892   4.603  -0.025
 4665TIP3   OH235557   2.259   0.020   2.306
 4665TIP3    H135558   2.325  -0.037   2.266
 4665TIP3    H235559   2.288   0.109   2.284
 4666TIP3   OH235560   3.580   4.538   0.927
 4666TIP3    H135561   3.518   4.599   0.888
 4666TIP3    H235562   3.640   4.517   0.856
 4667TIP3   OH235563   1.212   2.112   0.546
 4667TIP3    H135564   1.247   2.092   0.460
 4667TIP3    H235565   1.283   2.091   0.607
 4668TIP3   OH235566   3.855   1.930   1.381
 4668TIP3    H135567   3.764   1.957   1.396
 4668TIP3    H235568   3.891   1.917   1.469
 4669TIP3   OH235569   3.609   6.938   0.951
 4669TIP3    H135570   3.620   6.886   0.871
 4669TIP3    H235571   3.628   7.028   0.923
 4670TIP3   OH235572   3.098   1.281   6.652
 4670TIP3    H135573   3.023   1.341   6.656
 4670TIP3    H235574   3.175   1.337   6.659
 4671TIP3   OH235575   0.946   0.240   6.848
 4671TIP3    H135576   0.979   0.292   6.776
 4671TIP3    H235577   0.908   0.162   6.807
 4672TIP3   OH235578   0.353   1.899   1.985
 4672TIP3    H135579   0.413   1.837   2.027
 4672TIP3    H235580   0.359   1.978   2.039
 4673TIP3   OH235581   0.593   5.421   1.338
 4673TIP3    H135582   0.589   5.333   1.300
 4673TIP3    H235583   0.687   5.441   1.344
 4674TIP3   OH235584   3.730   6.789   6.351
 4674TIP3    H135585   3.667   6.849   6.312
 4674TIP3    H235586   3.739   6.818   6.442
 4675TIP3   OH235587   2.266   2.058   0.171
 4675TIP3    H135588   2.234   2.061   0.262
 4675TIP3    H235589   2.211   1.992   0.129
 4676TIP3   OH235590   2.684   1.343   8.183
 4676TIP3    H135591   2.644   1.260   8.212
 4676TIP3    H235592   2.705   1.329   8.091
 4677TIP3   OH235593   6.629   6.523   6.340
 4677TIP3    H135594   6.564   6.461   6.372
 4677TIP3    H235595   6.710   6.499   6.384
 4678TIP3   OH235596   6.733   4.953   0.752
 4678TIP3    H135597   6.729   4.975   0.845
 4678TIP3    H235598   6.664   5.007   0.712
 4679TIP3   OH235599   1.816   1.540   7.312
 4679TIP3    H135600   1.753   1.495   7.255
 4679TIP3    H235601   1.790   1.515   7.401
 4680TIP3   OH235602   5.258   6.769   6.913
 4680TIP3    H135603   5.329   6.832   6.900
 4680TIP3    H235604   5.191   6.795   6.851
 4681TIP3   OH235605   4.370   4.418   0.817
 4681TIP3    H135606   4.357   4.511   0.803
 4681TIP3    H235607   4.438   4.413   0.884
 4682TIP3   OH235608   3.247   1.292   1.365
 4682TIP3    H135609   3.236   1.375   1.411
 4682TIP3    H235610   3.331   1.258   1.396
 4683TIP3   OH235611   6.565   4.370   8.090
 4683TIP3    H135612   6.587   4.323   8.170
 4683TIP3    H235613   6.474   4.398   8.103
 4684TIP3   OH235614   0.918   1.997   0.001
 4684TIP3    H135615   0.915   1.920   0.058
 4684TIP3    H235616   0.940   1.962  -0.085
 4685TIP3   OH235617   4.030   2.168   2.253
 4685TIP3    H135618   3.987   2.144   2.171
 4685TIP3    H235619   4.104   2.107   2.260
 4686TIP3   OH235620   1.526   4.558   0.744
 4686TIP3    H135621   1.470   4.635   0.733
 4686TIP3    H235622   1.591   4.584   0.809
 4687TIP3   OH235623   0.573   2.485   1.093
 4687TIP3    H135624   0.578   2.401   1.139
 4687TIP3    H235625   0.491   2.480   1.044
 4688TIP3   OH235626   4.881   6.540   6.991
 4688TIP3    H135627   4.837   6.549   6.907
 4688TIP3    H235628   4.811   6.516   7.052
 4689TIP3   OH235629   5.549   5.525   8.147
 4689TIP3    H135630   5.559   5.479   8.064
 4689TIP3    H235631   5.454   5.530   8.160
 4690TIP3   OH235632   3.236   1.544   5.702
 4690TIP3    H135633   3.210   1.452   5.697
 4690TIP3    H235634   3.281   1.561   5.619
 4691TIP3   OH235635   1.254   3.300   0.513
 4691TIP3    H135636   1.224   3.213   0.486
 4691TIP3    H235637   1.297   3.285   0.598
 4692TIP3   OH235638   5.306   3.634   1.976
 4692TIP3    H135639   5.216   3.614   2.003
 4692TIP3    H235640   5.359   3.612   2.052
 4693TIP3   OH235641   6.519   6.418   2.470
 4693TIP3    H135642   6.438   6.406   2.420
 4693TIP3    H235643   6.582   6.360   2.427
 4694TIP3   OH235644   0.427   1.269   1.653
 4694TIP3    H135645   0.474   1.343   1.615
 4694TIP3    H235646   0.477   1.248   1.732
 4695TIP3   OH235647   1.960   1.565   6.891
 4695TIP3    H135648   2.017   1.561   6.967
 4695TIP3    H235649   1.891   1.627   6.916
 4696TIP3   OH235650   0.934   6.231   0.158
 4696TIP3    H135651   0.913   6.265   0.071
 4696TIP3    H235652   0.938   6.308   0.214
 4697TIP3   OH235653   2.448   5.116   7.912
 4697TIP3    H135654   2.495   5.035   7.892
 4697TIP3    H235655   2.435   5.114   8.006
 4698TIP3   OH235656   6.276   0.192   0.092
 4698TIP3    H135657   6.271   0.265   0.030
 4698TIP3    H235658   6.186   0.179   0.122
 4699TIP3   OH235659   1.604   0.012   0.166
 4699TIP3    H135660   1.602   0.053   0.080
 4699TIP3    H235661   1.691  -0.028   0.171
 4700TIP3   OH235662   3.597   3.168   7.437
 4700TIP3    H135663   3.557   3.177   7.351
 4700TIP3    H235664   3.669   3.232   7.436
 4701TIP3   OH235665   1.901   2.964   6.797
 4701TIP3    H135666   1.944   2.939   6.714
 4701TIP3    H235667   1.934   3.052   6.815
 4702TIP3   OH235668   2.605   3.292   0.137
 4702TIP3    H135669   2.651   3.213   0.108
 4702TIP3    H235670   2.627   3.300   0.229
 4703TIP3   OH235671   4.409   2.387   8.234
 4703TIP3    H135672   4.339   2.391   8.299
 4703TIP3    H235673   4.445   2.299   8.242
 4704TIP3   OH235674   0.435   2.480   6.749
 4704TIP3    H135675   0.479   2.404   6.711
 4704TIP3    H235676   0.427   2.459   6.842
 4705TIP3   OH235677   2.956   2.064   1.172
 4705TIP3    H135678   3.009   2.034   1.246
 4705TIP3    H235679   2.904   2.136   1.207
 4706TIP3   OH235680   1.914   1.220   6.863
 4706TIP3    H135681   1.846   1.263   6.810
 4706TIP3    H235682   1.865   1.174   6.932
 4707TIP3   OH235683   5.654   0.015   6.601
 4707TIP3    H135684   5.642   0.110   6.595
 4707TIP3    H235685   5.636  -0.017   6.513
 4708TIP3   OH235686   0.724   3.068   7.010
 4708TIP3    H135687   0.764   3.154   6.996
 4708TIP3    H235688   0.673   3.052   6.931
 4709TIP3   OH235689   6.477   3.173   0.080
 4709TIP3    H135690   6.432   3.249   0.044
 4709TIP3    H235691   6.557   3.209   0.119
 4710TIP3   OH235692   2.155   3.939   7.507
 4710TIP3    H135693   2.126   3.968   7.421
 4710TIP3    H235694   2.075   3.911   7.552
 4711TIP3   OH235695   6.974   4.495   8.259
 4711TIP3    H135696   7.054   4.443   8.266
 4711TIP3    H235697   6.949   4.487   8.166
 4712TIP3   OH235698   6.673   4.198   7.877
 4712TIP3    H135699   6.748   4.142   7.895
 4712TIP3    H235700   6.641   4.225   7.963
 4713TIP3   OH235701   5.697   2.161   7.380
 4713TIP3    H135702   5.768   2.135   7.322
 4713TIP3    H235703   5.704   2.102   7.455
 4714TIP3   OH235704   1.103   1.422   7.252
 4714TIP3    H135705   1.071   1.342   7.211
 4714TIP3    H235706   1.036   1.444   7.317
 4715TIP3   OH235707   4.938   0.240   6.000
 4715TIP3    H135708   4.867   0.211   6.058
 4715TIP3    H235709   5.004   0.276   6.059
 4716TIP3   OH235710   0.706   6.716   6.582
 4716TIP3    H135711   0.707   6.632   6.536
 4716TIP3    H235712   0.784   6.715   6.637
 4717TIP3   OH235713   6.388   6.478   6.495
 4717TIP3    H135714   6.386   6.572   6.478
 4717TIP3    H235715   6.298   6.449   6.482
 4718TIP3   OH235716   2.062   3.866   1.638
 4718TIP3    H135717   2.097   3.945   1.678
 4718TIP3    H235718   2.000   3.831   1.703
 4719TIP3   OH235719   2.416   6.613   0.538
 4719TIP3    H135720   2.430   6.531   0.585
 4719TIP3    H235721   2.385   6.674   0.605
 4720TIP3   OH235722   3.833   0.544   1.292
 4720TIP3    H135723   3.751   0.588   1.270
 4720TIP3    H235724   3.817   0.503   1.377
 4721TIP3   OH235725   2.572   6.808   1.353
 4721TIP3    H135726   2.645   6.869   1.363
 4721TIP3    H235727   2.512   6.832   1.424
 4722TIP3   OH235728   1.137   2.018   0.187
 4722TIP3    H135729   1.203   1.962   0.145
 4722TIP3    H235730   1.175   2.106   0.184
 4723TIP3   OH235731   2.631   5.723   7.315
 4723TIP3    H135732   2.638   5.693   7.224
 4723TIP3    H235733   2.581   5.655   7.359
 4724TIP3   OH235734   4.308   2.082   8.148
 4724TIP3    H135735   4.313   1.987   8.153
 4724TIP3    H235736   4.287   2.100   8.056
 4725TIP3   OH235737   4.294   1.007   1.346
 4725TIP3    H135738   4.369   0.998   1.403
 4725TIP3    H235739   4.331   1.028   1.260
 4726TIP3   OH235740   1.016   0.527   7.343
 4726TIP3    H135741   0.926   0.558   7.335
 4726TIP3    H235742   1.065   0.603   7.375
 4727TIP3   OH235743   4.248   6.786   0.504
 4727TIP3    H135744   4.213   6.872   0.482
 4727TIP3    H235745   4.329   6.779   0.453
 4728TIP3   OH235746   4.281   1.803   8.227
 4728TIP3    H135747   4.190   1.788   8.200
 4728TIP3    H235748   4.332   1.791   8.147
 4729TIP3   OH235749   3.786   0.441   1.905
 4729TIP3    H135750   3.750   0.357   1.932
 4729TIP3    H235751   3.881   0.432   1.916
 4730TIP3   OH235752   1.594   1.788   1.334
 4730TIP3    H135753   1.607   1.872   1.379
 4730TIP3    H235754   1.499   1.782   1.322
 4731TIP3   OH235755   2.831   6.481   6.046
 4731TIP3    H135756   2.851   6.388   6.055
 4731TIP3    H235757   2.913   6.520   6.016
 4732TIP3   OH235758   5.697   5.663   0.229
 4732TIP3    H135759   5.662   5.579   0.198
 4732TIP3    H235760   5.620   5.710   0.262
 4733TIP3   OH235761   2.559   3.399   2.466
 4733TIP3    H135762   2.637   3.452   2.452
 4733TIP3    H235763   2.591   3.320   2.510
 4734TIP3   OH235764   0.400   6.804   1.672
 4734TIP3    H135765   0.410   6.862   1.748
 4734TIP3    H235766   0.345   6.854   1.611
 4735TIP3   OH235767   3.333   6.548   8.048
 4735TIP3    H135768   3.341   6.457   8.078
 4735TIP3    H235769   3.360   6.600   8.124
 4736TIP3   OH235770   3.731   6.557   1.411
 4736TIP3    H135771   3.739   6.478   1.357
 4736TIP3    H235772   3.816   6.600   1.403
 4737TIP3   OH235773   3.213   0.430   1.215
 4737TIP3    H135774   3.155   0.494   1.257
 4737TIP3    H235775   3.292   0.479   1.193
 4738TIP3   OH235776   4.865   4.221   0.161
 4738TIP3    H135777   4.895   4.185   0.077
 4738TIP3    H235778   4.866   4.316   0.147
 4739TIP3   OH235779   0.184   3.287   1.153
 4739TIP3    H135780   0.261   3.229   1.154
 4739TIP3    H235781   0.171   3.308   1.061
 4740TIP3   OH235782   6.059   2.331   5.863
 4740TIP3    H135783   6.057   2.236   5.873
 4740TIP3    H235784   6.037   2.365   5.949
 4741TIP3   OH235785   4.460   6.894   7.374
 4741TIP3    H135786   4.402   6.902   7.298
 4741TIP3    H235787   4.518   6.821   7.353
 4742TIP3   OH235788   2.746   4.302   1.417
 4742TIP3    H135789   2.699   4.288   1.500
 4742TIP3    H235790   2.823   4.352   1.442
 4743TIP3   OH235791   3.992   4.493   0.788
 4743TIP3    H135792   4.001   4.422   0.725
 4743TIP3    H235793   4.079   4.501   0.828
 4744TIP3   OH235794   3.319   0.214   6.998
 4744TIP3    H135795   3.398   0.172   6.963
 4744TIP3    H235796   3.352   0.289   7.048
 4745TIP3   OH235797   6.051   4.419   0.009
 4745TIP3    H135798   6.015   4.330   0.010
 4745TIP3    H235799   5.995   4.466  -0.053
 4746TIP3   OH235800   3.430   4.976   2.170
 4746TIP3    H135801   3.344   5.018   2.160
 4746TIP3    H235802   3.488   5.046   2.198
 4747TIP3   OH235803   6.343   3.799   6.583
 4747TIP3    H135804   6.248   3.797   6.573
 4747TIP3    H235805   6.362   3.885   6.620
 4748TIP3   OH235806   0.328   0.156   7.536
 4748TIP3    H135807   0.267   0.120   7.601
 4748TIP3    H235808   0.382   0.082   7.510
 4749TIP3   OH235809   2.713   4.155   0.922
 4749TIP3    H135810   2.650   4.188   0.986
 4749TIP3    H235811   2.748   4.076   0.963
 4750TIP3   OH235812   1.988   3.945   0.181
 4750TIP3    H135813   2.026   4.005   0.245
 4750TIP3    H235814   2.044   3.954   0.104
 4751TIP3   OH235815   0.060   4.939   8.095
 4751TIP3    H135816   0.033   5.005   8.031
 4751TIP3    H235817  -0.010   4.940   8.161
 4752TIP3   OH235818   0.604   4.567   6.054
 4752TIP3    H135819   0.677   4.522   6.097
 4752TIP3    H235820   0.603   4.531   5.966
 4753TIP3   OH235821   5.891   4.807   1.262
 4753TIP3    H135822   5.968   4.851   1.299
 4753TIP3    H235823   5.817   4.858   1.294
 4754TIP3   OH235824   3.316   6.131   0.144
 4754TIP3    H135825   3.316   6.139   0.239
 4754TIP3    H235826   3.281   6.214   0.113
 4755TIP3   OH235827   3.985   4.237   0.507
 4755TIP3    H135828   4.054   4.229   0.440
 4755TIP3    H235829   3.918   4.175   0.479
 4756TIP3   OH235830   0.829   3.059   1.562
 4756TIP3    H135831   0.750   3.114   1.569
 4756TIP3    H235832   0.864   3.056   1.651
 4757TIP3   OH235833   0.472   2.327   7.520
 4757TIP3    H135834   0.390   2.308   7.566
 4757TIP3    H235835   0.466   2.420   7.498
 4758TIP3   OH235836   2.389   6.794   0.023
 4758TIP3    H135837   2.381   6.706  -0.014
 4758TIP3    H235838   2.483   6.804   0.040
 4759TIP3   OH235839   1.846   2.442   5.897
 4759TIP3    H135840   1.793   2.521   5.910
 4759TIP3    H235841   1.934   2.467   5.926
 4760TIP3   OH235842   6.443   2.246   2.337
 4760TIP3    H135843   6.421   2.157   2.365
 4760TIP3    H235844   6.538   2.251   2.347
 4761TIP3   OH235845   1.682   5.813   7.212
 4761TIP3    H135846   1.700   5.774   7.127
 4761TIP3    H235847   1.651   5.741   7.266
 4762TIP3   OH235848   3.479   5.320   7.207
 4762TIP3    H135849   3.402   5.339   7.261
 4762TIP3    H235850   3.449   5.332   7.117
 4763TIP3   OH235851   5.099   5.538   0.519
 4763TIP3    H135852   5.077   5.631   0.522
 4763TIP3    H235853   5.162   5.526   0.590
 4764TIP3   OH235854   5.450   3.003   0.376
 4764TIP3    H135855   5.387   3.032   0.309
 4764TIP3    H235856   5.401   2.939   0.428
 4765TIP3   OH235857   4.880   3.646   0.695
 4765TIP3    H135858   4.939   3.640   0.770
 4765TIP3    H235859   4.927   3.702   0.632
 4766TIP3   OH235860   2.557   1.114   1.300
 4766TIP3    H135861   2.526   1.159   1.378
 4766TIP3    H235862   2.544   1.021   1.319
 4767TIP3   OH235863   1.586   0.832   1.260
 4767TIP3    H135864   1.641   0.805   1.186
 4767TIP3    H235865   1.648   0.871   1.322
 4768TIP3   OH235866   6.329   6.531   6.863
 4768TIP3    H135867   6.314   6.603   6.924
 4768TIP3    H235868   6.414   6.551   6.823
 4769TIP3   OH235869   3.557   3.769   7.928
 4769TIP3    H135870   3.559   3.804   8.017
 4769TIP3    H235871   3.583   3.678   7.937
 4770TIP3   OH235872   1.979   5.661   8.226
 4770TIP3    H135873   1.907   5.635   8.284
 4770TIP3    H235874   2.046   5.695   8.285
 4771TIP3   OH235875   3.425   4.296   7.663
 4771TIP3    H135876   3.498   4.263   7.610
 4771TIP3    H235877   3.400   4.378   7.622
 4772TIP3   OH235878   5.174   4.556   6.289
 4772TIP3    H135879   5.138   4.520   6.208
 4772TIP3    H235880   5.097   4.584   6.339
 4773TIP3   OH235881   4.632   6.906   0.202
 4773TIP3    H135882   4.702   6.900   0.267
 4773TIP3    H235883   4.663   6.972   0.140
 4774TIP3   OH235884   2.338   3.407   0.863
 4774TIP3    H135885   2.427   3.421   0.831
 4774TIP3    H235886   2.338   3.317   0.894
 4775TIP3   OH235887   2.333   0.024   0.146
 4775TIP3    H135888   2.352  -0.059   0.102
 4775TIP3    H235889   2.414   0.048   0.190
 4776TIP3   OH235890   6.080   4.614   1.081
 4776TIP3    H135891   6.092   4.593   1.174
 4776TIP3    H235892   6.068   4.529   1.039
 4777TIP3   OH235893   3.202   4.429   0.235
 4777TIP3    H135894   3.289   4.412   0.199
 4777TIP3    H235895   3.165   4.498   0.180
 4778TIP3   OH235896   0.611   3.856   1.754
 4778TIP3    H135897   0.527   3.812   1.760
 4778TIP3    H235898   0.656   3.836   1.836
 4779TIP3   OH235899   1.416   5.222   0.540
 4779TIP3    H135900   1.477   5.209   0.468
 4779TIP3    H235901   1.336   5.254   0.499
 4780TIP3   OH235902   6.311   3.701   2.209
 4780TIP3    H135903   6.383   3.765   2.209
 4780TIP3    H235904   6.237   3.748   2.248
 4781TIP3   OH235905   4.182   2.401   6.973
 4781TIP3    H135906   4.096   2.404   7.016
 4781TIP3    H235907   4.231   2.473   7.013
 4782TIP3   OH235908   6.822   2.513   6.896
 4782TIP3    H135909   6.837   2.600   6.860
 4782TIP3    H235910   6.853   2.519   6.986
 4783TIP3   OH235911   6.706   5.760   0.924
 4783TIP3    H135912   6.619   5.722   0.939
 4783TIP3    H235913   6.743   5.770   1.012
 4784TIP3   OH235914   0.127   1.564   1.188
 4784TIP3    H135915   0.220   1.566   1.209
 4784TIP3    H235916   0.115   1.632   1.122
 4785TIP3   OH235917   1.802   0.213   6.643
 4785TIP3    H135918   1.777   0.125   6.670
 4785TIP3    H235919   1.828   0.204   6.551
 4786TIP3   OH235920   4.846   0.269   1.103
 4786TIP3    H135921   4.825   0.239   1.015
 4786TIP3    H235922   4.761   0.283   1.145
 4787TIP3   OH235923   1.713   6.324   7.262
 4787TIP3    H135924   1.712   6.235   7.226
 4787TIP3    H235925   1.789   6.325   7.321
 4788TIP3   OH235926   3.159   0.884   7.931
 4788TIP3    H135927   3.247   0.897   7.896
 4788TIP3    H235928   3.162   0.798   7.973
 4789TIP3   OH235929   1.036   1.382   1.727
 4789TIP3    H135930   1.043   1.288   1.742
 4789TIP3    H235931   0.985   1.390   1.646
 4790TIP3   OH235932   0.093   5.046   7.678
 4790TIP3    H135933   0.095   5.120   7.738
 4790TIP3    H235934   0.185   5.021   7.666
 4791TIP3   OH235935   4.067   1.840   7.824
 4791TIP3    H135936   4.113   1.775   7.770
 4791TIP3    H235937   4.084   1.924   7.781
 4792TIP3   OH235938   0.935   2.635   0.885
 4792TIP3    H135939   0.905   2.601   0.801
 4792TIP3    H235940   0.860   2.623   0.943
 4793TIP3   OH235941   6.633   4.198   2.623
 4793TIP3    H135942   6.600   4.132   2.561
 4793TIP3    H235943   6.621   4.158   2.709
 4794TIP3   OH235944   6.961   0.178   7.053
 4794TIP3    H135945   7.055   0.192   7.066
 4794TIP3    H235946   6.921   0.263   7.073
 4795TIP3   OH235947   5.396   2.657   1.139
 4795TIP3    H135948   5.308   2.626   1.160
 4795TIP3    H235949   5.382   2.737   1.088
 4796TIP3   OH235950   3.560   5.196   7.541
 4796TIP3    H135951   3.485   5.255   7.544
 4796TIP3    H235952   3.628   5.241   7.592
 4797TIP3   OH235953   0.969   4.398   1.449
 4797TIP3    H135954   0.987   4.319   1.398
 4797TIP3    H235955   1.047   4.411   1.502
 4798TIP3   OH235956   6.375   5.032   1.029
 4798TIP3    H135957   6.329   5.068   1.105
 4798TIP3    H235958   6.324   4.955   1.005
 4799TIP3   OH235959   5.649   5.990   1.118
 4799TIP3    H135960   5.589   5.921   1.088
 4799TIP3    H235961   5.736   5.960   1.090
 4800TIP3   OH235962   4.440   3.061   6.750
 4800TIP3    H135963   4.522   3.075   6.703
 4800TIP3    H235964   4.465   3.056   6.842
 4801TIP3   OH235965   5.443   1.468   7.437
 4801TIP3    H135966   5.485   1.544   7.396
 4801TIP3    H235967   5.388   1.431   7.367
 4802TIP3   OH235968   2.104   0.547   1.484
 4802TIP3    H135969   2.092   0.612   1.554
 4802TIP3    H235970   2.171   0.585   1.427
 4803TIP3   OH235971   6.129   5.523   6.094
 4803TIP3    H135972   6.185   5.596   6.119
 4803TIP3    H235973   6.058   5.563   6.044
 4804TIP3   OH235974   4.851   3.057   0.528
 4804TIP3    H135975   4.926   3.108   0.498
 4804TIP3    H235976   4.776   3.114   0.514
 4805TIP3   OH235977   5.932   6.029   7.356
 4805TIP3    H135978   5.940   6.077   7.439
 4805TIP3    H235979   5.925   6.098   7.290
 4806TIP3   OH235980   4.795   4.771   0.490
 4806TIP3    H135981   4.879   4.776   0.535
 4806TIP3    H235982   4.732   4.745   0.558
 4807TIP3   OH235983   3.546   1.643   7.413
 4807TIP3    H135984   3.625   1.651   7.359
 4807TIP3    H235985   3.578   1.631   7.502
 4808TIP3   OH235986   4.348   5.101   0.821
 4808TIP3    H135987   4.363   5.176   0.764
 4808TIP3    H235988   4.296   5.135   0.893
 4809TIP3   OH235989   5.445   0.882   7.960
 4809TIP3    H135990   5.433   0.905   8.052
 4809TIP3    H235991   5.377   0.931   7.914
 4810TIP3   OH235992   4.472   6.114   6.664
 4810TIP3    H135993   4.567   6.103   6.665
 4810TIP3    H235994   4.446   6.103   6.756
 4811TIP3   OH235995   4.330   5.783   1.466
 4811TIP3    H135996   4.341   5.692   1.493
 4811TIP3    H235997   4.295   5.777   1.377
 4812TIP3   OH235998   5.847   5.400   7.901
 4812TIP3    H135999   5.879   5.430   7.815
 4812TIP3    H236000   5.752   5.406   7.895
 4813TIP3   OH236001   0.862   6.406   7.617
 4813TIP3    H136002   0.789   6.412   7.556
 4813TIP3    H236003   0.832   6.453   7.695
 4814TIP3   OH236004   1.552   6.187   0.981
 4814TIP3    H136005   1.463   6.152   0.979
 4814TIP3    H236006   1.541   6.282   0.975
 4815TIP3   OH236007   2.209   3.362   2.001
 4815TIP3    H136008   2.287   3.393   2.046
 4815TIP3    H236009   2.178   3.288   2.053
 4816TIP3   OH236010   0.987   3.417   6.454
 4816TIP3    H136011   0.988   3.472   6.375
 4816TIP3    H236012   1.020   3.332   6.424
 4817TIP3   OH236013   4.079   3.758   2.033
 4817TIP3    H136014   4.106   3.673   2.068
 4817TIP3    H236015   4.014   3.790   2.095
 4818TIP3   OH236016   3.068   4.086   0.064
 4818TIP3    H136017   3.040   4.102   0.154
 4818TIP3    H236018   3.150   4.038   0.073
 4819TIP3   OH236019   5.936   5.841   6.738
 4819TIP3    H136020   5.875   5.883   6.678
 4819TIP3    H236021   5.894   5.846   6.824
 4820TIP3   OH236022   2.765   3.574   7.120
 4820TIP3    H136023   2.792   3.644   7.180
 4820TIP3    H236024   2.846   3.528   7.098
 4821TIP3   OH236025   0.738   0.589   6.954
 4821TIP3    H136026   0.676   0.517   6.950
 4821TIP3    H236027   0.701   0.655   6.894
 4822TIP3   OH236028   4.126   1.349   1.087
 4822TIP3    H136029   4.084   1.410   1.147
 4822TIP3    H236030   4.153   1.275   1.142
 4823TIP3   OH236031   0.924   4.953   7.581
 4823TIP3    H136032   0.946   4.998   7.662
 4823TIP3    H236033   0.828   4.961   7.575
 4824TIP3   OH236034   4.756   2.908   1.381
 4824TIP3    H136035   4.713   2.992   1.371
 4824TIP3    H236036   4.849   2.928   1.381
 4825TIP3   OH236037   1.927   0.236   7.856
 4825TIP3    H136038   2.006   0.219   7.805
 4825TIP3    H236039   1.858   0.191   7.808
 4826TIP3   OH236040   0.604   2.337   2.319
 4826TIP3    H136041   0.563   2.418   2.287
 4826TIP3    H236042   0.544   2.268   2.292
 4827TIP3   OH236043   0.613   2.127   0.923
 4827TIP3    H136044   0.685   2.156   0.978
 4827TIP3    H236045   0.570   2.058   0.973
 4828TIP3   OH236046   6.995   3.167   6.335
 4828TIP3    H136047   6.971   3.247   6.289
 4828TIP3    H236048   6.949   3.098   6.288
 4829TIP3   OH236049   5.477   5.164   7.822
 4829TIP3    H136050   5.499   5.079   7.860
 4829TIP3    H236051   5.398   5.148   7.772
 4830TIP3   OH236052   5.197   6.286   6.761
 4830TIP3    H136053   5.199   6.220   6.831
 4830TIP3    H236054   5.173   6.236   6.682
 4831TIP3   OH236055   2.824   0.906   0.742
 4831TIP3    H136056   2.882   0.982   0.737
 4831TIP3    H236057   2.807   0.883   0.651
 4832TIP3   OH236058   3.914   2.970   1.002
 4832TIP3    H136059   3.992   2.969   1.059
 4832TIP3    H236060   3.949   2.961   0.913
 4833TIP3   OH236061   6.022   4.042   2.363
 4833TIP3    H136062   6.064   4.066   2.445
 4833TIP3    H236063   6.076   4.083   2.295
 4834TIP3   OH236064   4.702   3.662   7.698
 4834TIP3    H136065   4.740   3.703   7.776
 4834TIP3    H236066   4.758   3.586   7.682
 4835TIP3   OH236067   6.373   5.072   6.136
 4835TIP3    H136068   6.345   5.157   6.102
 4835TIP3    H236069   6.329   5.008   6.081
 4836TIP3   OH236070   4.337   3.239   1.008
 4836TIP3    H136071   4.323   3.145   1.016
 4836TIP3    H236072   4.394   3.261   1.082
 4837TIP3   OH236073   1.111   0.616   0.253
 4837TIP3    H136074   1.193   0.663   0.271
 4837TIP3    H236075   1.067   0.611   0.338
 4838TIP3   OH236076   1.807   1.370   6.390
 4838TIP3    H136077   1.816   1.284   6.430
 4838TIP3    H236078   1.885   1.418   6.419
 4839TIP3   OH236079   1.908   6.962   7.525
 4839TIP3    H136080   1.843   7.020   7.565
 4839TIP3    H236081   1.939   6.907   7.596
 4840TIP3   OH236082   1.237   1.206   6.207
 4840TIP3    H136083   1.277   1.291   6.186
 4840TIP3    H236084   1.149   1.228   6.238
 4841TIP3   OH236085   0.458   1.994   0.534
 4841TIP3    H136086   0.454   1.920   0.594
 4841TIP3    H236087   0.544   2.032   0.548
 4842TIP3   OH236088   2.263   0.368   8.129
 4842TIP3    H136089   2.313   0.311   8.189
 4842TIP3    H236090   2.254   0.450   8.176
 4843TIP3   OH236091   3.102   3.503   0.792
 4843TIP3    H136092   3.028   3.446   0.814
 4843TIP3    H236093   3.068   3.592   0.803
 4844TIP3   OH236094   0.224   1.103   1.979
 4844TIP3    H136095   0.144   1.124   1.929
 4844TIP3    H236096   0.236   1.009   1.966
 4845TIP3   OH236097   5.620   3.708   7.206
 4845TIP3    H136098   5.563   3.639   7.240
 4845TIP3    H236099   5.705   3.690   7.246
 4846TIP3   OH236100   6.743   0.174   7.294
 4846TIP3    H136101   6.810   0.111   7.267
 4846TIP3    H236102   6.739   0.237   7.223
 4847TIP3   OH236103   0.942   2.167   2.073
 4847TIP3    H136104   0.983   2.093   2.119
 4847TIP3    H236105   0.956   2.242   2.131
 4848TIP3   OH236106   5.375   5.875   1.720
 4848TIP3    H136107   5.305   5.910   1.664
 4848TIP3    H236108   5.384   5.784   1.693
 4849TIP3   OH236109   3.693   1.612   5.848
 4849TIP3    H136110   3.721   1.702   5.831
 4849TIP3    H236111   3.768   1.559   5.824
 4850TIP3   OH236112   4.485   1.284   6.557
 4850TIP3    H136113   4.394   1.263   6.536
 4850TIP3    H236114   4.480   1.367   6.604
 4851TIP3   OH236115   5.138   6.320   2.249
 4851TIP3    H136116   5.177   6.275   2.324
 4851TIP3    H236117   5.196   6.300   2.175
 4852TIP3   OH236118   6.974   3.286   7.048
 4852TIP3    H136119   6.896   3.245   7.084
 4852TIP3    H236120   7.047   3.245   7.095
 4853TIP3   OH236121   1.342   5.536   0.509
 4853TIP3    H136122   1.381   5.456   0.545
 4853TIP3    H236123   1.261   5.507   0.468
 4854TIP3   OH236124   1.237   4.657   7.863
 4854TIP3    H136125   1.225   4.750   7.881
 4854TIP3    H236126   1.267   4.654   7.772
 4855TIP3   OH236127   4.760   0.143   6.179
 4855TIP3    H136128   4.700   0.206   6.138
 4855TIP3    H236129   4.702   0.083   6.226
 4856TIP3   OH236130   5.090   2.506   6.287
 4856TIP3    H136131   5.124   2.425   6.248
 4856TIP3    H236132   5.167   2.560   6.303
 4857TIP3   OH236133   0.040   6.312   0.142
 4857TIP3    H136134   0.009   6.339   0.229
 4857TIP3    H236135   0.112   6.372   0.122
 4858TIP3   OH236136   6.227   4.978   7.925
 4858TIP3    H136137   6.137   5.004   7.944
 4858TIP3    H236138   6.219   4.912   7.856
 4859TIP3   OH236139   5.054   5.539   1.768
 4859TIP3    H136140   5.025   5.453   1.737
 4859TIP3    H236141   5.051   5.595   1.691
 4860TIP3   OH236142   5.006   0.446   7.445
 4860TIP3    H136143   5.004   0.368   7.501
 4860TIP3    H236144   4.928   0.495   7.469
 4861TIP3   OH236145   6.562   1.996   2.071
 4861TIP3    H136146   6.615   1.931   2.025
 4861TIP3    H236147   6.622   2.034   2.136
 4862TIP3   OH236148   2.538   6.882   0.844
 4862TIP3    H136149   2.623   6.841   0.828
 4862TIP3    H236150   2.555   6.947   0.912
 4863TIP3   OH236151   3.582   1.088   7.004
 4863TIP3    H136152   3.502   1.140   7.007
 4863TIP3    H236153   3.649   1.149   6.971
 4864TIP3   OH236154   3.960   5.888   6.129
 4864TIP3    H136155   3.952   5.968   6.076
 4864TIP3    H236156   3.870   5.870   6.157
 4865TIP3   OH236157   4.090   1.258   7.884
 4865TIP3    H136158   4.080   1.261   7.789
 4865TIP3    H236159   4.034   1.328   7.916
 4866TIP3   OH236160   6.252   1.444   1.247
 4866TIP3    H136161   6.287   1.471   1.332
 4866TIP3    H236162   6.240   1.349   1.256
 4867TIP3   OH236163   1.668   2.366   1.486
 4867TIP3    H136164   1.594   2.375   1.546
 4867TIP3    H236165   1.630   2.371   1.399
 4868TIP3   OH236166   1.746   3.642   1.501
 4868TIP3    H136167   1.676   3.586   1.467
 4868TIP3    H236168   1.707   3.684   1.579
 4869TIP3   OH236169   2.435   3.782   0.978
 4869TIP3    H136170   2.372   3.843   1.016
 4869TIP3    H236171   2.468   3.828   0.901
 4870TIP3   OH236172   1.167   1.589   1.869
 4870TIP3    H136173   1.093   1.528   1.866
 4870TIP3    H236174   1.176   1.621   1.780
 4871TIP3   OH236175   0.965   0.184   1.262
 4871TIP3    H136176   0.877   0.216   1.285
 4871TIP3    H236177   1.024   0.236   1.317
 4872TIP3   OH236178   6.667   3.887   1.829
 4872TIP3    H136179   6.740   3.906   1.888
 4872TIP3    H236180   6.647   3.971   1.788
 4873TIP3   OH236181   1.583   5.013   6.445
 4873TIP3    H136182   1.662   4.965   6.471
 4873TIP3    H236183   1.576   4.998   6.351
 4874TIP3   OH236184   4.664   3.289   6.406
 4874TIP3    H136185   4.632   3.330   6.326
 4874TIP3    H236186   4.744   3.338   6.428
 4875TIP3   OH236187   0.932   6.891   0.444
 4875TIP3    H136188   1.002   6.922   0.387
 4875TIP3    H236189   0.967   6.901   0.533
 4876TIP3   OH236190   3.353   1.731   6.472
 4876TIP3    H136191   3.378   1.772   6.389
 4876TIP3    H236192   3.259   1.749   6.480
 4877TIP3   OH236193   5.594   0.647   1.543
 4877TIP3    H136194   5.608   0.701   1.621
 4877TIP3    H236195   5.647   0.690   1.475
 4878TIP3   OH236196   2.856   6.427   1.116
 4878TIP3    H136197   2.823   6.434   1.027
 4878TIP3    H236198   2.788   6.466   1.171
 4879TIP3   OH236199   3.403   3.270   0.413
 4879TIP3    H136200   3.330   3.246   0.469
 4879TIP3    H236201   3.422   3.190   0.362
 4880TIP3   OH236202   4.204   5.391   1.730
 4880TIP3    H136203   4.154   5.320   1.690
 4880TIP3    H236204   4.218   5.363   1.820
 4881TIP3   OH236205   0.507   4.891   7.236
 4881TIP3    H136206   0.430   4.903   7.180
 4881TIP3    H236207   0.572   4.850   7.179
 4882TIP3   OH236208   3.550   3.927   8.167
 4882TIP3    H136209   3.559   3.938   8.262
 4882TIP3    H236210   3.457   3.944   8.150
 4883TIP3   OH236211   3.574   5.964   1.812
 4883TIP3    H136212   3.546   6.033   1.752
 4883TIP3    H236213   3.502   5.902   1.812
 4884TIP3   OH236214   6.250   0.230   6.790
 4884TIP3    H136215   6.305   0.215   6.713
 4884TIP3    H236216   6.303   0.286   6.847
 4885TIP3   OH236217   3.939   1.005   0.918
 4885TIP3    H136218   3.905   1.069   0.980
 4885TIP3    H236219   3.986   1.056   0.852
 4886TIP3   OH236220   1.907   5.535   7.958
 4886TIP3    H136221   1.922   5.594   8.032
 4886TIP3    H236222   1.944   5.580   7.883
 4887TIP3   OH236223   4.063   2.358   7.582
 4887TIP3    H136224   4.138   2.390   7.631
 4887TIP3    H236225   4.062   2.411   7.502
 4888TIP3   OH236226   4.000   2.742   0.455
 4888TIP3    H136227   3.950   2.746   0.536
 4888TIP3    H236228   4.091   2.752   0.483
 4889TIP3   OH236229   3.229   0.280   0.592
 4889TIP3    H136230   3.283   0.264   0.515
 4889TIP3    H236231   3.268   0.357   0.633
 4890TIP3   OH236232   3.257   1.455   7.917
 4890TIP3    H136233   3.346   1.488   7.922
 4890TIP3    H236234   3.266   1.364   7.890
 4891TIP3   OH236235   6.230   3.739   7.441
 4891TIP3    H136236   6.233   3.801   7.369
 4891TIP3    H236237   6.143   3.751   7.479
 4892TIP3   OH236238   1.718   2.293   7.866
 4892TIP3    H136239   1.764   2.250   7.938
 4892TIP3    H236240   1.657   2.226   7.833
 4893TIP3   OH236241   6.258   6.729   8.293
 4893TIP3    H136242   6.218   6.816   8.305
 4893TIP3    H236243   6.292   6.706   8.380
 4894TIP3   OH236244   0.995   4.492   1.995
 4894TIP3    H136245   0.908   4.529   2.014
 4894TIP3    H236246   0.987   4.399   2.019
 4895TIP3   OH236247   6.322   2.537   0.255
 4895TIP3    H136248   6.317   2.545   0.351
 4895TIP3    H236249   6.260   2.603   0.223
 4896TIP3   OH236250   4.228   0.192   6.776
 4896TIP3    H136251   4.265   0.200   6.688
 4896TIP3    H236252   4.150   0.138   6.764
 4897TIP3   OH236253   0.769   4.625   1.547
 4897TIP3    H136254   0.822   4.553   1.581
 4897TIP3    H236255   0.697   4.633   1.608
 4898TIP3   OH236256   5.375   5.107   6.710
 4898TIP3    H136257   5.434   5.180   6.724
 4898TIP3    H236258   5.342   5.085   6.797
 4899TIP3   OH236259   0.354   2.311   7.809
 4899TIP3    H136260   0.390   2.296   7.896
 4899TIP3    H236261   0.299   2.389   7.820
 4900TIP3   OH236262   4.085   2.351   2.465
 4900TIP3    H136263   4.090   2.286   2.395
 4900TIP3    H236264   4.162   2.334   2.519
 4901TIP3   OH236265   0.415   0.668   8.404
 4901TIP3    H136266   0.401   0.747   8.455
 4901TIP3    H236267   0.435   0.601   8.470
 4902TIP3   OH236268   5.030   3.780   0.160
 4902TIP3    H136269   4.958   3.832   0.124
 4902TIP3    H236270   5.006   3.764   0.251
 4903TIP3   OH236271   2.302   5.972   6.316
 4903TIP3    H136272   2.244   5.935   6.249
 4903TIP3    H236273   2.365   6.025   6.267
 4904TIP3   OH236274   1.932   4.592   1.523
 4904TIP3    H136275   1.870   4.641   1.468
 4904TIP3    H236276   1.895   4.504   1.528
 4905TIP3   OH236277   0.378   6.720   1.971
 4905TIP3    H136278   0.455   6.776   1.984
 4905TIP3    H236279   0.390   6.647   2.032
 4906TIP3   OH236280   5.896   6.190   6.550
 4906TIP3    H136281   5.962   6.146   6.496
 4906TIP3    H236282   5.825   6.126   6.558
 4907TIP3   OH236283   1.386   4.446   1.163
 4907TIP3    H136284   1.367   4.360   1.201
 4907TIP3    H236285   1.302   4.474   1.126
 4908TIP3   OH236286   4.592   3.944   6.827
 4908TIP3    H136287   4.684   3.931   6.850
 4908TIP3    H236288   4.547   3.868   6.863
 4909TIP3   OH236289   6.400   5.781   0.736
 4909TIP3    H136290   6.353   5.817   0.661
 4909TIP3    H236291   6.471   5.730   0.698
 4910TIP3   OH236292   0.103   3.021   1.667
 4910TIP3    H136293   0.127   3.032   1.575
 4910TIP3    H236294   0.047   3.096   1.686
 4911TIP3   OH236295   0.200   5.280   7.183
 4911TIP3    H136296   0.109   5.248   7.182
 4911TIP3    H236297   0.243   5.227   7.251
 4912TIP3   OH236298   3.026   0.313   1.667
 4912TIP3    H136299   3.009   0.260   1.744
 4912TIP3    H236300   3.068   0.392   1.701
 4913TIP3   OH236301   1.016   1.477   6.125
 4913TIP3    H136302   1.108   1.500   6.109
 4913TIP3    H236303   1.014   1.450   6.216
 4914TIP3   OH236304   3.915   6.843   0.288
 4914TIP3    H136305   3.933   6.829   0.195
 4914TIP3    H236306   3.860   6.769   0.313
 4915TIP3   OH236307   4.768   1.434   0.393
 4915TIP3    H136308   4.843   1.393   0.437
 4915TIP3    H236309   4.737   1.368   0.332
 4916TIP3   OH236310   4.054   0.673   1.621
 4916TIP3    H136311   4.096   0.692   1.537
 4916TIP3    H236312   4.050   0.578   1.625
 4917TIP3   OH236313   1.958   6.133   6.514
 4917TIP3    H136314   1.903   6.083   6.454
 4917TIP3    H236315   1.958   6.222   6.478
 4918TIP3   OH236316   2.100   6.123   7.568
 4918TIP3    H136317   2.156   6.045   7.571
 4918TIP3    H236318   2.077   6.131   7.475
 4919TIP3   OH236319   2.738   1.602   7.002
 4919TIP3    H136320   2.709   1.681   6.957
 4919TIP3    H236321   2.698   1.607   7.089
 4920TIP3   OH236322   4.908   1.589   0.195
 4920TIP3    H136323   4.875   1.678   0.183
 4920TIP3    H236324   4.851   1.552   0.262
 4921TIP3   OH236325   5.731   1.896   6.394
 4921TIP3    H136326   5.782   1.962   6.346
 4921TIP3    H236327   5.780   1.880   6.474
 4922TIP3   OH236328   4.663   1.735   0.126
 4922TIP3    H136329   4.596   1.799   0.102
 4922TIP3    H236330   4.638   1.655   0.081
 4923TIP3   OH236331   4.809   2.836   8.219
 4923TIP3    H136332   4.871   2.794   8.278
 4923TIP3    H236333   4.807   2.928   8.247
 4924TIP3   OH236334   0.512   5.717   6.722
 4924TIP3    H136335   0.478   5.703   6.811
 4924TIP3    H236336   0.474   5.646   6.671
 4925TIP3   OH236337   2.556   0.834   1.358
 4925TIP3    H136338   2.650   0.854   1.352
 4925TIP3    H236339   2.530   0.810   1.269
 4926TIP3   OH236340   2.541   2.719   7.351
 4926TIP3    H136341   2.484   2.673   7.413
 4926TIP3    H236342   2.630   2.702   7.383
 4927TIP3   OH236343   1.710   5.864   1.729
 4927TIP3    H136344   1.736   5.831   1.644
 4927TIP3    H236345   1.775   5.830   1.790
 4928TIP3   OH236346   4.157   6.476   8.391
 4928TIP3    H136347   4.167   6.570   8.409
 4928TIP3    H236348   4.063   6.464   8.379
 4929TIP3   OH236349   0.473   2.836   7.618
 4929TIP3    H136350   0.489   2.791   7.535
 4929TIP3    H236351   0.509   2.777   7.684
 4930TIP3   OH236352   2.552   4.081   7.786
 4930TIP3    H136353   2.503   3.999   7.781
 4930TIP3    H236354   2.489   4.148   7.758
 4931TIP3   OH236355   1.668   2.455   2.145
 4931TIP3    H136356   1.655   2.360   2.146
 4931TIP3    H236357   1.633   2.485   2.229
 4932TIP3   OH236358   4.735   2.337   2.064
 4932TIP3    H136359   4.734   2.414   2.121
 4932TIP3    H236360   4.733   2.262   2.123
 4933TIP3   OH236361   0.031   5.967   7.331
 4933TIP3    H136362   0.025   5.882   7.375
 4933TIP3    H236363   0.072   5.946   7.247
 4934TIP3   OH236364   0.556   0.869   0.557
 4934TIP3    H136365   0.525   0.797   0.503
 4934TIP3    H236366   0.576   0.939   0.495
 4935TIP3   OH236367   6.685   6.863   0.778
 4935TIP3    H136368   6.590   6.861   0.772
 4935TIP3    H236369   6.713   6.779   0.741
 4936TIP3   OH236370   4.998   3.149   7.072
 4936TIP3    H136371   5.042   3.231   7.049
 4936TIP3    H236372   5.013   3.140   7.166
 4937TIP3   OH236373   3.176   3.965   2.780
 4937TIP3    H136374   3.140   3.900   2.720
 4937TIP3    H236375   3.270   3.965   2.762
 4938TIP3   OH236376   6.113   0.455   6.986
 4938TIP3    H136377   6.035   0.444   6.931
 4938TIP3    H236378   6.160   0.528   6.945
 4939TIP3   OH236379   4.868   6.382   1.545
 4939TIP3    H136380   4.907   6.348   1.626
 4939TIP3    H236381   4.774   6.378   1.560
 4940TIP3   OH236382   5.908   3.785   6.131
 4940TIP3    H136383   5.871   3.865   6.167
 4940TIP3    H236384   5.926   3.805   6.040
 4941TIP3   OH236385   2.946   6.370   0.214
 4941TIP3    H136386   2.930   6.457   0.177
 4941TIP3    H236387   2.932   6.311   0.140
 4942TIP3   OH236388   2.383   0.974   0.015
 4942TIP3    H136389   2.363   1.003   0.104
 4942TIP3    H236390   2.398   0.880   0.023
 4943TIP3   OH236391   3.652   1.617   2.114
 4943TIP3    H136392   3.743   1.637   2.093
 4943TIP3    H236393   3.602   1.651   2.039
 4944TIP3   OH236394   6.316   2.114   2.015
 4944TIP3    H136395   6.406   2.102   2.046
 4944TIP3    H236396   6.283   2.025   2.004
 4945TIP3   OH236397   0.221   5.488   6.072
 4945TIP3    H136398   0.309   5.453   6.063
 4945TIP3    H236399   0.174   5.420   6.121
 4946TIP3   OH236400   5.747   6.985   7.698
 4946TIP3    H136401   5.744   7.063   7.754
 4946TIP3    H236402   5.664   6.987   7.651
 4947TIP3   OH236403   1.329   5.911   1.590
 4947TIP3    H136404   1.394   5.945   1.652
 4947TIP3    H236405   1.280   5.846   1.641
 4948TIP3   OH236406   6.551   0.267   6.090
 4948TIP3    H136407   6.643   0.289   6.081
 4948TIP3    H236408   6.505   0.347   6.061
 4949TIP3   OH236409   3.673   6.724   0.744
 4949TIP3    H136410   3.684   6.804   0.692
 4949TIP3    H236411   3.749   6.670   0.722
 4950TIP3   OH236412   3.348   1.545   1.206
 4950TIP3    H136413   3.431   1.550   1.253
 4950TIP3    H236414   3.281   1.555   1.275
 4951TIP3   OH236415   0.777   0.800   1.245
 4951TIP3    H136416   0.745   0.716   1.213
 4951TIP3    H236417   0.757   0.861   1.174
 4952TIP3   OH236418   1.600   6.919   1.472
 4952TIP3    H136419   1.546   6.991   1.439
 4952TIP3    H236420   1.542   6.843   1.473
 4953TIP3   OH236421   0.980   2.070   0.690
 4953TIP3    H136422   0.973   1.976   0.705
 4953TIP3    H236423   1.064   2.081   0.647
 4954TIP3   OH236424   0.964   6.297   1.750
 4954TIP3    H136425   0.923   6.311   1.665
 4954TIP3    H236426   1.055   6.323   1.738
 4955TIP3   OH236427   2.365   6.337   7.582
 4955TIP3    H136428   2.346   6.247   7.555
 4955TIP3    H236429   2.461   6.343   7.581
 4956TIP3   OH236430   6.697   5.495   1.743
 4956TIP3    H136431   6.783   5.487   1.784
 4956TIP3    H236432   6.647   5.552   1.802
 4957TIP3   OH236433   3.953   3.794   7.997
 4957TIP3    H136434   4.003   3.857   8.048
 4957TIP3    H236435   3.876   3.775   8.050
 4958TIP3   OH236436   5.841   3.757   7.947
 4958TIP3    H136437   5.766   3.703   7.922
 4958TIP3    H236438   5.842   3.754   8.042
 4959TIP3   OH236439   2.453   2.185   0.867
 4959TIP3    H136440   2.454   2.240   0.789
 4959TIP3    H236441   2.502   2.107   0.842
 4960TIP3   OH236442   3.602   4.948   0.867
 4960TIP3    H136443   3.559   4.971   0.949
 4960TIP3    H236444   3.610   5.032   0.821
 4961TIP3   OH236445   5.118   6.083   6.594
 4961TIP3    H136446   5.194   6.124   6.552
 4961TIP3    H236447   5.059   6.063   6.521
 4962TIP3   OH236448   6.624   1.138   7.852
 4962TIP3    H136449   6.551   1.199   7.862
 4962TIP3    H236450   6.701   1.187   7.882
 4963TIP3   OH236451   5.486   6.321   8.145
 4963TIP3    H136452   5.499   6.361   8.231
 4963TIP3    H236453   5.442   6.389   8.094
 4964TIP3   OH236454   5.078   0.697   8.317
 4964TIP3    H136455   5.053   0.770   8.374
 4964TIP3    H236456   5.130   0.639   8.373
 4965TIP3   OH236457   1.782   1.355   6.108
 4965TIP3    H136458   1.869   1.328   6.138
 4965TIP3    H236459   1.774   1.446   6.136
 4966TIP3   OH236460   2.709   2.878   7.996
 4966TIP3    H136461   2.629   2.931   7.994
 4966TIP3    H236462   2.697   2.814   7.926
 4967TIP3   OH236463   5.592   1.753   1.801
 4967TIP3    H136464   5.634   1.821   1.749
 4967TIP3    H236465   5.501   1.782   1.810
 4968TIP3   OH236466   1.522   1.262   7.534
 4968TIP3    H136467   1.515   1.326   7.463
 4968TIP3    H236468   1.587   1.298   7.593
 4969TIP3   OH236469   3.044   3.823   0.779
 4969TIP3    H136470   3.088   3.842   0.696
 4969TIP3    H236471   3.106   3.852   0.846
 4970TIP3   OH236472   0.935   2.292   7.736
 4970TIP3    H136473   1.030   2.297   7.727
 4970TIP3    H236474   0.907   2.231   7.668
 4971TIP3   OH236475   1.089   5.377   0.677
 4971TIP3    H136476   1.050   5.335   0.600
 4971TIP3    H236477   1.085   5.310   0.745
 4972TIP3   OH236478   0.926   2.135   7.505
 4972TIP3    H136479   0.839   2.147   7.467
 4972TIP3    H236480   0.986   2.157   7.434
 4973TIP3   OH236481   4.286   4.893   7.317
 4973TIP3    H136482   4.268   4.922   7.227
 4973TIP3    H236483   4.200   4.883   7.357
 4974TIP3   OH236484   5.866   0.686   0.220
 4974TIP3    H136485   5.935   0.750   0.201
 4974TIP3    H236486   5.882   0.660   0.310
 4975TIP3   OH236487   1.528   2.902   8.229
 4975TIP3    H136488   1.562   2.946   8.151
 4975TIP3    H236489   1.494   2.818   8.197
 4976TIP3   OH236490   5.176   6.451   0.502
 4976TIP3    H136491   5.133   6.418   0.423
 4976TIP3    H236492   5.265   6.474   0.474
 4977TIP3   OH236493   0.158   1.513   6.546
 4977TIP3    H136494   0.183   1.550   6.630
 4977TIP3    H236495   0.130   1.423   6.566
 4978TIP3   OH236496   5.169   1.908   0.105
 4978TIP3    H136497   5.177   2.002   0.122
 4978TIP3    H236498   5.210   1.896   0.019
 4979TIP3   OH236499   1.718   4.022   0.003
 4979TIP3    H136500   1.802   4.031   0.048
 4979TIP3    H236501   1.738   4.045  -0.088
 4980TIP3   OH236502   4.893   1.814   1.927
 4980TIP3    H136503   4.842   1.871   1.869
 4980TIP3    H236504   4.877   1.726   1.894
 4981TIP3   OH236505   0.928   3.888   0.505
 4981TIP3    H136506   0.949   3.854   0.418
 4981TIP3    H236507   0.912   3.981   0.491
 4982TIP3   OH236508   6.395   1.263   7.082
 4982TIP3    H136509   6.328   1.204   7.048
 4982TIP3    H236510   6.404   1.331   7.015
 4983TIP3   OH236511   3.444   6.060   0.639
 4983TIP3    H136512   3.359   6.042   0.680
 4983TIP3    H236513   3.435   6.026   0.550
 4984TIP3   OH236514   5.477   4.534   6.748
 4984TIP3    H136515   5.487   4.603   6.683
 4984TIP3    H236516   5.561   4.488   6.746
 4985TIP3   OH236517   1.768   6.200   0.506
 4985TIP3    H136518   1.794   6.184   0.415
 4985TIP3    H236519   1.751   6.294   0.510
 4986TIP3   OH236520   3.695   4.771   0.434
 4986TIP3    H136521   3.691   4.854   0.480
 4986TIP3    H236522   3.732   4.710   0.498
 4987TIP3   OH236523   4.473   1.136   8.193
 4987TIP3    H136524   4.498   1.108   8.104
 4987TIP3    H236525   4.389   1.093   8.209
 4988TIP3   OH236526   3.063   0.785   7.052
 4988TIP3    H136527   3.111   0.857   7.093
 4988TIP3    H236528   3.034   0.821   6.968
 4989TIP3   OH236529   0.343   5.054   1.825
 4989TIP3    H136530   0.430   5.030   1.794
 4989TIP3    H236531   0.355   5.069   1.919
 4990TIP3   OH236532   3.767   6.900   0.551
 4990TIP3    H136533   3.778   6.984   0.506
 4990TIP3    H236534   3.778   6.834   0.481
 4991TIP3   OH236535   6.344   1.954   7.797
 4991TIP3    H136536   6.405   1.922   7.731
 4991TIP3    H236537   6.282   2.008   7.749
 4992TIP3   OH236538   3.918   2.662   1.148
 4992TIP3    H136539   3.982   2.688   1.215
 4992TIP3    H236540   3.834   2.695   1.180
 4993TIP3   OH236541   6.486   5.053   6.385
 4993TIP3    H136542   6.579   5.070   6.367
 4993TIP3    H236543   6.446   5.048   6.298
 4994TIP3   OH236544   0.498   0.349   1.753
 4994TIP3    H136545   0.526   0.269   1.797
 4994TIP3    H236546   0.508   0.418   1.819
 4995TIP3   OH236547   0.502   4.691   8.065
 4995TIP3    H136548   0.587   4.728   8.091
 4995TIP3    H236549   0.487   4.726   7.977
 4996TIP3   OH236550   0.555   1.969   8.254
 4996TIP3    H136551   0.637   2.009   8.225
 4996TIP3    H236552   0.512   2.038   8.304
 4997TIP3   OH236553   0.299   2.455   0.982
 4997TIP3    H136554   0.299   2.453   0.886
 4997TIP3    H236555   0.214   2.492   1.005
 4998TIP3   OH236556   4.920   2.855   2.374
 4998TIP3    H136557   4.914   2.785   2.440
 4998TIP3    H236558   4.830   2.867   2.343
 4999TIP3   OH236559   1.264   2.087   2.079
 4999TIP3    H136560   1.325   2.105   2.007
 4999TIP3    H236561   1.219   2.007   2.052
 5000TIP3   OH236562   5.884   3.433   6.468
 5000TIP3    H136563   5.890   3.506   6.406
 5000TIP3    H236564   5.880   3.355   6.412
 5001TIP3   OH236565   6.359   4.072   6.377
 5001TIP3    H136566   6.265   4.080   6.365
 5001TIP3    H236567   6.397   4.109   6.298
 5002TIP3   OH236568   1.093   1.080   2.057
 5002TIP3    H136569   1.122   1.004   2.107
 5002TIP3    H236570   1.173   1.113   2.015
 5003TIP3   OH236571   1.510   5.051   7.067
 5003TIP3    H136572   1.579   5.053   7.001
 5003TIP3    H236573   1.510   5.138   7.106
 5004TIP3   OH236574   6.627   1.986   1.492
 5004TIP3    H136575   6.622   2.025   1.579
 5004TIP3    H236576   6.688   1.913   1.501
 5005TIP3   OH236577   0.765   5.377   0.164
 5005TIP3    H136578   0.679   5.399   0.202
 5005TIP3    H236579   0.812   5.460   0.162
 5006TIP3   OH236580   5.157   6.853   0.470
 5006TIP3    H136581   5.222   6.811   0.526
 5006TIP3    H236582   5.077   6.853   0.522
 5007TIP3   OH236583   1.857   0.912   5.894
 5007TIP3    H136584   1.945   0.890   5.866
 5007TIP3    H236585   1.842   1.000   5.859
 5008TIP3   OH236586   6.271   1.056   7.519
 5008TIP3    H136587   6.274   1.013   7.605
 5008TIP3    H236588   6.231   1.140   7.536
 5009TIP3   OH236589   0.489   2.978   6.554
 5009TIP3    H136590   0.429   2.911   6.585
 5009TIP3    H236591   0.542   2.933   6.488
 5010TIP3   OH236592   5.635   1.147   7.737
 5010TIP3    H136593   5.725   1.132   7.765
 5010TIP3    H236594   5.620   1.082   7.669
 5011TIP3   OH236595   2.125   4.163   1.735
 5011TIP3    H136596   2.154   4.185   1.647
 5011TIP3    H236597   2.200   4.182   1.791
 5012TIP3   OH236598   4.525   3.583   7.469
 5012TIP3    H136599   4.528   3.553   7.560
 5012TIP3    H236600   4.447   3.638   7.465
 5013TIP3   OH236601   0.850   2.494   7.525
 5013TIP3    H136602   0.840   2.581   7.563
 5013TIP3    H236603   0.863   2.436   7.601
 5014TIP3   OH236604   3.504   5.339   1.051
 5014TIP3    H136605   3.562   5.384   0.990
 5014TIP3    H236606   3.460   5.409   1.099
 5015TIP3   OH236607   6.256   1.306   6.719
 5015TIP3    H136608   6.250   1.222   6.673
 5015TIP3    H236609   6.187   1.360   6.679
 5016TIP3   OH236610   1.856   2.256   6.498
 5016TIP3    H136611   1.885   2.307   6.573
 5016TIP3    H236612   1.771   2.292   6.475
 5017TIP3   OH236613   0.505   4.139   1.429
 5017TIP3    H136614   0.558   4.196   1.373
 5017TIP3    H236615   0.493   4.059   1.378
 5018TIP3   OH236616   3.236   3.118   0.056
 5018TIP3    H136617   3.217   3.077  -0.028
 5018TIP3    H236618   3.180   3.072   0.119
 5019TIP3   OH236619   0.316   0.118   0.668
 5019TIP3    H136620   0.340   0.124   0.760
 5019TIP3    H236621   0.229   0.077   0.669
 5020TIP3   OH236622   6.166   6.045   7.048
 5020TIP3    H136623   6.219   6.050   7.128
 5020TIP3    H236624   6.135   6.135   7.035
 5021TIP3   OH236625   2.382   2.119   7.864
 5021TIP3    H136626   2.470   2.091   7.890
 5021TIP3    H236627   2.368   2.076   7.780
 5022TIP3   OH236628   4.015   5.942   6.979
 5022TIP3    H136629   3.984   6.024   7.018
 5022TIP3    H236630   3.958   5.928   6.903
 5023TIP3   OH236631   6.940   0.950   7.553
 5023TIP3    H136632   6.889   1.000   7.489
 5023TIP3    H236633   6.875   0.898   7.600
 5024TIP3   OH236634   5.764   0.009   1.972
 5024TIP3    H136635   5.716  -0.074   1.967
 5024TIP3    H236636   5.707   0.065   2.024
 5025TIP3   OH236637   3.726   4.913   7.895
 5025TIP3    H136638   3.688   4.942   7.978
 5025TIP3    H236639   3.693   4.824   7.883
 5026TIP3   OH236640   1.889   6.114   1.456
 5026TIP3    H136641   1.934   6.147   1.378
 5026TIP3    H236642   1.827   6.049   1.423
 5027TIP3   OH236643   3.240   3.768   1.652
 5027TIP3    H136644   3.260   3.752   1.559
 5027TIP3    H236645   3.172   3.705   1.674
 5028TIP3   OH236646   3.845   4.209   7.933
 5028TIP3    H136647   3.847   4.303   7.951
 5028TIP3    H236648   3.821   4.169   8.016
 5029TIP3   OH236649   0.418   5.774   0.123
 5029TIP3    H136650   0.380   5.778   0.035
 5029TIP3    H236651   0.350   5.811   0.180
 5030TIP3   OH236652   5.345   6.308   7.774
 5030TIP3    H136653   5.391   6.388   7.750
 5030TIP3    H236654   5.253   6.327   7.755
 5031TIP3   OH236655   6.960   4.840   1.547
 5031TIP3    H136656   6.996   4.757   1.515
 5031TIP3    H236657   7.036   4.897   1.558
 5032TIP3   OH236658   3.691   0.564   8.223
 5032TIP3    H136659   3.639   0.494   8.182
 5032TIP3    H236660   3.736   0.520   8.295
 5033TIP3   OH236661   2.820   0.669   1.638
 5033TIP3    H136662   2.770   0.589   1.623
 5033TIP3    H236663   2.886   0.644   1.702
 5034TIP3   OH236664   5.895   5.272   8.186
 5034TIP3    H136665   5.844   5.300   8.110
 5034TIP3    H236666   5.986   5.284   8.159
 5035TIP3   OH236667   4.002   0.882   7.361
 5035TIP3    H136668   4.010   0.861   7.268
 5035TIP3    H236669   4.092   0.890   7.393
 5036TIP3   OH236670   1.665   5.048   6.184
 5036TIP3    H136671   1.746   5.095   6.168
 5036TIP3    H236672   1.669   4.972   6.126
 5037TIP3   OH236673   4.529   2.756   7.267
 5037TIP3    H136674   4.530   2.677   7.321
 5037TIP3    H236675   4.476   2.819   7.317
 5038TIP3   OH236676   6.836   6.455   1.822
 5038TIP3    H136677   6.800   6.543   1.837
 5038TIP3    H236678   6.874   6.430   1.906
 5039TIP3   OH236679   6.066   6.113   8.221
 5039TIP3    H136680   6.031   6.162   8.147
 5039TIP3    H236681   6.082   6.025   8.185
 5040TIP3   OH236682   6.107   4.151   6.301
 5040TIP3    H136683   6.035   4.214   6.311
 5040TIP3    H236684   6.153   4.181   6.222
 5041TIP3   OH236685   0.934   3.412   1.467
 5041TIP3    H136686   0.959   3.473   1.397
 5041TIP3    H236687   1.001   3.425   1.534
 5042TIP3   OH236688   4.953   0.280   6.304
 5042TIP3    H136689   4.889   0.210   6.292
 5042TIP3    H236690   4.923   0.327   6.381
 5043TIP3   OH236691   4.420   4.865   0.967
 5043TIP3    H136692   4.405   4.876   1.061
 5043TIP3    H236693   4.400   4.951   0.930
 5044TIP3   OH236694   6.592   4.803   1.407
 5044TIP3    H136695   6.559   4.773   1.323
 5044TIP3    H236696   6.665   4.861   1.385
 5045TIP3   OH236697   5.117   4.015   6.882
 5045TIP3    H136698   5.163   4.085   6.929
 5045TIP3    H236699   5.171   3.937   6.899
 5046TIP3   OH236700   0.306   5.537   7.392
 5046TIP3    H136701   0.245   5.476   7.433
 5046TIP3    H236702   0.393   5.502   7.414
 5047TIP3   OH236703   3.453   1.576   8.215
 5047TIP3    H136704   3.374   1.537   8.252
 5047TIP3    H236705   3.507   1.597   8.292
 5048TIP3   OH236706   5.450   5.489   6.224
 5048TIP3    H136707   5.525   5.542   6.195
 5048TIP3    H236708   5.436   5.515   6.315
 5049TIP3   OH236709   1.738   4.203   7.265
 5049TIP3    H136710   1.765   4.292   7.245
 5049TIP3    H236711   1.723   4.163   7.179
 5050TIP3   OH236712   5.074   2.715   0.662
 5050TIP3    H136713   5.053   2.677   0.747
 5050TIP3    H236714   5.159   2.677   0.640
 5051TIP3   OH236715   3.359   6.099   1.283
 5051TIP3    H136716   3.317   6.025   1.327
 5051TIP3    H236717   3.422   6.058   1.224
 5052TIP3   OH236718   6.949   0.200   8.125
 5052TIP3    H136719   7.019   0.263   8.107
 5052TIP3    H236720   6.973   0.122   8.075
 5053TIP3   OH236721   6.416   3.360   7.191
 5053TIP3    H136722   6.384   3.429   7.249
 5053TIP3    H236723   6.418   3.281   7.246
 5054TIP3   OH236724   1.753   4.586   0.999
 5054TIP3    H136725   1.762   4.530   1.075
 5054TIP3    H236726   1.836   4.634   0.993
 5055TIP3   OH236727   1.412   0.200   0.310
 5055TIP3    H136728   1.487   0.195   0.250
 5055TIP3    H236729   1.439   0.150   0.387
 5056TIP3   OH236730   6.361   5.414   7.637
 5056TIP3    H136731   6.393   5.494   7.679
 5056TIP3    H236732   6.423   5.398   7.567
 5057TIP3   OH236733   4.061   5.767   0.902
 5057TIP3    H136734   3.979   5.724   0.881
 5057TIP3    H236735   4.109   5.703   0.956
 5058TIP3   OH236736   2.154   6.975   2.559
 5058TIP3    H136737   2.208   6.903   2.593
 5058TIP3    H236738   2.199   7.004   2.480
 5059TIP3   OH236739   6.115   5.841   8.122
 5059TIP3    H136740   6.125   5.773   8.188
 5059TIP3    H236741   6.051   5.804   8.060
 5060TIP3   OH236742   6.639   4.485   7.063
 5060TIP3    H136743   6.680   4.417   7.118
 5060TIP3    H236744   6.675   4.470   6.976
 5061TIP3   OH236745   6.160   4.010   5.900
 5061TIP3    H136746   6.213   3.946   5.852
 5061TIP3    H236747   6.070   3.995   5.869
 5062TIP3   OH236748   0.669   1.991   7.215
 5062TIP3    H136749   0.658   2.067   7.272
 5062TIP3    H236750   0.647   2.024   7.128
 5063TIP3   OH236751   3.854   3.791   7.125
 5063TIP3    H136752   3.885   3.758   7.210
 5063TIP3    H236753   3.879   3.723   7.062
 5064TIP3   OH236754   5.284   4.117   0.264
 5064TIP3    H136755   5.290   4.200   0.312
 5064TIP3    H236756   5.335   4.131   0.185
 5065TIP3   OH236757   4.839   4.408   7.226
 5065TIP3    H136758   4.898   4.348   7.181
 5065TIP3    H236759   4.758   4.359   7.238
 5066TIP3   OH236760   0.140   0.838   5.983
 5066TIP3    H136761   0.096   0.849   6.068
 5066TIP3    H236762   0.230   0.814   6.005
 5067TIP3   OH236763   6.555   4.829   8.000
 5067TIP3    H136764   6.570   4.747   7.952
 5067TIP3    H236765   6.642   4.856   8.030
 5068TIP3   OH236766   1.582   0.840   7.325
 5068TIP3    H136767   1.547   0.751   7.332
 5068TIP3    H236768   1.547   0.873   7.242
 5069TIP3   OH236769   6.174   3.950   0.172
 5069TIP3    H136770   6.093   3.949   0.224
 5069TIP3    H236771   6.170   3.869   0.121
 5070TIP3   OH236772   2.116   3.635   2.116
 5070TIP3    H136773   2.200   3.595   2.096
 5070TIP3    H236774   2.083   3.586   2.192
 5071TIP3   OH236775   2.875   1.333   0.428
 5071TIP3    H136776   2.871   1.428   0.437
 5071TIP3    H236777   2.969   1.315   0.422
 5072TIP3   OH236778   3.463   6.260   0.394
 5072TIP3    H136779   3.382   6.227   0.432
 5072TIP3    H236780   3.508   6.304   0.466
 5073TIP3   OH236781   0.723   1.126   0.811
 5073TIP3    H136782   0.711   1.036   0.842
 5073TIP3    H236783   0.770   1.170   0.882
 5074TIP3   OH236784   0.366   0.276   6.021
 5074TIP3    H136785   0.430   0.266   5.951
 5074TIP3    H236786   0.305   0.342   5.988
 5075TIP3   OH236787   1.540   4.342   0.942
 5075TIP3    H136788   1.479   4.268   0.941
 5075TIP3    H236789   1.484   4.418   0.958
 5076TIP3   OH236790   6.643   5.544   8.296
 5076TIP3    H136791   6.697   5.513   8.369
 5076TIP3    H236792   6.557   5.505   8.312
 5077TIP3   OH236793   2.665   4.823   6.338
 5077TIP3    H136794   2.741   4.856   6.384
 5077TIP3    H236795   2.689   4.733   6.313
 5078TIP3   OH236796   6.680   6.078   0.060
 5078TIP3    H136797   6.594   6.097   0.097
 5078TIP3    H236798   6.735   6.151   0.089
 5079TIP3   OH236799   2.422   5.071   7.286
 5079TIP3    H136800   2.430   5.165   7.305
 5079TIP3    H236801   2.461   5.060   7.200
 5080TIP3   OH236802   6.817   1.248   0.282
 5080TIP3    H136803   6.898   1.205   0.308
 5080TIP3    H236804   6.842   1.340   0.269
 5081TIP3   OH236805   2.440   6.489   8.132
 5081TIP3    H136806   2.364   6.472   8.076
 5081TIP3    H236807   2.468   6.402   8.161
 5082TIP3   OH236808   1.324   1.429   8.005
 5082TIP3    H136809   1.237   1.395   7.986
 5082TIP3    H236810   1.364   1.363   8.061
 5083TIP3   OH236811   1.746   4.846   1.825
 5083TIP3    H136812   1.764   4.909   1.756
 5083TIP3    H236813   1.779   4.888   1.905
 5084TIP3   OH236814   5.509   2.616   6.695
 5084TIP3    H136815   5.581   2.667   6.659
 5084TIP3    H236816   5.524   2.616   6.790
 5085TIP3   OH236817   6.427   6.220   0.118
 5085TIP3    H136818   6.359   6.284   0.140
 5085TIP3    H236819   6.380   6.150   0.073
 5086TIP3   OH236820   3.489   4.777   1.325
 5086TIP3    H136821   3.440   4.754   1.404
 5086TIP3    H236822   3.474   4.704   1.265
 5087TIP3   OH236823   5.549   4.062   8.230
 5087TIP3    H136824   5.586   4.052   8.142
 5087TIP3    H236825   5.591   4.140   8.265
 5088TIP3   OH236826   6.763   2.104   2.212
 5088TIP3    H136827   6.745   2.196   2.230
 5088TIP3    H236828   6.804   2.071   2.291
 5089TIP3   OH236829   1.168   5.893   6.744
 5089TIP3    H136830   1.129   5.980   6.742
 5089TIP3    H236831   1.149   5.856   6.658
 5090TIP3   OH236832   3.238   5.479   1.647
 5090TIP3    H136833   3.296   5.403   1.659
 5090TIP3    H236834   3.235   5.521   1.732
 5091TIP3   OH236835   6.034   2.473   8.280
 5091TIP3    H136836   6.117   2.470   8.233
 5091TIP3    H236837   6.043   2.546   8.341
 5092TIP3   OH236838   3.717   1.607   1.590
 5092TIP3    H136839   3.771   1.686   1.600
 5092TIP3    H236840   3.765   1.539   1.637
 5093TIP3   OH236841   4.496   6.524   0.122
 5093TIP3    H136842   4.449   6.498   0.200
 5093TIP3    H236843   4.583   6.551   0.153
 5094TIP3   OH236844   5.494   4.388   6.981
 5094TIP3    H136845   5.512   4.438   7.061
 5094TIP3    H236846   5.480   4.455   6.914
 5095TIP3   OH236847   1.118   0.458   2.088
 5095TIP3    H136848   1.155   0.381   2.045
 5095TIP3    H236849   1.025   0.454   2.067
 5096TIP3   OH236850   3.985   4.115   7.540
 5096TIP3    H136851   3.899   4.140   7.508
 5096TIP3    H236852   3.968   4.075   7.626
 5097TIP3   OH236853   0.456   0.932   7.111
 5097TIP3    H136854   0.546   0.907   7.091
 5097TIP3    H236855   0.441   1.012   7.060
 5098TIP3   OH236856   3.395   3.576   1.854
 5098TIP3    H136857   3.455   3.604   1.785
 5098TIP3    H236858   3.437   3.605   1.935
 5099TIP3   OH236859   0.169   2.228   1.589
 5099TIP3    H136860   0.151   2.308   1.637
 5099TIP3    H236861   0.222   2.175   1.649
 5100TIP3   OH236862   2.731   2.303   7.624
 5100TIP3    H136863   2.716   2.351   7.543
 5100TIP3    H236864   2.826   2.305   7.636
 5101TIP3   OH236865   1.604   2.571   0.287
 5101TIP3    H136866   1.663   2.642   0.265
 5101TIP3    H236867   1.649   2.524   0.358
 5102TIP3   OH236868   2.079   1.122   7.966
 5102TIP3    H136869   2.020   1.060   8.008
 5102TIP3    H236870   2.045   1.208   7.991
 5103TIP3   OH236871   6.373   3.225   0.765
 5103TIP3    H136872   6.321   3.151   0.798
 5103TIP3    H236873   6.422   3.256   0.841
 5104TIP3   OH236874   3.430   4.415   0.043
 5104TIP3    H136875   3.454   4.505   0.063
 5104TIP3    H236876   3.453   4.404  -0.049
 5105TIP3   OH236877   3.813   2.725   8.028
 5105TIP3    H136878   3.770   2.706   8.112
 5105TIP3    H236879   3.906   2.712   8.045
 5106TIP3   OH236880   6.770   1.672   1.196
 5106TIP3    H136881   6.759   1.592   1.145
 5106TIP3    H236882   6.841   1.652   1.257
 5107TIP3   OH236883   3.217   1.087   6.772
 5107TIP3    H136884   3.189   1.151   6.706
 5107TIP3    H236885   3.139   1.034   6.788
 5108TIP3   OH236886   4.455   4.496   7.186
 5108TIP3    H136887   4.472   4.490   7.092
 5108TIP3    H236888   4.395   4.424   7.204
 5109TIP3   OH236889   0.534   2.779   0.739
 5109TIP3    H136890   0.514   2.814   0.826
 5109TIP3    H236891   0.556   2.856   0.687
 5110TIP3   OH236892   1.939   1.686   6.475
 5110TIP3    H136893   1.989   1.682   6.393
 5110TIP3    H236894   1.984   1.752   6.527
 5111TIP3   OH236895   2.892   5.389   0.489
 5111TIP3    H136896   2.953   5.320   0.463
 5111TIP3    H236897   2.811   5.369   0.442
 5112TIP3   OH236898   2.115   4.434   1.360
 5112TIP3    H136899   2.039   4.377   1.358
 5112TIP3    H236900   2.089   4.507   1.416
 5113TIP3   OH236901   4.700   2.615   1.500
 5113TIP3    H136902   4.726   2.590   1.588
 5113TIP3    H236903   4.665   2.704   1.510
 5114TIP3   OH236904   0.213   6.885   6.662
 5114TIP3    H136905   0.280   6.953   6.649
 5114TIP3    H236906   0.161   6.886   6.581
 5115TIP3   OH236907   0.828   1.518   8.326
 5115TIP3    H136908   0.827   1.519   8.422
 5115TIP3    H236909   0.807   1.428   8.303
 5116TIP3   OH236910   0.681   2.212   7.364
 5116TIP3    H136911   0.690   2.299   7.324
 5116TIP3    H236912   0.619   2.225   7.436
 5117TIP3   OH236913   2.316   6.760   0.739
 5117TIP3    H136914   2.402   6.800   0.752
 5117TIP3    H236915   2.255   6.818   0.785
 5118TIP3   OH236916   2.089   3.299   8.104
 5118TIP3    H136917   2.044   3.328   8.024
 5118TIP3    H236918   2.121   3.211   8.082
 5119TIP3   OH236919   4.253   5.040   8.391
 5119TIP3    H136920   4.166   5.067   8.361
 5119TIP3    H236921   4.302   5.122   8.399
 5120TIP3   OH236922   3.125   2.875   6.335
 5120TIP3    H136923   3.153   2.879   6.244
 5120TIP3    H236924   3.195   2.828   6.380
 5121TIP3   OH236925   0.019   1.002   1.494
 5121TIP3    H136926   0.070   1.023   1.415
 5121TIP3    H236927   0.042   0.911   1.514
 5122TIP3   OH236928   6.822   6.161   1.043
 5122TIP3    H136929   6.828   6.208   1.126
 5122TIP3    H236930   6.853   6.224   0.978
 5123TIP3   OH236931   3.011   6.617   1.375
 5123TIP3    H136932   2.949   6.590   1.442
 5123TIP3    H236933   2.984   6.707   1.353
 5124TIP3   OH236934   1.258   3.109   7.984
 5124TIP3    H136935   1.270   3.035   7.924
 5124TIP3    H236936   1.291   3.078   8.068
 5125TIP3   OH236937   3.490   0.358   0.032
 5125TIP3    H136938   3.457   0.441   0.067
 5125TIP3    H236939   3.448   0.350  -0.054
 5126TIP3   OH236940   4.404   2.013   6.249
 5126TIP3    H136941   4.314   2.001   6.218
 5126TIP3    H236942   4.447   1.929   6.234
 5127TIP3   OH236943   2.223   4.979   0.140
 5127TIP3    H136944   2.249   5.049   0.080
 5127TIP3    H236945   2.244   5.014   0.227
 5128TIP3   OH236946   1.672   1.078   6.073
 5128TIP3    H136947   1.699   1.170   6.079
 5128TIP3    H236948   1.741   1.036   6.022
 5129TIP3   OH236949   5.759   5.912   0.094
 5129TIP3    H136950   5.717   5.826   0.104
 5129TIP3    H236951   5.785   5.937   0.182
 5130TIP3   OH236952   1.769   0.623   8.076
 5130TIP3    H136953   1.722   0.671   8.009
 5130TIP3    H236954   1.834   0.572   8.027
 5131TIP3   OH236955   0.809   5.582   5.907
 5131TIP3    H136956   0.894   5.541   5.921
 5131TIP3    H236957   0.763   5.523   5.848
 5132TIP3   OH236958   1.459   0.616   0.708
 5132TIP3    H136959   1.455   0.578   0.796
 5132TIP3    H236960   1.465   0.541   0.649
 5133TIP3   OH236961   4.884   2.679   6.189
 5133TIP3    H136962   4.940   2.736   6.136
 5133TIP3    H236963   4.946   2.632   6.245
 5134TIP3   OH236964   1.003   5.269   7.188
 5134TIP3    H136965   1.073   5.333   7.202
 5134TIP3    H236966   1.038   5.187   7.224
 5135TIP3   OH236967   1.032   5.700   2.121
 5135TIP3    H136968   1.122   5.699   2.090
 5135TIP3    H236969   1.027   5.626   2.183
 5136TIP3   OH236970   1.241   2.155   7.917
 5136TIP3    H136971   1.320   2.172   7.967
 5136TIP3    H236972   1.272   2.143   7.827
 5137TIP3   OH236973   4.227   4.055   1.019
 5137TIP3    H136974   4.191   4.107   0.947
 5137TIP3    H236975   4.322   4.070   1.014
 5138TIP3   OH236976   1.456   0.604   7.305
 5138TIP3    H136977   1.489   0.525   7.262
 5138TIP3    H236978   1.362   0.604   7.287
 5139TIP3   OH236979   6.088   3.351   7.593
 5139TIP3    H136980   6.183   3.339   7.598
 5139TIP3    H236981   6.052   3.272   7.633
 5140TIP3   OH236982   0.140   5.370   0.844
 5140TIP3    H136983   0.073   5.341   0.905
 5140TIP3    H236984   0.093   5.385   0.762
 5141TIP3   OH236985   4.052   2.678   7.232
 5141TIP3    H136986   4.065   2.683   7.327
 5141TIP3    H236987   4.030   2.587   7.215
 5142TIP3   OH236988   0.660   1.110   1.425
 5142TIP3    H136989   0.566   1.125   1.439
 5142TIP3    H236990   0.692   1.083   1.511
 5143TIP3   OH236991   4.395   5.198   6.942
 5143TIP3    H136992   4.406   5.164   6.853
 5143TIP3    H236993   4.344   5.278   6.930
 5144TIP3   OH236994   1.347   1.209   0.883
 5144TIP3    H136995   1.405   1.155   0.936
 5144TIP3    H236996   1.259   1.175   0.902
 5145TIP3   OH236997   0.691   3.567   6.449
 5145TIP3    H136998   0.698   3.657   6.480
 5145TIP3    H236999   0.742   3.564   6.369
 5146TIP3   OH237000   5.762   1.793   6.905
 5146TIP3    H137001   5.671   1.796   6.877
 5146TIP3    H237002   5.811   1.774   6.826
 5147TIP3   OH237003   0.498   5.205   7.537
 5147TIP3    H137004   0.534   5.294   7.534
 5147TIP3    H237005   0.410   5.214   7.502
 5148TIP3   OH237006   4.538   5.097   2.112
 5148TIP3    H137007   4.566   5.168   2.053
 5148TIP3    H237008   4.595   5.105   2.188
 5149TIP3   OH237009   3.206   4.529   7.929
 5149TIP3    H137010   3.201   4.580   8.010
 5149TIP3    H237011   3.179   4.441   7.954
 5150TIP3   OH237012   5.564   4.798   1.597
 5150TIP3    H137013   5.558   4.798   1.692
 5150TIP3    H237014   5.543   4.708   1.572
 5151TIP3   OH237015   5.219   4.594   1.830
 5151TIP3    H137016   5.250   4.565   1.915
 5151TIP3    H237017   5.276   4.668   1.807
 5152TIP3   OH237018   3.844   3.266   0.678
 5152TIP3    H137019   3.862   3.275   0.585
 5152TIP3    H237020   3.792   3.343   0.701
 5153TIP3   OH237021   3.896   6.533   6.476
 5153TIP3    H137022   3.958   6.489   6.534
 5153TIP3    H237023   3.898   6.625   6.505
 5154TIP3   OH237024   4.459   0.963   6.948
 5154TIP3    H137025   4.407   0.891   6.912
 5154TIP3    H237026   4.508   0.923   7.021
 5155TIP3   OH237027   1.765   4.654   7.393
 5155TIP3    H137028   1.750   4.703   7.313
 5155TIP3    H237029   1.725   4.569   7.377
 5156TIP3   OH237030   1.079   6.199   0.684
 5156TIP3    H137031   1.139   6.255   0.634
 5156TIP3    H237032   0.993   6.216   0.646
 5157TIP3   OH237033   3.442   1.602   1.608
 5157TIP3    H137034   3.417   1.595   1.701
 5157TIP3    H237035   3.535   1.624   1.610
 5158TIP3   OH237036   3.150   3.899   0.536
 5158TIP3    H137037   3.239   3.880   0.507
 5158TIP3    H237038   3.133   3.989   0.506
 5159TIP3   OH237039   2.295   2.496   1.377
 5159TIP3    H137040   2.304   2.402   1.361
 5159TIP3    H237041   2.201   2.512   1.367
 5160TIP3   OH237042   2.637   6.001   1.128
 5160TIP3    H137043   2.551   5.960   1.142
 5160TIP3    H237044   2.653   5.991   1.034
 5161TIP3   OH237045   2.576   3.583   6.858
 5161TIP3    H137046   2.655   3.578   6.912
 5161TIP3    H237047   2.603   3.548   6.773
 5162TIP3   OH237048   6.448   0.128   1.315
 5162TIP3    H137049   6.411   0.155   1.231
 5162TIP3    H237050   6.480   0.040   1.300
 5163TIP3   OH237051   1.509   7.001   0.873
 5163TIP3    H137052   1.457   6.971   0.948
 5163TIP3    H237053   1.599   6.998   0.905
 5164TIP3   OH237054   5.633   5.755   1.418
 5164TIP3    H137055   5.543   5.767   1.389
 5164TIP3    H237056   5.658   5.668   1.387
 5165TIP3   OH237057   5.661   1.312   7.423
 5165TIP3    H137058   5.638   1.224   7.395
 5165TIP3    H237059   5.583   1.364   7.406
 5166TIP3   OH237060   2.248   1.140   7.236
 5166TIP3    H137061   2.329   1.103   7.203
 5166TIP3    H237062   2.180   1.078   7.211
 5167TIP3   OH237063   5.992   6.223   7.986
 5167TIP3    H137064   6.009   6.200   7.895
 5167TIP3    H237065   5.897   6.237   7.991
 5168TIP3   OH237066   6.389   0.258   0.763
 5168TIP3    H137067   6.345   0.224   0.685
 5168TIP3    H237068   6.407   0.350   0.743
 5169TIP3   OH237069   5.089   0.781   0.373
 5169TIP3    H137070   5.057   0.703   0.329
 5169TIP3    H237071   5.038   0.853   0.334
 5170TIP3   OH237072   6.201   2.066   0.529
 5170TIP3    H137073   6.186   1.972   0.529
 5170TIP3    H237074   6.284   2.077   0.483
 5171TIP3   OH237075   6.352   3.424   0.385
 5171TIP3    H137076   6.413   3.411   0.458
 5171TIP3    H237077   6.390   3.496   0.335
 5172TIP3   OH237078   4.869   0.171   0.839
 5172TIP3    H137079   4.790   0.120   0.822
 5172TIP3    H237080   4.905   0.190   0.753
 5173TIP3   OH237081   1.030   2.620   0.524
 5173TIP3    H137082   0.944   2.598   0.562
 5173TIP3    H237083   1.093   2.574   0.580
 5174TIP3   OH237084   4.324   4.440   6.640
 5174TIP3    H137085   4.273   4.392   6.575
 5174TIP3    H237086   4.330   4.529   6.604
 5175TIP3   OH237087   3.473   4.125   0.820
 5175TIP3    H137088   3.471   4.030   0.803
 5175TIP3    H237089   3.548   4.137   0.879
 5176TIP3   OH237090   6.677   6.749   7.073
 5176TIP3    H137091   6.674   6.799   7.155
 5176TIP3    H237092   6.770   6.739   7.055
 5177TIP3   OH237093   3.488   1.188   8.066
 5177TIP3    H137094   3.401   1.176   8.104
 5177TIP3    H237095   3.481   1.154   7.977
 5178TIP3   OH237096   2.950   3.704   0.439
 5178TIP3    H137097   2.983   3.772   0.379
 5178TIP3    H237098   3.028   3.659   0.470
 5179TIP3   OH237099   1.203   3.109   6.639
 5179TIP3    H137100   1.184   3.030   6.589
 5179TIP3    H237101   1.162   3.179   6.588
 5180TIP3   OH237102   6.385   3.825   0.527
 5180TIP3    H137103   6.446   3.853   0.459
 5180TIP3    H237104   6.314   3.781   0.479
 5181TIP3   OH237105   5.922   5.557   8.374
 5181TIP3    H137106   5.932   5.554   8.279
 5181TIP3    H237107   5.865   5.633   8.389
 5182TIP3   OH237108   2.131   2.220   7.111
 5182TIP3    H137109   2.091   2.165   7.044
 5182TIP3    H237110   2.134   2.165   7.189
 5183TIP3   OH237111   3.496   2.799   7.582
 5183TIP3    H137112   3.437   2.810   7.656
 5183TIP3    H237113   3.555   2.875   7.586
 5184TIP3   OH237114   5.756   5.124   8.386
 5184TIP3    H137115   5.777   5.036   8.356
 5184TIP3    H237116   5.787   5.181   8.315
 5185TIP3   OH237117   4.379   1.981   6.781
 5185TIP3    H137118   4.285   1.967   6.771
 5185TIP3    H237119   4.419   1.923   6.716
 5186TIP3   OH237120   3.460   3.045   7.084
 5186TIP3    H137121   3.406   2.993   7.024
 5186TIP3    H237122   3.497   2.980   7.144
 5187TIP3   OH237123   4.928   5.739   6.822
 5187TIP3    H137124   4.923   5.828   6.857
 5187TIP3    H237125   4.990   5.745   6.749
 5188TIP3   OH237126   6.456   2.106   0.441
 5188TIP3    H137127   6.519   2.036   0.460
 5188TIP3    H237128   6.478   2.175   0.503
 5189TIP3   OH237129   2.330   5.982   7.795
 5189TIP3    H137130   2.349   5.977   7.701
 5189TIP3    H237131   2.337   6.075   7.815
 5190TIP3   OH237132   0.525   4.500   6.741
 5190TIP3    H137133   0.462   4.429   6.735
 5190TIP3    H237134   0.531   4.519   6.835
 5191TIP3   OH237135   0.816   2.199   6.455
 5191TIP3    H137136   0.786   2.109   6.467
 5191TIP3    H237137   0.848   2.202   6.365
 5192TIP3   OH237138   2.760   3.549   7.795
 5192TIP3    H137139   2.716   3.571   7.877
 5192TIP3    H237140   2.774   3.454   7.800
 5193TIP3   OH237141   0.612   4.106   1.140
 5193TIP3    H137142   0.654   4.034   1.188
 5193TIP3    H237143   0.682   4.169   1.125
 5194TIP3   OH237144   3.813   0.375   0.751
 5194TIP3    H137145   3.859   0.394   0.833
 5194TIP3    H237146   3.764   0.455   0.732
 5195TIP3   OH237147   1.436   4.666   6.498
 5195TIP3    H137148   1.529   4.643   6.509
 5195TIP3    H237149   1.402   4.671   6.587
 5196TIP3   OH237150   3.478   2.977   0.060
 5196TIP3    H137151   3.480   2.958   0.154
 5196TIP3    H237152   3.404   3.037   0.050
 5197TIP3   OH237153   6.930   3.247   1.709
 5197TIP3    H137154   6.853   3.236   1.653
 5197TIP3    H237155   6.894   3.274   1.793
 5198TIP3   OH237156   1.978   5.060   1.184
 5198TIP3    H137157   2.057   5.075   1.131
 5198TIP3    H237158   1.995   5.106   1.266
 5199TIP3   OH237159   2.801   5.723   0.219
 5199TIP3    H137160   2.731   5.782   0.190
 5199TIP3    H237161   2.783   5.708   0.311
 5200TIP3   OH237162   6.203   4.970   7.221
 5200TIP3    H137163   6.151   4.896   7.252
 5200TIP3    H237164   6.234   5.012   7.301
 5201TIP3   OH237165   5.033   3.721   1.944
 5201TIP3    H137166   5.012   3.741   1.853
 5201TIP3    H237167   5.018   3.626   1.952
 5202TIP3   OH237168   1.579   2.649   0.651
 5202TIP3    H137169   1.483   2.644   0.652
 5202TIP3    H237170   1.606   2.585   0.586
 5203TIP3   OH237171   4.454   4.717   8.046
 5203TIP3    H137172   4.515   4.651   8.079
 5203TIP3    H237173   4.438   4.773   8.122
 5204TIP3   OH237174   1.828   4.955   2.060
 5204TIP3    H137175   1.847   4.866   2.090
 5204TIP3    H237176   1.804   5.002   2.140
 5205TIP3   OH237177   6.568   3.474   6.973
 5205TIP3    H137178   6.511   3.472   7.050
 5205TIP3    H237179   6.569   3.566   6.947
 5206TIP3   OH237180   1.063   1.130   0.877
 5206TIP3    H137181   1.066   1.047   0.925
 5206TIP3    H237182   1.008   1.187   0.931
 5207TIP3   OH237183   0.448   3.314   0.254
 5207TIP3    H137184   0.425   3.406   0.258
 5207TIP3    H237185   0.510   3.308   0.181
 5208TIP3   OH237186   3.905   3.996   8.272
 5208TIP3    H137187   3.890   4.080   8.230
 5208TIP3    H237188   3.996   3.974   8.251
 5209TIP3   OH237189   4.999   5.499   6.108
 5209TIP3    H137190   4.903   5.489   6.106
 5209TIP3    H237191   5.032   5.423   6.062
 5210TIP3   OH237192   1.325   0.796   1.022
 5210TIP3    H137193   1.236   0.829   1.008
 5210TIP3    H237194   1.374   0.871   1.056
 5211TIP3   OH237195   4.676   0.526   6.901
 5211TIP3    H137196   4.703   0.558   6.815
 5211TIP3    H237197   4.733   0.572   6.962
 5212TIP3   OH237198   6.211   2.598   1.588
 5212TIP3    H137199   6.304   2.588   1.569
 5212TIP3    H237200   6.196   2.543   1.665
 5213TIP3   OH237201   5.467   1.787   1.420
 5213TIP3    H137202   5.436   1.796   1.510
 5213TIP3    H237203   5.391   1.755   1.371
 5214TIP3   OH237204   5.021   0.662   2.141
 5214TIP3    H137205   4.950   0.637   2.200
 5214TIP3    H237206   5.015   0.599   2.069
 5215TIP3   OH237207   0.171   1.487   8.335
 5215TIP3    H137208   0.226   1.531   8.400
 5215TIP3    H237209   0.229   1.473   8.260
 5216TIP3   OH237210   6.395   1.429   8.049
 5216TIP3    H137211   6.416   1.381   7.968
 5216TIP3    H237212   6.329   1.375   8.092
 5217TIP3   OH237213   6.912   3.943   6.902
 5217TIP3    H137214   6.970   3.867   6.902
 5217TIP3    H237215   6.890   3.957   6.994
 5218TIP3   OH237216   3.197   4.821   8.053
 5218TIP3    H137217   3.285   4.851   8.031
 5218TIP3    H237218   3.138   4.880   8.007
 5219TIP3   OH237219   2.143   0.961   0.654
 5219TIP3    H137220   2.220   1.000   0.695
 5219TIP3    H237221   2.071   0.981   0.713
 5220TIP3   OH237222   3.431   6.605   0.757
 5220TIP3    H137223   3.497   6.667   0.728
 5220TIP3    H237224   3.479   6.523   0.771
 5221TIP3   OH237225   6.292   5.236   0.808
 5221TIP3    H137226   6.313   5.196   0.892
 5221TIP3    H237227   6.363   5.298   0.792
 5222TIP3   OH237228   0.743   0.019   8.307
 5222TIP3    H137229   0.774  -0.068   8.282
 5222TIP3    H237230   0.805   0.049   8.373
 5223TIP3   OH237231   2.129   4.062   7.217
 5223TIP3    H137232   2.100   4.140   7.170
 5223TIP3    H237233   2.065   3.995   7.196
 5224TIP3   OH237234   4.441   0.701   6.820
 5224TIP3    H137235   4.529   0.720   6.851
 5224TIP3    H237236   4.418   0.618   6.861
 5225TIP3   OH237237   1.316   2.880   1.309
 5225TIP3    H137238   1.355   2.801   1.348
 5225TIP3    H237239   1.362   2.891   1.226
 5226TIP3   OH237240   1.589   3.628   0.007
 5226TIP3    H137241   1.646   3.627   0.084
 5226TIP3    H237242   1.568   3.720  -0.006
 5227TIP3   OH237243   3.175   4.847   0.682
 5227TIP3    H137244   3.109   4.783   0.710
 5227TIP3    H237245   3.156   4.862   0.590
 5228TIP3   OH237246   2.019   3.524   1.189
 5228TIP3    H137247   2.096   3.549   1.139
 5228TIP3    H237248   1.986   3.607   1.225
 5229TIP3   OH237249   5.585   1.130   5.983
 5229TIP3    H137250   5.639   1.145   5.906
 5229TIP3    H237251   5.539   1.048   5.965
 5230TIP3   OH237252   0.574   4.401   0.836
 5230TIP3    H137253   0.607   4.398   0.746
 5230TIP3    H237254   0.490   4.355   0.833
 5231TIP3   OH237255   6.954   3.171   1.248
 5231TIP3    H137256   7.003   3.109   1.301
 5231TIP3    H237257   7.015   3.242   1.231
 5232TIP3   OH237258   2.491   6.482   0.879
 5232TIP3    H137259   2.428   6.549   0.852
 5232TIP3    H237260   2.473   6.469   0.972
 5233TIP3   OH237261   2.149   1.436   1.545
 5233TIP3    H137262   2.201   1.368   1.587
 5233TIP3    H237263   2.144   1.506   1.611
 5234TIP3   OH237264   5.171   3.966   0.476
 5234TIP3    H137265   5.252   3.955   0.525
 5234TIP3    H237266   5.190   4.034   0.412
 5235TIP3   OH237267   0.120   5.378   6.911
 5235TIP3    H137268   0.139   5.380   7.005
 5235TIP3    H237269   0.179   5.310   6.876
 5236TIP3   OH237270   5.388   6.232   0.952
 5236TIP3    H137271   5.355   6.149   0.918
 5236TIP3    H237272   5.401   6.286   0.874
 5237TIP3   OH237273   0.710   3.784   0.661
 5237TIP3    H137274   0.770   3.788   0.587
 5237TIP3    H237275   0.709   3.691   0.685
 5238TIP3   OH237276   5.484   0.853   2.202
 5238TIP3    H137277   5.503   0.763   2.177
 5238TIP3    H237278   5.390   0.854   2.218
 5239TIP3   OH237279   0.792   1.047   7.736
 5239TIP3    H137280   0.767   1.030   7.645
 5239TIP3    H237281   0.880   1.083   7.730
 5240TIP3   OH237282   4.177   2.628   2.429
 5240TIP3    H137283   4.111   2.679   2.476
 5240TIP3    H237284   4.157   2.537   2.450
 5241TIP3   OH237285   0.681   2.186   1.983
 5241TIP3    H137286   0.762   2.157   2.025
 5241TIP3    H237287   0.674   2.131   1.905
 5242TIP3   OH237288   0.507   3.835   6.799
 5242TIP3    H137289   0.593   3.804   6.769
 5242TIP3    H237290   0.493   3.917   6.750
 5243TIP3   OH237291   4.563   0.385   1.578
 5243TIP3    H137292   4.560   0.418   1.667
 5243TIP3    H237293   4.657   0.372   1.560
 5244TIP3   OH237294   2.419   5.808   6.536
 5244TIP3    H137295   2.488   5.745   6.517
 5244TIP3    H237296   2.397   5.848   6.452
 5245TIP3   OH237297   6.187   4.987   6.692
 5245TIP3    H137298   6.116   5.050   6.687
 5245TIP3    H237299   6.222   4.996   6.781
 5246TIP3   OH237300   6.206   3.966   7.935
 5246TIP3    H137301   6.129   3.976   7.878
 5246TIP3    H237302   6.268   4.031   7.903
 5247TIP3   OH237303   5.771   2.390   1.118
 5247TIP3    H137304   5.715   2.468   1.122
 5247TIP3    H237305   5.774   2.368   1.025
 5248TIP3   OH237306   2.734   3.671   1.273
 5248TIP3    H137307   2.818   3.651   1.314
 5248TIP3    H237308   2.737   3.626   1.189
 5249TIP3   OH237309   1.657   5.359   6.215
 5249TIP3    H137310   1.672   5.292   6.282
 5249TIP3    H237311   1.744   5.384   6.185
 5250TIP3   OH237312   5.327   3.052   7.019
 5250TIP3    H137313   5.363   3.068   6.932
 5250TIP3    H237314   5.278   3.131   7.040
 5251TIP3   OH237315   0.911   6.852   7.022
 5251TIP3    H137316   0.844   6.919   7.005
 5251TIP3    H237317   0.993   6.901   7.023
 5252TIP3   OH237318   4.971   2.885   0.319
 5252TIP3    H137319   4.911   2.939   0.370
 5252TIP3    H237320   5.016   2.947   0.261
 5253TIP3   OH237321   1.662   1.216   1.306
 5253TIP3    H137322   1.685   1.133   1.265
 5253TIP3    H237323   1.711   1.281   1.255
 5254TIP3   OH237324   0.488   2.764   6.893
 5254TIP3    H137325   0.583   2.755   6.884
 5254TIP3    H237326   0.454   2.739   6.807
 5255TIP3   OH237327   6.168   0.449   0.609
 5255TIP3    H137328   6.138   0.539   0.622
 5255TIP3    H237329   6.234   0.456   0.539
 5256TIP3   OH237330   3.506   1.076   7.294
 5256TIP3    H137331   3.560   1.118   7.361
 5256TIP3    H237332   3.563   1.066   7.219
 5257TIP3   OH237333   5.888   4.870   7.283
 5257TIP3    H137334   5.966   4.815   7.288
 5257TIP3    H237335   5.826   4.830   7.344
 5258TIP3   OH237336   5.043   5.470   6.374
 5258TIP3    H137337   5.129   5.485   6.412
 5258TIP3    H237338   5.050   5.507   6.285
 5259TIP3   OH237339   5.204   1.161   8.329
 5259TIP3    H137340   5.224   1.108   8.406
 5259TIP3    H237341   5.289   1.197   8.302
 5260TIP3   OH237342   2.709   1.744   8.003
 5260TIP3    H137343   2.766   1.683   7.958
 5260TIP3    H237344   2.653   1.689   8.058
 5261TIP3   OH237345   0.357   4.623   7.260
 5261TIP3    H137346   0.429   4.682   7.239
 5261TIP3    H237347   0.285   4.652   7.204
 5262TIP3   OH237348   6.855   5.848   0.366
 5262TIP3    H137349   6.814   5.824   0.283
 5262TIP3    H237350   6.815   5.932   0.389
 5263TIP3   OH237351   4.764   4.408   8.351
 5263TIP3    H137352   4.820   4.464   8.404
 5263TIP3    H237353   4.816   4.329   8.336
 5264TIP3   OH237354   6.681   1.460   1.473
 5264TIP3    H137355   6.744   1.398   1.512
 5264TIP3    H237356   6.704   1.544   1.513
 5265TIP3   OH237357   2.507   4.047   6.287
 5265TIP3    H137358   2.486   4.081   6.374
 5265TIP3    H237359   2.558   4.117   6.246
 5266TIP3   OH237360   4.031   0.340   7.142
 5266TIP3    H137361   3.997   0.278   7.077
 5266TIP3    H237362   4.016   0.426   7.103
 5267TIP3   OH237363   3.717   2.756   7.099
 5267TIP3    H137364   3.784   2.699   7.060
 5267TIP3    H237365   3.756   2.843   7.098
 5268TIP3   OH237366   6.878   4.719   8.014
 5268TIP3    H137367   6.918   4.633   8.025
 5268TIP3    H237368   6.903   4.768   8.093
 5269TIP3   OH237369   3.568   1.358   1.185
 5269TIP3    H137370   3.482   1.399   1.185
 5269TIP3    H237371   3.581   1.329   1.275
 5270TIP3   OH237372   3.867   5.088   7.141
 5270TIP3    H137373   3.776   5.087   7.172
 5270TIP3    H237374   3.881   5.003   7.101
 5271TIP3   OH237375   3.717   5.623   7.049
 5271TIP3    H137376   3.792   5.656   6.999
 5271TIP3    H237377   3.747   5.624   7.140
 5272TIP3   OH237378   6.962   6.930   2.260
 5272TIP3    H137379   6.899   6.862   2.281
 5272TIP3    H237380   6.952   6.944   2.165
 5273TIP3   OH237381   3.053   5.231   6.946
 5273TIP3    H137382   3.107   5.253   6.870
 5273TIP3    H237383   3.086   5.145   6.974
 5274TIP3   OH237384   2.447   4.672   7.935
 5274TIP3    H137385   2.381   4.740   7.944
 5274TIP3    H237386   2.460   4.640   8.025
 5275TIP3   OH237387   3.654   4.711   1.800
 5275TIP3    H137388   3.564   4.734   1.822
 5275TIP3    H237389   3.705   4.731   1.878
 5276TIP3   OH237390   6.853   6.473   7.964
 5276TIP3    H137391   6.823   6.383   7.959
 5276TIP3    H237392   6.882   6.494   7.876
 5277TIP3   OH237393   2.634   6.382   7.513
 5277TIP3    H137394   2.677   6.296   7.513
 5277TIP3    H237395   2.669   6.426   7.590
 5278TIP3   OH237396   4.037   3.508   8.304
 5278TIP3    H137397   4.075   3.423   8.283
 5278TIP3    H237398   3.988   3.493   8.385
 5279TIP3   OH237399   6.469   0.376   1.465
 5279TIP3    H137400   6.407   0.438   1.426
 5279TIP3    H237401   6.454   0.294   1.418
 5280TIP3   OH237402   3.872   5.586   0.538
 5280TIP3    H137403   3.943   5.581   0.474
 5280TIP3    H237404   3.797   5.616   0.487
 5281TIP3   OH237405   1.047   2.601   7.720
 5281TIP3    H137406   1.079   2.551   7.795
 5281TIP3    H237407   1.052   2.692   7.749
 5282TIP3   OH237408   6.371   5.001   1.791
 5282TIP3    H137409   6.389   5.084   1.836
 5282TIP3    H237410   6.361   4.937   1.862
 5283TIP3   OH237411   1.801   1.629   6.187
 5283TIP3    H137412   1.736   1.686   6.228
 5283TIP3    H237413   1.885   1.665   6.214
 5284TIP3   OH237414   5.203   3.110   1.740
 5284TIP3    H137415   5.172   3.134   1.828
 5284TIP3    H237416   5.255   3.185   1.712
 5285TIP3   OH237417   2.187   2.171   0.474
 5285TIP3    H137418   2.150   2.218   0.549
 5285TIP3    H237419   2.191   2.237   0.404
 5286TIP3   OH237420   4.110   3.141   8.016
 5286TIP3    H137421   4.133   3.207   7.951
 5286TIP3    H237422   4.162   3.064   7.992
 5287TIP3   OH237423   4.319   2.686   2.208
 5287TIP3    H137424   4.279   2.653   2.289
 5287TIP3    H237425   4.337   2.608   2.156
 5288TIP3   OH237426   1.816   0.401   0.828
 5288TIP3    H137427   1.823   0.306   0.834
 5288TIP3    H237428   1.799   0.418   0.735
 5289TIP3   OH237429   2.122   6.148   0.607
 5289TIP3    H137430   2.115   6.175   0.515
 5289TIP3    H237431   2.039   6.105   0.626
 5290TIP3   OH237432   6.905   1.556   1.867
 5290TIP3    H137433   6.965   1.562   1.941
 5290TIP3    H237434   6.879   1.464   1.865
 5291TIP3   OH237435   1.961   0.044   6.978
 5291TIP3    H137436   1.960   0.002   7.064
 5291TIP3    H237437   2.046   0.022   6.941
 5292TIP3   OH237438   4.565   6.492   8.001
 5292TIP3    H137439   4.527   6.533   8.078
 5292TIP3    H237440   4.513   6.526   7.928
 5293TIP3   OH237441   4.146   6.833   2.253
 5293TIP3    H137442   4.117   6.743   2.263
 5293TIP3    H237443   4.205   6.847   2.327
 5294TIP3   OH237444   3.559   1.628   0.991
 5294TIP3    H137445   3.584   1.616   1.082
 5294TIP3    H237446   3.585   1.547   0.948
 5295TIP3   OH237447   2.985   0.946   6.799
 5295TIP3    H137448   2.923   1.004   6.842
 5295TIP3    H237449   2.936   0.865   6.782
 5296TIP3   OH237450   1.159   6.090   1.453
 5296TIP3    H137451   1.077   6.041   1.443
 5296TIP3    H237452   1.222   6.025   1.485
 5297TIP3   OH237453   0.816   4.803   8.158
 5297TIP3    H137454   0.861   4.805   8.243
 5297TIP3    H237455   0.870   4.858   8.102
 5298TIP3   OH237456   1.971   2.580   6.496
 5298TIP3    H137457   2.058   2.606   6.527
 5298TIP3    H237458   1.926   2.549   6.575
 5299TIP3   OH237459   2.072   0.364   7.535
 5299TIP3    H137460   2.088   0.452   7.501
 5299TIP3    H237461   1.977   0.353   7.528
 5300TIP3   OH237462   3.886   3.547   6.694
 5300TIP3    H137463   3.888   3.524   6.601
 5300TIP3    H237464   3.800   3.588   6.706
 5301TIP3   OH237465   5.287   2.849   7.336
 5301TIP3    H137466   5.208   2.843   7.283
 5301TIP3    H237467   5.331   2.765   7.322
 5302TIP3   OH237468   5.923   3.757   0.891
 5302TIP3    H137469   6.015   3.742   0.913
 5302TIP3    H237470   5.899   3.683   0.836
 5303TIP3   OH237471   1.437   0.961   7.548
 5303TIP3    H137472   1.435   1.050   7.513
 5303TIP3    H237473   1.491   0.912   7.485
 5304TIP3   OH237474   5.164   2.541   1.464
 5304TIP3    H137475   5.110   2.471   1.502
 5304TIP3    H237476   5.242   2.545   1.520
 5305TIP3   OH237477   0.750   1.741   7.995
 5305TIP3    H137478   0.841   1.716   7.977
 5305TIP3    H237479   0.708   1.739   7.909
 5306TIP3   OH237480   3.166   1.131   1.805
 5306TIP3    H137481   3.200   1.041   1.805
 5306TIP3    H237482   3.203   1.171   1.883
 5307TIP3   OH237483   4.336   4.019   1.722
 5307TIP3    H137484   4.281   4.031   1.799
 5307TIP3    H237485   4.274   4.003   1.650
 5308TIP3   OH237486   2.254   0.122   7.988
 5308TIP3    H137487   2.254   0.197   8.046
 5308TIP3    H237488   2.216   0.154   7.906
 5309TIP3   OH237489   4.542   4.835   7.384
 5309TIP3    H137490   4.534   4.802   7.474
 5309TIP3    H237491   4.455   4.870   7.364
 5310TIP3   OH237492   2.058   4.670   7.326
 5310TIP3    H137493   1.963   4.680   7.333
 5310TIP3    H237494   2.093   4.701   7.409
 5311TIP3   OH237495   3.611   2.376   1.078
 5311TIP3    H137496   3.518   2.397   1.083
 5311TIP3    H237497   3.614   2.283   1.059
 5312TIP3   OH237498   1.524   3.621   0.306
 5312TIP3    H137499   1.514   3.686   0.237
 5312TIP3    H237500   1.592   3.657   0.363
 5313TIP3   OH237501   1.957   4.890   8.402
 5313TIP3    H137502   2.033   4.863   8.350
 5313TIP3    H237503   1.898   4.815   8.399
 5314TIP3   OH237504   2.381   0.646   7.910
 5314TIP3    H137505   2.344   0.693   7.836
 5314TIP3    H237506   2.387   0.555   7.881
 5315TIP3   OH237507   3.658   6.287   0.578
 5315TIP3    H137508   3.690   6.204   0.544
 5315TIP3    H237509   3.607   6.263   0.656
 5316TIP3   OH237510   0.421   1.676   8.146
 5316TIP3    H137511   0.377   1.599   8.110
 5316TIP3    H237512   0.439   1.731   8.070
 5317TIP3   OH237513   4.872   3.756   7.907
 5317TIP3    H137514   4.821   3.716   7.977
 5317TIP3    H237515   4.963   3.734   7.927
 5318TIP3   OH237516   5.883   4.184   0.304
 5318TIP3    H137517   5.815   4.136   0.258
 5318TIP3    H237518   5.852   4.189   0.395
 5319TIP3   OH237519   6.661   0.208   0.166
 5319TIP3    H137520   6.629   0.128   0.125
 5319TIP3    H237521   6.722   0.245   0.102
 5320TIP3   OH237522   5.055   3.652   0.937
 5320TIP3    H137523   5.054   3.565   0.976
 5320TIP3    H237524   5.147   3.665   0.912
 5321TIP3   OH237525   0.880   4.940   0.486
 5321TIP3    H137526   0.796   4.979   0.512
 5321TIP3    H237527   0.941   5.013   0.488
 5322TIP3   OH237528   0.413   5.085   8.039
 5322TIP3    H137529   0.472   5.058   8.110
 5322TIP3    H237530   0.462   5.152   7.991
 5323TIP3   OH237531   3.694   5.997   0.488
 5323TIP3    H137532   3.782   5.982   0.524
 5323TIP3    H237533   3.645   5.918   0.512
 5324TIP3   OH237534   0.090   2.987   8.087
 5324TIP3    H137535   0.145   2.934   8.029
 5324TIP3    H237536   0.135   3.071   8.094
 5325TIP3   OH237537   2.479   0.901   7.789
 5325TIP3    H137538   2.537   0.977   7.795
 5325TIP3    H237539   2.421   0.909   7.865
 5326TIP3   OH237540   3.246   3.662   7.702
 5326TIP3    H137541   3.154   3.688   7.705
 5326TIP3    H237542   3.243   3.568   7.684
 5327TIP3   OH237543   0.503   3.682   8.149
 5327TIP3    H137544   0.574   3.714   8.203
 5327TIP3    H237545   0.464   3.761   8.110
 5328TIP3   OH237546   2.991   5.008   1.985
 5328TIP3    H137547   2.932   5.071   2.027
 5328TIP3    H237548   2.952   4.922   2.005
 5329TIP3   OH237549   4.093   5.509   0.374
 5329TIP3    H137550   4.086   5.584   0.315
 5329TIP3    H237551   4.178   5.520   0.417
 5330TIP3   OH237552   4.557   1.218   1.962
 5330TIP3    H137553   4.587   1.153   1.899
 5330TIP3    H237554   4.630   1.279   1.971
 5331TIP3   OH237555   3.481   3.835   1.819
 5331TIP3    H137556   3.420   3.856   1.748
 5331TIP3    H237557   3.429   3.842   1.898
 5332TIP3   OH237558   2.634   4.786   8.380
 5332TIP3    H137559   2.664   4.841   8.451
 5332TIP3    H237560   2.553   4.827   8.349
 5333TIP3   OH237561   6.563   2.330   0.553
 5333TIP3    H137562   6.623   2.393   0.590
 5333TIP3    H237563   6.479   2.376   0.550
 5334TIP3   OH237564   6.103   1.010   5.978
 5334TIP3    H137565   6.078   1.048   6.062
 5334TIP3    H237566   6.198   1.001   5.982
 5335TIP3   OH237567   6.060   4.413   8.040
 5335TIP3    H137568   6.040   4.439   7.950
 5335TIP3    H237569   5.991   4.454   8.092
 5336TIP3   OH237570   3.469   0.051   8.222
 5336TIP3    H137571   3.538   0.049   8.156
 5336TIP3    H237572   3.450  -0.041   8.240
 5337TIP3   OH237573   4.341   6.912   1.637
 5337TIP3    H137574   4.374   6.875   1.719
 5337TIP3    H237575   4.348   6.841   1.573
 5338TIP3   OH237576   1.772   6.246   1.126
 5338TIP3    H137577   1.681   6.244   1.097
 5338TIP3    H237578   1.823   6.253   1.045
 5339TIP3   OH237579   3.837   5.289   6.922
 5339TIP3    H137580   3.799   5.244   6.997
 5339TIP3    H237581   3.789   5.372   6.916
 5340TIP3   OH237582   3.171   0.808   8.335
 5340TIP3    H137583   3.236   0.865   8.377
 5340TIP3    H237584   3.102   0.867   8.307
 5341TIP3   OH237585   2.663   2.704   7.747
 5341TIP3    H137586   2.723   2.688   7.674
 5341TIP3    H237587   2.611   2.780   7.719
 5342TIP3   OH237588   2.349   2.473   0.439
 5342TIP3    H137589   2.366   2.437   0.352
 5342TIP3    H237590   2.255   2.491   0.440
 5343TIP3   OH237591   3.325   2.769   7.784
 5343TIP3    H137592   3.342   2.752   7.877
 5343TIP3    H237593   3.313   2.681   7.746
 5344TIP3   OH237594   3.036   4.787   7.748
 5344TIP3    H137595   3.115   4.738   7.768
 5344TIP3    H237596   2.966   4.722   7.751
 5345TIP3   OH237597   3.573   4.732   7.132
 5345TIP3    H137598   3.561   4.660   7.071
 5345TIP3    H237599   3.623   4.694   7.205
 5346TIP3   OH237600   4.542   0.147   7.667
 5346TIP3    H137601   4.511   0.236   7.650
 5346TIP3    H237602   4.576   0.116   7.583
 5347TIP3   OH237603   1.650   6.696   7.207
 5347TIP3    H137604   1.717   6.643   7.251
 5347TIP3    H237605   1.598   6.733   7.278
 5348TIP3   OH237606   1.089   0.411   1.626
 5348TIP3    H137607   1.127   0.332   1.667
 5348TIP3    H237608   0.995   0.394   1.625
 5349TIP3   OH237609   3.044   5.230   7.353
 5349TIP3    H137610   3.135   5.199   7.352
 5349TIP3    H237611   2.992   5.153   7.327
 5350TIP3   OH237612   2.768   1.536   1.501
 5350TIP3    H137613   2.814   1.457   1.530
 5350TIP3    H237614   2.762   1.590   1.580
 5351TIP3   OH237615   6.244   5.688   1.370
 5351TIP3    H137616   6.303   5.763   1.369
 5351TIP3    H237617   6.240   5.661   1.462
 5352TIP3   OH237618   0.918   2.898   8.012
 5352TIP3    H137619   0.836   2.852   8.026
 5352TIP3    H237620   0.905   2.984   8.051
 5353TIP3   OH237621   0.729   0.317   7.544
 5353TIP3    H137622   0.666   0.387   7.558
 5353TIP3    H237623   0.742   0.315   7.449
 5354TIP3   OH237624   1.563   4.380   6.637
 5354TIP3    H137625   1.477   4.360   6.599
 5354TIP3    H237626   1.607   4.430   6.569
 5355TIP3   OH237627   3.103   1.749   6.395
 5355TIP3    H137628   3.036   1.785   6.453
 5355TIP3    H237629   3.056   1.689   6.339
 5356TIP3   OH237630   4.478   5.976   1.175
 5356TIP3    H137631   4.524   5.930   1.105
 5356TIP3    H237632   4.524   5.949   1.255
 5357TIP3   OH237633   0.833   4.520   8.139
 5357TIP3    H137634   0.884   4.506   8.219
 5357TIP3    H237635   0.807   4.612   8.144
 5358TIP3   OH237636   2.982   6.189   8.009
 5358TIP3    H137637   2.986   6.196   8.104
 5358TIP3    H237638   2.912   6.125   7.993
 5359TIP3   OH237639   6.687   3.267   7.878
 5359TIP3    H137640   6.732   3.212   7.941
 5359TIP3    H237641   6.615   3.307   7.927
 5360TIP3   OH237642   1.944   2.978   7.378
 5360TIP3    H137643   1.876   3.017   7.323
 5360TIP3    H237644   2.025   3.019   7.350
 5361TIP3   OH237645   5.566   2.056   7.909
 5361TIP3    H137646   5.506   2.056   7.983
 5361TIP3    H237647   5.572   1.964   7.883
 5362TIP3   OH237648   2.199   6.614   7.711
 5362TIP3    H137649   2.231   6.595   7.623
 5362TIP3    H237650   2.269   6.665   7.752
 5363TIP3   OH237651   0.535   3.801   7.159
 5363TIP3    H137652   0.447   3.776   7.131
 5363TIP3    H237653   0.594   3.746   7.107
 5364TIP3   OH237654   4.149   6.566   2.258
 5364TIP3    H137655   4.191   6.534   2.338
 5364TIP3    H237656   4.192   6.517   2.187
 5365TIP3   OH237657   4.047   0.241   0.076
 5365TIP3    H137658   4.106   0.167   0.062
 5365TIP3    H237659   4.045   0.252   0.171
 5366TIP3   OH237660   5.580   0.798   0.615
 5366TIP3    H137661   5.550   0.759   0.697
 5366TIP3    H237662   5.499   0.820   0.568
 5367TIP3   OH237663   2.932   3.565   6.184
 5367TIP3    H137664   3.008   3.552   6.127
 5367TIP3    H237665   2.899   3.652   6.161
 5368TIP3   OH237666   4.004   6.763   7.764
 5368TIP3    H137667   3.921   6.781   7.809
 5368TIP3    H237668   4.020   6.670   7.782
 5369TIP3   OH237669   5.417   6.431   6.769
 5369TIP3    H137670   5.441   6.413   6.860
 5369TIP3    H237671   5.334   6.385   6.756
 5370TIP3   OH237672   5.580   0.407   7.358
 5370TIP3    H137673   5.556   0.316   7.342
 5370TIP3    H237674   5.594   0.412   7.453
 5371TIP3   OH237675   6.132   6.114   0.522
 5371TIP3    H137676   6.074   6.060   0.469
 5371TIP3    H237677   6.134   6.199   0.478
 5372TIP3   OH237678   4.199   1.500   0.678
 5372TIP3    H137679   4.148   1.561   0.731
 5372TIP3    H237680   4.266   1.467   0.739
 5373TIP3   OH237681   5.786   5.003   7.026
 5373TIP3    H137682   5.844   4.945   6.976
 5373TIP3    H237683   5.787   4.967   7.115
 5374TIP3   OH237684   1.420   5.165   6.738
 5374TIP3    H137685   1.341   5.112   6.736
 5374TIP3    H237686   1.389   5.256   6.736
 5375TIP3   OH237687   6.846   2.080   7.220
 5375TIP3    H137688   6.774   2.041   7.269
 5375TIP3    H237689   6.887   2.007   7.174
 5376TIP3   OH237690   6.830   1.482   7.353
 5376TIP3    H137691   6.796   1.560   7.309
 5376TIP3    H237692   6.923   1.480   7.330
 5377TIP3   OH237693   3.911   2.964   7.127
 5377TIP3    H137694   3.964   2.899   7.174
 5377TIP3    H237695   3.953   3.048   7.146
 5378TIP3   OH237696   5.411   5.925   6.298
 5378TIP3    H137697   5.490   5.871   6.300
 5378TIP3    H237698   5.440   6.011   6.326
 5379TIP3   OH237699   4.061   6.769   6.712
 5379TIP3    H137700   3.980   6.733   6.749
 5379TIP3    H237701   4.130   6.712   6.744
 5380TIP3   OH237702   0.099   4.852   0.936
 5380TIP3    H137703   0.116   4.878   1.026
 5380TIP3    H237704   0.028   4.788   0.942
 5381TIP3   OH237705   6.266   3.573   7.744
 5381TIP3    H137706   6.193   3.588   7.685
 5381TIP3    H237707   6.293   3.482   7.727
 5382TIP3   OH237708   1.763   0.288   1.674
 5382TIP3    H137709   1.790   0.339   1.750
 5382TIP3    H237710   1.779   0.347   1.600
 5383TIP3   OH237711   5.463   2.113   6.798
 5383TIP3    H137712   5.421   2.176   6.739
 5383TIP3    H237713   5.507   2.166   6.863
 5384TIP3   OH237714   4.076   4.743   6.448
 5384TIP3    H137715   4.170   4.726   6.453
 5384TIP3    H237716   4.035   4.657   6.458
 5385TIP3   OH237717   2.633   2.228   0.270
 5385TIP3    H137718   2.710   2.256   0.219
 5385TIP3    H237719   2.668   2.208   0.357
 5386TIP3   OH237720   4.826   3.109   8.181
 5386TIP3    H137721   4.899   3.106   8.119
 5386TIP3    H237722   4.753   3.146   8.130
 5387TIP3   OH237723   5.536   0.615   6.786
 5387TIP3    H137724   5.602   0.621   6.717
 5387TIP3    H237725   5.570   0.547   6.845
 5388TIP3   OH237726   2.159   2.466   7.496
 5388TIP3    H137727   2.065   2.464   7.475
 5388TIP3    H237728   2.163   2.500   7.585
 5389TIP3   OH237729   4.291   0.511   8.060
 5389TIP3    H137730   4.262   0.600   8.043
 5389TIP3    H237731   4.303   0.507   8.155
 5390TIP3   OH237732   1.485   0.458   6.747
 5390TIP3    H137733   1.575   0.487   6.763
 5390TIP3    H237734   1.449   0.525   6.688
 5391TIP3   OH237735   5.044   6.310   7.776
 5391TIP3    H137736   5.028   6.241   7.840
 5391TIP3    H237737   4.977   6.376   7.795
 5392TIP3   OH237738   2.760   6.459   0.841
 5392TIP3    H137739   2.735   6.380   0.793
 5392TIP3    H237740   2.677   6.506   0.856
 5393TIP3   OH237741   4.245   2.717   0.025
 5393TIP3    H137742   4.278   2.738  -0.063
 5393TIP3    H237743   4.324   2.700   0.077
 5394TIP3   OH237744   3.338   5.592   7.881
 5394TIP3    H137745   3.344   5.560   7.971
 5394TIP3    H237746   3.267   5.541   7.842
 5395TIP3   OH237747   2.106   5.979   7.980
 5395TIP3    H137748   2.183   5.960   7.927
 5395TIP3    H237749   2.056   6.041   7.927
 5396TIP3   OH237750   5.265   5.820   7.568
 5396TIP3    H137751   5.178   5.800   7.532
 5396TIP3    H237752   5.306   5.876   7.502
 5397TIP3   OH237753   5.101   3.499   2.150
 5397TIP3    H137754   5.185   3.486   2.193
 5397TIP3    H237755   5.037   3.460   2.209
 5398TIP3   OH237756   6.374   0.102   7.909
 5398TIP3    H137757   6.385   0.107   7.814
 5398TIP3    H237758   6.428   0.173   7.943
 5399TIP3   OH237759   1.457   6.387   8.037
 5399TIP3    H137760   1.496   6.470   8.007
 5399TIP3    H237761   1.504   6.367   8.118
 5400TIP3   OH237762   6.192   3.123   6.391
 5400TIP3    H137763   6.286   3.118   6.404
 5400TIP3    H237764   6.167   3.036   6.358
 5401TIP3   OH237765   5.429   4.343   1.279
 5401TIP3    H137766   5.376   4.324   1.202
 5401TIP3    H237767   5.478   4.422   1.256
 5402TIP3   OH237768   3.546   5.745   0.771
 5402TIP3    H137769   3.514   5.665   0.814
 5402TIP3    H237770   3.467   5.798   0.758
 5403TIP3   OH237771   3.813   6.503   0.694
 5403TIP3    H137772   3.876   6.525   0.626
 5403TIP3    H237773   3.764   6.429   0.659
 5404TIP3   OH237774   6.182   3.517   6.717
 5404TIP3    H137775   6.116   3.587   6.720
 5404TIP3    H237776   6.164   3.471   6.635
 5405TIP3   OH237777   5.215   2.391   7.915
 5405TIP3    H137778   5.226   2.429   7.828
 5405TIP3    H237779   5.261   2.450   7.974
 5406TIP3   OH237780   5.063   3.279   6.693
 5406TIP3    H137781   5.109   3.258   6.775
 5406TIP3    H237782   5.133   3.295   6.630
 5407TIP3   OH237783   3.185   0.167   1.144
 5407TIP3    H137784   3.186   0.261   1.158
 5407TIP3    H237785   3.102   0.150   1.100
 5408TIP3   OH237786   3.631   1.386   7.741
 5408TIP3    H137787   3.583   1.400   7.823
 5408TIP3    H237788   3.668   1.472   7.720
 5409TIP3   OH237789   5.224   4.859   8.044
 5409TIP3    H137790   5.279   4.790   8.082
 5409TIP3    H237791   5.211   4.921   8.115
 5410TIP3   OH237792   4.926   4.642   1.838
 5410TIP3    H137793   4.916   4.732   1.869
 5410TIP3    H237794   5.020   4.625   1.847
 5411TIP3   OH237795   3.119   5.490   0.553
 5411TIP3    H137796   3.156   5.461   0.470
 5411TIP3    H237797   3.024   5.483   0.541
 5412TIP3   OH237798   2.597   5.456   7.625
 5412TIP3    H137799   2.563   5.405   7.552
 5412TIP3    H237800   2.584   5.400   7.701
 5413TIP3   OH237801   0.437   2.603   7.373
 5413TIP3    H137802   0.406   2.645   7.293
 5413TIP3    H237803   0.508   2.546   7.345
 5414TIP3   OH237804   4.342   3.273   5.970
 5414TIP3    H137805   4.252   3.304   5.959
 5414TIP3    H237806   4.333   3.187   6.011
 5415TIP3   OH237807   3.240   5.207   1.034
 5415TIP3    H137808   3.245   5.271   0.963
 5415TIP3    H237809   3.329   5.171   1.039
 5416TIP3   OH237810   0.974   5.620   0.451
 5416TIP3    H137811   0.911   5.685   0.481
 5416TIP3    H237812   1.007   5.654   0.368
 5417TIP3   OH237813   1.673   1.139   0.104
 5417TIP3    H137814   1.731   1.169   0.174
 5417TIP3    H237815   1.593   1.112   0.149
 5418TIP3   OH237816   6.558   3.151   2.592
 5418TIP3    H137817   6.521   3.195   2.669
 5418TIP3    H237818   6.500   3.175   2.520
 5419TIP3   OH237819   5.817   0.674   0.501
 5419TIP3    H137820   5.777   0.587   0.500
 5419TIP3    H237821   5.756   0.728   0.553
 5420TIP3   OH237822   5.892   5.431   0.464
 5420TIP3    H137823   5.844   5.398   0.540
 5420TIP3    H237824   5.856   5.382   0.390
 5421TIP3   OH237825   0.932   1.188   6.283
 5421TIP3    H137826   0.914   1.202   6.190
 5421TIP3    H237827   0.846   1.182   6.324
 5422TIP3   OH237828   5.272   6.637   1.084
 5422TIP3    H137829   5.179   6.652   1.099
 5422TIP3    H237830   5.309   6.723   1.068
 5423TIP3   OH237831   0.421   0.501   6.682
 5423TIP3    H137832   0.516   0.489   6.672
 5423TIP3    H237833   0.408   0.511   6.776
 5424TIP3   OH237834   1.832   5.819   7.595
 5424TIP3    H137835   1.779   5.748   7.632
 5424TIP3    H237836   1.835   5.885   7.664
 5425TIP3   OH237837   4.894   6.103   0.735
 5425TIP3    H137838   4.935   6.150   0.808
 5425TIP3    H237839   4.946   6.126   0.659
 5426TIP3   OH237840   0.692   0.837   0.862
 5426TIP3    H137841   0.667   0.874   0.777
 5426TIP3    H237842   0.642   0.756   0.868
 5427TIP3   OH237843   4.524   0.083   2.411
 5427TIP3    H137844   4.613   0.067   2.380
 5427TIP3    H237845   4.477   0.113   2.333
 5428TIP3   OH237846   4.179   1.730   0.442
 5428TIP3    H137847   4.111   1.687   0.391
 5428TIP3    H237848   4.133   1.803   0.485
 5429TIP3   OH237849   5.414   4.094   1.449
 5429TIP3    H137850   5.460   4.104   1.532
 5429TIP3    H237851   5.424   4.179   1.405
 5430TIP3   OH237852   1.698   4.555   0.512
 5430TIP3    H137853   1.775   4.519   0.467
 5430TIP3    H237854   1.690   4.500   0.590
 5431TIP3   OH237855   6.137   4.353   7.673
 5431TIP3    H137856   6.205   4.374   7.737
 5431TIP3    H237857   6.056   4.351   7.724
 5432TIP3   OH237858   2.794   3.784   7.320
 5432TIP3    H137859   2.737   3.861   7.318
 5432TIP3    H237860   2.827   3.780   7.409
 5433TIP3   OH237861   2.632   6.754   1.707
 5433TIP3    H137862   2.657   6.805   1.785
 5433TIP3    H237863   2.561   6.805   1.668
 5434TIP3   OH237864   3.382   4.117   0.392
 5434TIP3    H137865   3.387   4.022   0.402
 5434TIP3    H237866   3.432   4.136   0.313
 5435TIP3   OH237867   5.663   3.443   0.427
 5435TIP3    H137868   5.681   3.349   0.423
 5435TIP3    H237869   5.575   3.449   0.464
 5436TIP3   OH237870   6.484   1.645   0.030
 5436TIP3    H137871   6.494   1.738   0.050
 5436TIP3    H237872   6.409   1.642  -0.030
 5437TIP3   OH237873   3.233   3.107   1.104
 5437TIP3    H137874   3.197   3.089   1.017
 5437TIP3    H237875   3.165   3.076   1.164
 5438TIP3   OH237876   5.360   0.370   0.210
 5438TIP3    H137877   5.447   0.367   0.168
 5438TIP3    H237878   5.374   0.423   0.289
 5439TIP3   OH237879   2.988   4.400   6.956
 5439TIP3    H137880   3.039   4.328   6.992
 5439TIP3    H237881   3.043   4.477   6.968
 5440TIP3   OH237882   3.611   2.076   0.282
 5440TIP3    H137883   3.687   2.071   0.341
 5440TIP3    H237884   3.648   2.106   0.199
 5441TIP3   OH237885   0.636   2.693   7.769
 5441TIP3    H137886   0.710   2.735   7.725
 5441TIP3    H237887   0.672   2.611   7.802
 5442TIP3   OH237888   6.469   6.527   1.329
 5442TIP3    H137889   6.557   6.522   1.367
 5442TIP3    H237890   6.413   6.484   1.394
 5443TIP3   OH237891   1.556   0.804   6.439
 5443TIP3    H137892   1.519   0.881   6.397
 5443TIP3    H237893   1.648   0.826   6.455
 5444TIP3   OH237894   5.800   0.882   6.775
 5444TIP3    H137895   5.823   0.813   6.713
 5444TIP3    H237896   5.797   0.838   6.860
 5445TIP3   OH237897   5.810   2.708   6.946
 5445TIP3    H137898   5.899   2.736   6.968
 5445TIP3    H237899   5.780   2.772   6.881
 5446TIP3   OH237900   3.256   6.664   6.902
 5446TIP3    H137901   3.232   6.622   6.820
 5446TIP3    H237902   3.178   6.712   6.929
 5447TIP3   OH237903   0.824   2.775   7.569
 5447TIP3    H137904   0.843   2.864   7.539
 5447TIP3    H237905   0.865   2.718   7.504
 5448TIP3   OH237906   0.837   5.010   0.904
 5448TIP3    H137907   0.799   4.967   0.827
 5448TIP3    H237908   0.785   5.090   0.914
 5449TIP3   OH237909   5.349   3.447   2.341
 5449TIP3    H137910   5.425   3.399   2.373
 5449TIP3    H237911   5.386   3.519   2.289
 5450TIP3   OH237912   0.496   0.519   1.958
 5450TIP3    H137913   0.408   0.556   1.946
 5450TIP3    H237914   0.499   0.497   2.051
 5451TIP3   OH237915   1.438   6.911   8.281
 5451TIP3    H137916   1.360   6.883   8.233
 5451TIP3    H237917   1.505   6.921   8.213
 5452TIP3   OH237918   5.716   4.101   5.913
 5452TIP3    H137919   5.624   4.077   5.905
 5452TIP3    H237920   5.728   4.119   6.006
 5453TIP3   OH237921   5.669   4.089   1.145
 5453TIP3    H137922   5.667   4.000   1.179
 5453TIP3    H237923   5.690   4.143   1.221
 5454TIP3   OH237924   3.169   0.584   7.558
 5454TIP3    H137925   3.146   0.496   7.531
 5454TIP3    H237926   3.136   0.592   7.648
 5455TIP3   OH237927   1.557   1.083   6.936
 5455TIP3    H137928   1.631   1.030   6.965
 5455TIP3    H237929   1.526   1.041   6.856
 5456TIP3   OH237930   0.577   3.108   7.620
 5456TIP3    H137931   0.529   3.031   7.590
 5456TIP3    H237932   0.656   3.074   7.662
 5457TIP3   OH237933   6.295   3.770   1.273
 5457TIP3    H137934   6.285   3.703   1.341
 5457TIP3    H237935   6.207   3.804   1.259
 5458TIP3   OH237936   3.823   5.673   0.806
 5458TIP3    H137937   3.850   5.671   0.714
 5458TIP3    H237938   3.733   5.707   0.804
 5459TIP3   OH237939   1.470   1.730   6.689
 5459TIP3    H137940   1.494   1.819   6.664
 5459TIP3    H237941   1.536   1.675   6.649
 5460TIP3   OH237942   2.155   6.480   2.053
 5460TIP3    H137943   2.119   6.566   2.074
 5460TIP3    H237944   2.249   6.496   2.041
 5461TIP3   OH237945   0.929   4.295   0.582
 5461TIP3    H137946   0.890   4.216   0.546
 5461TIP3    H237947   1.019   4.294   0.551
 5462TIP3   OH237948   5.213   0.182   7.880
 5462TIP3    H137949   5.249   0.111   7.932
 5462TIP3    H237950   5.289   0.229   7.847
 5463TIP3   OH237951   2.973   3.697   7.742
 5463TIP3    H137952   2.901   3.634   7.747
 5463TIP3    H237953   2.981   3.731   7.831
 5464TIP3   OH237954   3.656   3.395   6.044
 5464TIP3    H137955   3.657   3.393   6.139
 5464TIP3    H237956   3.747   3.379   6.018
 5465TIP3   OH237957   0.333   2.113   6.817
 5465TIP3    H137958   0.300   2.026   6.795
 5465TIP3    H237959   0.400   2.130   6.750
 5466TIP3   OH237960   2.890   5.310   1.664
 5466TIP3    H137961   2.925   5.320   1.576
 5466TIP3    H237962   2.840   5.228   1.661
 5467TIP3   OH237963   6.667   4.528   1.164
 5467TIP3    H137964   6.629   4.468   1.228
 5467TIP3    H237965   6.614   4.607   1.170
 5468TIP3   OH237966   2.269   3.665   0.033
 5468TIP3    H137967   2.188   3.672  -0.018
 5468TIP3    H237968   2.260   3.732   0.101
 5469TIP3   OH237969   4.078   0.874   7.066
 5469TIP3    H137970   4.146   0.940   7.077
 5469TIP3    H237971   4.034   0.897   6.985
 5470TIP3   OH237972   0.698   2.385   0.844
 5470TIP3    H137973   0.717   2.291   0.849
 5470TIP3    H237974   0.680   2.411   0.934
 5471TIP3   OH237975   4.634   0.220   0.058
 5471TIP3    H137976   4.628   0.313   0.077
 5471TIP3    H237977   4.548   0.196   0.024
 5472TIP3   OH237978   1.238   5.733   7.072
 5472TIP3    H137979   1.186   5.706   6.996
 5472TIP3    H237980   1.199   5.687   7.145
 5473TIP3   OH237981   2.713   5.359   6.584
 5473TIP3    H137982   2.621   5.380   6.573
 5473TIP3    H237983   2.739   5.407   6.663
 5474TIP3   OH237984   0.951   0.839   0.067
 5474TIP3    H137985   0.893   0.912   0.089
 5474TIP3    H237986   0.932   0.773   0.134
 5475TIP3   OH237987   0.282   6.941   7.981
 5475TIP3    H137988   0.258   6.890   8.059
 5475TIP3    H237989   0.368   6.906   7.956
 5476TIP3   OH237990   0.999   3.434   8.130
 5476TIP3    H137991   0.923   3.492   8.133
 5476TIP3    H237992   1.062   3.473   8.190
 5477TIP3   OH237993   1.542   1.342   6.335
 5477TIP3    H137994   1.636   1.331   6.346
 5477TIP3    H237995   1.533   1.385   6.249
 5478TIP3   OH237996   6.908   4.444   7.987
 5478TIP3    H137997   6.903   4.444   7.891
 5478TIP3    H237998   6.880   4.356   8.012
 5479TIP3   OH237999   6.653   1.400   0.040
 5479TIP3    H138000   6.620   1.489   0.052
 5479TIP3    H238001   6.587   1.356  -0.014
 5480TIP3   OH238002   5.992   0.504   7.415
 5480TIP3    H138003   5.958   0.421   7.382
 5480TIP3    H238004   5.931   0.528   7.485
 5481TIP3   OH238005   0.388   0.279   0.097
 5481TIP3    H138006   0.435   0.249   0.019
 5481TIP3    H238007   0.302   0.305   0.064
 5482TIP3   OH238008   6.215   0.026   8.118
 5482TIP3    H138009   6.136  -0.025   8.100
 5482TIP3    H238010   6.267   0.019   8.038
 5483TIP3   OH238011   4.426   4.452   6.902
 5483TIP3    H138012   4.376   4.459   6.821
 5483TIP3    H238013   4.503   4.508   6.888
 5484TIP3   OH238014   4.849   4.057   2.263
 5484TIP3    H138015   4.893   4.113   2.199
 5484TIP3    H238016   4.764   4.100   2.277
 5485TIP3   OH238017   2.927   5.643   8.111
 5485TIP3    H138018   2.983   5.650   8.188
 5485TIP3    H238019   2.873   5.722   8.114
 5486TIP3   OH238020   3.568   5.030   6.823
 5486TIP3    H138021   3.494   5.051   6.765
 5486TIP3    H238022   3.642   5.076   6.785
 5487TIP3   OH238023   4.350   5.469   1.243
 5487TIP3    H138024   4.323   5.380   1.224
 5487TIP3    H238025   4.395   5.463   1.328
 5488TIP3   OH238026   5.355   4.054   0.841
 5488TIP3    H138027   5.386   4.051   0.750
 5488TIP3    H238028   5.413   3.995   0.888
 5489TIP3   OH238029   2.309   0.588   0.233
 5489TIP3    H138030   2.364   0.627   0.165
 5489TIP3    H238031   2.331   0.637   0.312
 5490TIP3   OH238032   1.129   1.404   6.387
 5490TIP3    H138033   1.211   1.432   6.426
 5490TIP3    H238034   1.101   1.329   6.440
 5491TIP3   OH238035   3.463   4.164   7.337
 5491TIP3    H138036   3.451   4.070   7.354
 5491TIP3    H238037   3.375   4.201   7.345
 5492TIP3   OH238038   2.357   2.938   6.655
 5492TIP3    H138039   2.447   2.965   6.673
 5492TIP3    H238040   2.350   2.943   6.559
 5493TIP3   OH238041   1.898   6.986   1.021
 5493TIP3    H138042   1.858   6.938   1.094
 5493TIP3    H238043   1.943   7.059   1.063
 5494TIP3   OH238044   4.936   2.606   7.568
 5494TIP3    H138045   4.860   2.650   7.607
 5494TIP3    H238046   4.955   2.657   7.489
 5495TIP3   OH238047   1.578   2.691   7.418
 5495TIP3    H138048   1.530   2.743   7.353
 5495TIP3    H238049   1.658   2.665   7.373
 5496TIP3   OH238050   1.554   0.084   6.894
 5496TIP3    H138051   1.525   0.110   6.806
 5496TIP3    H238052   1.584  -0.007   6.882
 5497TIP3   OH238053   4.096   3.108   1.529
 5497TIP3    H138054   4.011   3.088   1.490
 5497TIP3    H238055   4.127   3.025   1.565
 5498TIP3   OH238056   3.092   4.360   8.361
 5498TIP3    H138057   3.117   4.277   8.402
 5498TIP3    H238058   3.036   4.334   8.288
 5499TIP3   OH238059   6.952   5.432   1.454
 5499TIP3    H138060   7.026   5.489   1.434
 5499TIP3    H238061   6.879   5.491   1.470
 5500TIP3   OH238062   4.540   1.471   1.017
 5500TIP3    H138063   4.629   1.450   1.046
 5500TIP3    H238064   4.548   1.555   0.972
 5501TIP3   OH238065   5.496   3.151   8.358
 5501TIP3    H138066   5.568   3.202   8.322
 5501TIP3    H238067   5.433   3.217   8.389
 5502TIP3   OH238068   5.011   5.808   0.231
 5502TIP3    H138069   5.072   5.874   0.198
 5502TIP3    H238070   5.066   5.732   0.250
 5503TIP3   OH238071   4.223   4.850   7.674
 5503TIP3    H138072   4.221   4.935   7.719
 5503TIP3    H238073   4.185   4.868   7.588
 5504TIP3   OH238074   4.474   4.827   6.692
 5504TIP3    H138075   4.486   4.830   6.786
 5504TIP3    H238076   4.525   4.901   6.659
 5505TIP3   OH238077   0.541   0.795   6.857
 5505TIP3    H138078   0.550   0.831   6.769
 5505TIP3    H238079   0.471   0.847   6.897
 5506TIP3   OH238080   2.354   0.226   1.903
 5506TIP3    H138081   2.326   0.306   1.859
 5506TIP3    H238082   2.441   0.208   1.867
 5507TIP3   OH238083   4.751   0.899   0.771
 5507TIP3    H138084   4.763   0.888   0.677
 5507TIP3    H238085   4.827   0.949   0.800
 5508TIP3   OH238086   0.519   5.867   8.189
 5508TIP3    H138087   0.488   5.814   8.263
 5508TIP3    H238088   0.600   5.825   8.162
 5509TIP3   OH238089   4.631   1.202   7.470
 5509TIP3    H138090   4.631   1.218   7.375
 5509TIP3    H238091   4.637   1.106   7.477
 5510TIP3   OH238092   2.669   4.508   0.379
 5510TIP3    H138093   2.631   4.473   0.299
 5510TIP3    H238094   2.762   4.485   0.373
 5511TIP3   OH238095   0.002   0.844   6.244
 5511TIP3    H138096  -0.046   0.767   6.274
 5511TIP3    H238097  -0.002   0.906   6.317
 5512TIP3   OH238098   1.948   4.908   7.751
 5512TIP3    H138099   1.870   4.878   7.703
 5512TIP3    H238100   2.011   4.837   7.740
 5513TIP3   OH238101   6.538   3.926   8.072
 5513TIP3    H138102   6.519   3.990   8.141
 5513TIP3    H238103   6.632   3.935   8.056
 5514TIP3   OH238104   3.705   5.923   7.846
 5514TIP3    H138105   3.666   6.010   7.851
 5514TIP3    H238106   3.631   5.864   7.832
 5515TIP3   OH238107   1.124   6.410   6.456
 5515TIP3    H138108   1.035   6.386   6.428
 5515TIP3    H238109   1.176   6.331   6.442
 5516TIP3   OH238110   6.134   4.479   0.808
 5516TIP3    H138111   6.083   4.399   0.794
 5516TIP3    H238112   6.095   4.543   0.748
 5517TIP3   OH238113   2.265   0.696   7.110
 5517TIP3    H138114   2.222   0.781   7.121
 5517TIP3    H238115   2.358   0.714   7.116
 5518TIP3   OH238116   3.186   2.489   0.831
 5518TIP3    H138117   3.096   2.520   0.842
 5518TIP3    H238118   3.238   2.568   0.821
 5519TIP3   OH238119   6.811   6.366   2.231
 5519TIP3    H138120   6.895   6.332   2.201
 5519TIP3    H238121   6.808   6.456   2.199
 5520TIP3   OH238122   5.642   1.677   1.068
 5520TIP3    H138123   5.624   1.768   1.044
 5520TIP3    H238124   5.737   1.674   1.080
 5521TIP3   OH238125   1.580   0.280   1.010
 5521TIP3    H138126   1.584   0.250   1.101
 5521TIP3    H238127   1.631   0.362   1.010
 5522TIP3   OH238128   0.649   0.292   6.751
 5522TIP3    H138129   0.653   0.217   6.691
 5522TIP3    H238130   0.647   0.368   6.694
 5523TIP3   OH238131   6.123   4.115   8.228
 5523TIP3    H138132   6.038   4.116   8.182
 5523TIP3    H238133   6.186   4.090   8.161
 5524TIP3   OH238134   5.478   3.387   0.867
 5524TIP3    H138135   5.496   3.463   0.811
 5524TIP3    H238136   5.561   3.369   0.910
 5525TIP3   OH238137   0.774   4.332   6.743
 5525TIP3    H138138   0.692   4.379   6.734
 5525TIP3    H238139   0.820   4.377   6.815
 5526TIP3   OH238140   6.677   2.277   6.840
 5526TIP3    H138141   6.754   2.220   6.837
 5526TIP3    H238142   6.712   2.364   6.860
 5527TIP3   OH238143   3.022   2.017   6.885
 5527TIP3    H138144   3.004   1.972   6.803
 5527TIP3    H238145   2.951   1.990   6.943
 5528TIP3   OH238146   4.616   1.930   6.935
 5528TIP3    H138147   4.661   1.868   6.879
 5528TIP3    H238148   4.547   1.967   6.879
 5529TIP3   OH238149   5.444   1.262   8.245
 5529TIP3    H138150   5.508   1.331   8.261
 5529TIP3    H238151   5.468   1.227   8.159
 5530TIP3   OH238152   1.113   2.662   1.938
 5530TIP3    H138153   1.055   2.596   1.901
 5530TIP3    H238154   1.064   2.699   2.011
 5531TIP3   OH238155   0.845   5.840   0.520
 5531TIP3    H138156   0.909   5.898   0.561
 5531TIP3    H238157   0.834   5.876   0.431
 5532TIP3   OH238158   3.198   3.319   0.600
 5532TIP3    H138159   3.189   3.389   0.664
 5532TIP3    H238160   3.195   3.364   0.515
 5533TIP3   OH238161   3.691   0.091   7.855
 5533TIP3    H138162   3.595   0.081   7.851
 5533TIP3    H238163   3.709   0.108   7.948
 5534TIP3   OH238164   4.531   5.095   0.205
 5534TIP3    H138165   4.578   5.037   0.144
 5534TIP3    H238166   4.553   5.183   0.175
 5535TIP3   OH238167   1.268   5.114   1.828
 5535TIP3    H138168   1.259   5.085   1.737
 5535TIP3    H238169   1.335   5.057   1.865
 5536TIP3   OH238170   5.586   1.088   2.093
 5536TIP3    H138171   5.677   1.088   2.123
 5536TIP3    H238172   5.550   1.006   2.127
 5537TIP3   OH238173   6.568   2.650   6.852
 5537TIP3    H138174   6.562   2.622   6.761
 5537TIP3    H238175   6.652   2.696   6.857
 5538TIP3   OH238176   6.073   4.560   0.452
 5538TIP3    H138177   6.040   4.557   0.362
 5538TIP3    H238178   5.998   4.533   0.506
 5539TIP3   OH238179   2.106   0.314   1.763
 5539TIP3    H138180   2.023   0.361   1.772
 5539TIP3    H238181   2.165   0.377   1.723
 5540TIP3   OH238182   0.678   2.743   8.076
 5540TIP3    H138183   0.646   2.653   8.068
 5540TIP3    H238184   0.602   2.793   8.106
 5541TIP3   OH238185   2.046   3.156   0.874
 5541TIP3    H138186   2.028   3.246   0.902
 5541TIP3    H238187   2.136   3.140   0.902
 5542TIP3   OH238188   4.714   1.792   1.182
 5542TIP3    H138189   4.804   1.822   1.166
 5542TIP3    H238190   4.724   1.712   1.233
 5543TIP3   OH238191   0.388   2.683   1.475
 5543TIP3    H138192   0.378   2.753   1.539
 5543TIP3    H238193   0.407   2.605   1.528
 5544TIP3   OH238194   4.830   0.702   7.056
 5544TIP3    H138195   4.874   0.632   7.104
 5544TIP3    H238196   4.808   0.767   7.123
 5545TIP3   OH238197   3.010   1.972   0.059
 5545TIP3    H138198   3.014   1.940   0.149
 5545TIP3    H238199   2.929   2.024   0.056
 5546TIP3   OH238200   4.773   2.541   8.160
 5546TIP3    H138201   4.760   2.627   8.198
 5546TIP3    H238202   4.837   2.554   8.089
 5547TIP3   OH238203   6.255   6.532   0.783
 5547TIP3    H138204   6.329   6.571   0.828
 5547TIP3    H238205   6.240   6.449   0.828
 5548TIP3   OH238206   4.765   1.173   0.657
 5548TIP3    H138207   4.841   1.203   0.608
 5548TIP3    H238208   4.744   1.087   0.619
 5549TIP3   OH238209   4.926   5.066   0.594
 5549TIP3    H138210   4.941   5.025   0.680
 5549TIP3    H238211   4.986   5.140   0.592
 5550TIP3   OH238212   3.033   3.362   7.451
 5550TIP3    H138213   3.103   3.296   7.445
 5550TIP3    H238214   3.047   3.404   7.535
 5551TIP3   OH238215   5.290   0.866   7.532
 5551TIP3    H138216   5.333   0.832   7.610
 5551TIP3    H238217   5.240   0.793   7.498
 5552TIP3   OH238218   6.689   5.332   0.187
 5552TIP3    H138219   6.602   5.352   0.221
 5552TIP3    H238220   6.675   5.260   0.125
 5553TIP3   OH238221   1.076   2.441   0.053
 5553TIP3    H138222   1.135   2.416   0.124
 5553TIP3    H238223   1.008   2.494   0.096
 5554TIP3   OH238224   2.066   6.314   7.089
 5554TIP3    H138225   1.971   6.326   7.091
 5554TIP3    H238226   2.096   6.370   7.018
 5555TIP3   OH238227   4.433   3.146   1.705
 5555TIP3    H138228   4.386   3.137   1.788
 5555TIP3    H238229   4.508   3.201   1.726
 5556TIP3   OH238230   3.706   0.569   1.614
 5556TIP3    H138231   3.770   0.502   1.638
 5556TIP3    H238232   3.708   0.632   1.686
 5557TIP3   OH238233   3.075   0.984   1.546
 5557TIP3    H138234   3.165   1.016   1.540
 5557TIP3    H238235   3.053   0.990   1.639
 5558TIP3   OH238236   1.933   6.274   0.906
 5558TIP3    H138237   1.966   6.342   0.848
 5558TIP3    H238238   1.886   6.213   0.849
 5559TIP3   OH238239   1.721   4.615   1.328
 5559TIP3    H138240   1.629   4.598   1.346
 5559TIP3    H238241   1.753   4.534   1.287
 5560TIP3   OH238242   1.807   6.522   6.856
 5560TIP3    H138243   1.789   6.597   6.913
 5560TIP3    H238244   1.811   6.558   6.768
 5561TIP3   OH238245   0.616   3.245   0.455
 5561TIP3    H138246   0.558   3.290   0.393
 5561TIP3    H238247   0.688   3.306   0.468
 5562TIP3   OH238248   4.332   5.355   8.404
 5562TIP3    H138249   4.412   5.405   8.394
 5562TIP3    H238250   4.292   5.355   8.316
 5563TIP3   OH238251   1.544   5.103   0.731
 5563TIP3    H138252   1.479   5.060   0.787
 5563TIP3    H238253   1.494   5.135   0.656
 5564TIP3   OH238254   2.335   5.755   0.659
 5564TIP3    H138255   2.267   5.718   0.716
 5564TIP3    H238256   2.415   5.708   0.684
 5565TIP3   OH238257   4.091   6.411   6.646
 5565TIP3    H138258   4.058   6.457   6.724
 5565TIP3    H238259   4.020   6.353   6.620
 5566TIP3   OH238260   0.998   0.848   6.122
 5566TIP3    H138261   0.927   0.912   6.121
 5566TIP3    H238262   0.955   0.764   6.140
 5567TIP3   OH238263   6.256   1.435   8.380
 5567TIP3    H138264   6.240   1.377   8.306
 5567TIP3    H238265   6.282   1.377   8.452
 5568TIP3   OH238266   4.496   6.723   6.933
 5568TIP3    H138267   4.553   6.753   7.003
 5568TIP3    H238268   4.442   6.655   6.973
 5569TIP3   OH238269   1.694   5.968   0.942
 5569TIP3    H138270   1.667   6.059   0.957
 5569TIP3    H238271   1.664   5.922   1.021
 5570TIP3   OH238272   0.225   2.299   2.509
 5570TIP3    H138273   0.272   2.309   2.427
 5570TIP3    H238274   0.199   2.388   2.533
 5571TIP3   OH238275   4.806   6.493   0.956
 5571TIP3    H138276   4.803   6.491   1.052
 5571TIP3    H238277   4.849   6.412   0.931
 5572TIP3   OH238278   1.718   5.276   5.705
 5572TIP3    H138279   1.690   5.185   5.694
 5572TIP3    H238280   1.676   5.304   5.787
 5573TIP3   OH238281   2.640   5.660   2.189
 5573TIP3    H138282   2.553   5.626   2.167
 5573TIP3    H238283   2.648   5.740   2.136
 5574TIP3   OH238284   1.717   0.175   0.421
 5574TIP3    H138285   1.761   0.256   0.446
 5574TIP3    H238286   1.763   0.146   0.342
 5575TIP3   OH238287   2.432   0.182   7.714
 5575TIP3    H138288   2.497   0.159   7.648
 5575TIP3    H238289   2.475   0.163   7.797
 5576TIP3   OH238290   2.638   5.335   0.324
 5576TIP3    H138291   2.685   5.315   0.243
 5576TIP3    H238292   2.555   5.373   0.294
 5577TIP3   OH238293   6.878   1.319   8.278
 5577TIP3    H138294   6.818   1.294   8.208
 5577TIP3    H238295   6.824   1.316   8.357
 5578TIP3   OH238296   3.355   1.455   2.188
 5578TIP3    H138297   3.420   1.452   2.258
 5578TIP3    H238298   3.271   1.445   2.233
 5579TIP3   OH238299   4.534   5.225   7.377
 5579TIP3    H138300   4.537   5.199   7.285
 5579TIP3    H238301   4.441   5.234   7.396
 5580TIP3   OH238302   5.504   6.080   2.011
 5580TIP3    H138303   5.500   6.085   1.915
 5580TIP3    H238304   5.548   5.997   2.028
 5581TIP3   OH238305   5.273   4.352   6.617
 5581TIP3    H138306   5.314   4.336   6.532
 5581TIP3    H238307   5.341   4.399   6.667
 5582TIP3   OH238308   6.982   4.142   7.664
 5582TIP3    H138309   7.074   4.163   7.677
 5582TIP3    H238310   6.939   4.228   7.655
 5583TIP3   OH238311   5.953   4.910   8.071
 5583TIP3    H138312   5.937   4.832   8.125
 5583TIP3    H238313   5.897   4.898   7.994
 5584TIP3   OH238314   1.960   5.835   7.323
 5584TIP3    H138315   2.000   5.758   7.364
 5584TIP3    H238316   1.872   5.839   7.361
 5585TIP3   OH238317   1.643   3.542   7.138
 5585TIP3    H138318   1.677   3.560   7.226
 5585TIP3    H238319   1.667   3.451   7.121
 5586TIP3   OH238320   4.293   2.696   1.231
 5586TIP3    H138321   4.223   2.753   1.261
 5586TIP3    H238322   4.367   2.715   1.289
 5587TIP3   OH238323   0.983   6.188   1.080
 5587TIP3    H138324   0.940   6.102   1.085
 5587TIP3    H238325   1.004   6.210   1.170
 5588TIP3   OH238326   5.243   5.381   7.148
 5588TIP3    H138327   5.238   5.443   7.222
 5588TIP3    H238328   5.278   5.301   7.187
 5589TIP3   OH238329   2.353   6.542   6.870
 5589TIP3    H138330   2.314   6.604   6.808
 5589TIP3    H238331   2.314   6.566   6.954
 5590TIP3   OH238332   2.848   0.034   6.323
 5590TIP3    H138333   2.826  -0.027   6.394
 5590TIP3    H238334   2.830   0.121   6.359
 5591TIP3   OH238335   5.697   0.989   8.213
 5591TIP3    H138336   5.633   0.918   8.221
 5591TIP3    H238337   5.669   1.055   8.276
 5592TIP3   OH238338   1.167   2.775   8.070
 5592TIP3    H138339   1.216   2.792   7.989
 5592TIP3    H238340   1.081   2.813   8.054
 5593TIP3   OH238341   4.959   2.474   0.231
 5593TIP3    H138342   5.052   2.496   0.218
 5593TIP3    H238343   4.934   2.522   0.310
 5594TIP3   OH238344   4.237   4.978   7.045
 5594TIP3    H138345   4.189   4.966   6.963
 5594TIP3    H238346   4.282   5.061   7.034
 5595TIP3   OH238347   4.724   3.973   7.828
 5595TIP3    H138348   4.795   3.909   7.817
 5595TIP3    H238349   4.662   3.951   7.759
 5596TIP3   OH238350   1.009   0.996   0.633
 5596TIP3    H138351   0.966   0.912   0.649
 5596TIP3    H238352   1.026   1.031   0.720
 5597TIP3   OH238353   4.362   5.984   8.277
 5597TIP3    H138354   4.368   5.903   8.327
 5597TIP3    H238355   4.454   6.011   8.265
 5598TIP3   OH238356   3.149   2.027   1.439
 5598TIP3    H138357   3.135   2.121   1.441
 5598TIP3    H238358   3.063   1.990   1.461
 5599TIP3   OH238359   0.390   1.147   0.150
 5599TIP3    H138360   0.312   1.200   0.137
 5599TIP3    H238361   0.435   1.188   0.224
 5600TIP3   OH238362   5.054   6.852   7.249
 5600TIP3    H138363   5.077   6.932   7.203
 5600TIP3    H238364   5.062   6.874   7.342
 5601TIP3   OH238365   0.342   6.986   0.127
 5601TIP3    H138366   0.386   7.069   0.145
 5601TIP3    H238367   0.260   7.012   0.085
 5602TIP3   OH238368   0.071   3.485   2.094
 5602TIP3    H138369   0.125   3.465   2.171
 5602TIP3    H238370   0.099   3.572   2.066
 5603TIP3   OH238371   4.360   2.264   7.527
 5603TIP3    H138372   4.326   2.184   7.487
 5603TIP3    H238373   4.315   2.335   7.481
 5604TIP3   OH238374   1.065   6.795   6.409
 5604TIP3    H138375   1.035   6.724   6.354
 5604TIP3    H238376   1.027   6.874   6.370
 5605TIP3   OH238377   5.585   6.051   1.714
 5605TIP3    H138378   5.609   6.063   1.622
 5605TIP3    H238379   5.559   5.959   1.720
 5606TIP3   OH238380   6.107   2.460   7.049
 5606TIP3    H138381   6.090   2.368   7.028
 5606TIP3    H238382   6.165   2.490   6.979
 5607TIP3   OH238383   6.304   6.122   7.268
 5607TIP3    H138384   6.231   6.183   7.275
 5607TIP3    H238385   6.370   6.170   7.218
 5608TIP3   OH238386   1.691   2.503   7.683
 5608TIP3    H138387   1.666   2.438   7.749
 5608TIP3    H238388   1.778   2.532   7.710
 5609TIP3   OH238389   2.899   3.712   8.333
 5609TIP3    H138390   2.832   3.741   8.271
 5609TIP3    H238391   2.871   3.749   8.417
 5610TIP3   OH238392   1.705   0.538   6.972
 5610TIP3    H138393   1.686   0.462   7.027
 5610TIP3    H238394   1.763   0.505   6.904
 5611TIP3   OH238395   4.821   1.874   0.819
 5611TIP3    H138396   4.845   1.820   0.893
 5611TIP3    H238397   4.726   1.885   0.827
 5612TIP3   OH238398   2.430   1.788   8.069
 5612TIP3    H138399   2.442   1.710   8.124
 5612TIP3    H238400   2.511   1.795   8.018
 5613TIP3   OH238401   3.723   4.233   7.434
 5613TIP3    H138402   3.646   4.196   7.392
 5613TIP3    H238403   3.705   4.227   7.527
 5614TIP3   OH238404   6.740   4.629   6.633
 5614TIP3    H138405   6.768   4.706   6.583
 5614TIP3    H238406   6.645   4.640   6.641
 5615TIP3   OH238407   4.575   3.192   8.059
 5615TIP3    H138408   4.515   3.181   8.132
 5615TIP3    H238409   4.570   3.285   8.037
 5616TIP3   OH238410   0.399   4.653   0.849
 5616TIP3    H138411   0.429   4.740   0.875
 5616TIP3    H238412   0.474   4.595   0.864
 5617TIP3   OH238413   6.769   3.098   8.072
 5617TIP3    H138414   6.700   3.068   8.130
 5617TIP3    H238415   6.850   3.069   8.114
 5618TIP3   OH238416   0.211   1.877   6.736
 5618TIP3    H138417   0.194   1.785   6.755
 5618TIP3    H238418   0.225   1.880   6.641
 5619TIP3   OH238419   5.173   5.762   6.346
 5619TIP3    H138420   5.250   5.812   6.319
 5619TIP3    H238421   5.114   5.765   6.271
 5620TIP3   OH238422   5.743   6.285   7.885
 5620TIP3    H138423   5.664   6.280   7.939
 5620TIP3    H238424   5.714   6.260   7.797
 5621TIP3   OH238425   1.802   2.089   0.414
 5621TIP3    H138426   1.886   2.049   0.390
 5621TIP3    H238427   1.754   2.096   0.331
 5622TIP3   OH238428   6.673   4.133   7.040
 5622TIP3    H138429   6.726   4.207   7.011
 5622TIP3    H238430   6.733   4.081   7.093
 5623TIP3   OH238431   3.375   1.025   8.378
 5623TIP3    H138432   3.451   1.082   8.392
 5623TIP3    H238433   3.412   0.945   8.340
 5624TIP3   OH238434   6.882   1.533   0.220
 5624TIP3    H138435   6.796   1.569   0.243
 5624TIP3    H238436   6.891   1.551   0.127
 5625TIP3   OH238437   0.780   3.900   1.221
 5625TIP3    H138438   0.848   3.960   1.252
 5625TIP3    H238439   0.807   3.877   1.132
 5626TIP3   OH238440   6.335   3.284   1.845
 5626TIP3    H138441   6.397   3.333   1.792
 5626TIP3    H238442   6.381   3.268   1.927
 5627TIP3   OH238443   3.411   1.866   7.802
 5627TIP3    H138444   3.333   1.899   7.757
 5627TIP3    H238445   3.379   1.835   7.887
 5628TIP3   OH238446   5.027   6.859   1.926
 5628TIP3    H138447   5.122   6.859   1.940
 5628TIP3    H238448   5.016   6.868   1.832
 5629TIP3   OH238449   1.468   5.806   6.590
 5629TIP3    H138450   1.536   5.772   6.533
 5629TIP3    H238451   1.502   5.793   6.679
 5630TIP3   OH238452   0.536   6.805   0.001
 5630TIP3    H138453   0.552   6.886   0.051
 5630TIP3    H238454   0.623   6.771  -0.018
 5631TIP3   OH238455   2.253   0.275   7.007
 5631TIP3    H138456   2.219   0.246   6.923
 5631TIP3    H238457   2.176   0.299   7.058
 5632TIP3   OH238458   5.710   4.907   2.131
 5632TIP3    H138459   5.671   4.907   2.219
 5632TIP3    H238460   5.726   4.814   2.113
 5633TIP3   OH238461   4.007   1.224   6.742
 5633TIP3    H138462   4.018   1.152   6.804
 5633TIP3    H238463   3.983   1.182   6.660
 5634TIP3   OH238464   0.056   1.343   7.112
 5634TIP3    H138465   0.104   1.262   7.092
 5634TIP3    H238466   0.091   1.406   7.049
 5635TIP3   OH238467   4.614   6.892   1.749
 5635TIP3    H138468   4.659   6.975   1.731
 5635TIP3    H238469   4.672   6.825   1.711
 5636TIP3   OH238470   2.822   0.277   7.858
 5636TIP3    H138471   2.861   0.311   7.938
 5636TIP3    H238472   2.744   0.230   7.887
 5637TIP3   OH238473   2.274   2.344   1.050
 5637TIP3    H138474   2.346   2.330   0.988
 5637TIP3    H238475   2.317   2.356   1.134
 5638TIP3   OH238476   4.825   4.733   1.494
 5638TIP3    H138477   4.881   4.802   1.530
 5638TIP3    H238478   4.740   4.775   1.484
 5639TIP3   OH238479   5.460   0.334   7.855
 5639TIP3    H138480   5.490   0.384   7.930
 5639TIP3    H238481   5.529   0.270   7.839
 5640TIP3   OH238482   1.863   0.117   0.780
 5640TIP3    H138483   1.930   0.081   0.722
 5640TIP3    H238484   1.852   0.050   0.848
 5641TIP3   OH238485   5.848   5.885   6.998
 5641TIP3    H138486   5.763   5.919   7.024
 5641TIP3    H238487   5.912   5.943   7.039
 5642TIP3   OH238488   2.104   2.183   6.606
 5642TIP3    H138489   2.168   2.218   6.544
 5642TIP3    H238490   2.021   2.184   6.559
 5643TIP3   OH238491   6.112   5.225   7.311
 5643TIP3    H138492   6.026   5.186   7.326
 5643TIP3    H238493   6.095   5.298   7.252
 5644TIP3   OH238494   3.378   1.557   1.897
 5644TIP3    H138495   3.407   1.496   1.964
 5644TIP3    H238496   3.451   1.619   1.888
 5645TIP3   OH238497   1.965   3.133   0.590
 5645TIP3    H138498   2.006   3.128   0.676
 5645TIP3    H238499   2.004   3.060   0.541
 5646TIP3   OH238500   1.424   0.822   0.054
 5646TIP3    H138501   1.381   0.858   0.132
 5646TIP3    H238502   1.390   0.732   0.047
 5647TIP3   OH238503   0.837   3.498   7.743
 5647TIP3    H138504   0.786   3.579   7.752
 5647TIP3    H238505   0.928   3.528   7.734
 5648TIP3   OH238506   6.454   6.655   0.977
 5648TIP3    H138507   6.510   6.584   1.007
 5648TIP3    H238508   6.502   6.735   1.000
 5649TIP3   OH238509   4.600   2.973   1.050
 5649TIP3    H138510   4.669   2.908   1.060
 5649TIP3    H238511   4.641   3.056   1.076
 5650TIP3   OH238512   6.207   2.975   6.930
 5650TIP3    H138513   6.278   2.912   6.919
 5650TIP3    H238514   6.251   3.056   6.959
 5651TIP3   OH238515   4.863   6.578   6.719
 5651TIP3    H138516   4.953   6.547   6.723
 5651TIP3    H238517   4.854   6.616   6.631
 5652TIP3   OH238518   2.058   6.675   2.574
 5652TIP3    H138519   1.973   6.718   2.577
 5652TIP3    H238520   2.121   6.745   2.559
 5653TIP3   OH238521   1.222   4.941   7.863
 5653TIP3    H138522   1.239   5.012   7.925
 5653TIP3    H238523   1.132   4.957   7.834
 5654TIP3   OH238524   6.953   6.920   6.975
 5654TIP3    H138525   6.952   7.012   6.998
 5654TIP3    H238526   7.027   6.883   7.023
 5655TIP3   OH238527   5.770   6.722   6.275
 5655TIP3    H138528   5.845   6.681   6.233
 5655TIP3    H238529   5.761   6.806   6.232
 5656TIP3   OH238530   2.301   3.359   6.688
 5656TIP3    H138531   2.368   3.294   6.708
 5656TIP3    H238532   2.290   3.353   6.593
 5657TIP3   OH238533   6.699   2.012   0.580
 5657TIP3    H138534   6.626   1.977   0.631
 5657TIP3    H238535   6.706   1.955   0.504
 5658TIP3   OH238536   4.845   2.142   6.983
 5658TIP3    H138537   4.818   2.193   6.907
 5658TIP3    H238538   4.796   2.060   6.976
 5659TIP3   OH238539   4.306   5.997   8.015
 5659TIP3    H138540   4.363   6.051   7.960
 5659TIP3    H238541   4.332   6.019   8.105
 5660TIP3   OH238542   2.234   1.980   7.281
 5660TIP3    H138543   2.327   2.001   7.286
 5660TIP3    H238544   2.226   1.898   7.330
 5661TIP3   OH238545   0.596   2.799   0.352
 5661TIP3    H138546   0.613   2.707   0.370
 5661TIP3    H238547   0.623   2.810   0.260
 5662TIP3   OH238548   4.718   0.415   7.451
 5662TIP3    H138549   4.722   0.416   7.546
 5662TIP3    H238550   4.698   0.324   7.428
 5663TIP3   OH238551   4.683   1.458   7.383
 5663TIP3    H138552   4.706   1.370   7.413
 5663TIP3    H238553   4.763   1.509   7.398
 5664TIP3   OH238554   5.609   1.552   1.618
 5664TIP3    H138555   5.616   1.634   1.667
 5664TIP3    H238556   5.515   1.531   1.620
 5665TIP3   OH238557   6.287   0.138   1.069
 5665TIP3    H138558   6.267   0.106   0.981
 5665TIP3    H238559   6.288   0.060   1.124
 5666TIP3   OH238560   6.070   6.743   7.663
 5666TIP3    H138561   6.134   6.687   7.619
 5666TIP3    H238562   6.110   6.831   7.661
 5667TIP3   OH238563   2.074   6.994   0.610
 5667TIP3    H138564   2.160   6.960   0.632
 5667TIP3    H238565   2.088   7.046   0.531
 5668TIP3   OH238566   4.094   5.269   0.082
 5668TIP3    H138567   4.083   5.261   0.177
 5668TIP3    H238568   4.182   5.306   0.071
 5669TIP3   OH238569   2.697   6.462   1.340
 5669TIP3    H138570   2.636   6.421   1.400
 5669TIP3    H238571   2.743   6.527   1.393
 5670TIP3   OH238572   1.408   1.192   1.826
 5670TIP3    H138573   1.430   1.285   1.815
 5670TIP3    H238574   1.483   1.154   1.871
 5671TIP3   OH238575   1.683   3.769   1.990
 5671TIP3    H138576   1.721   3.848   2.029
 5671TIP3    H238577   1.700   3.700   2.055
 5672TIP3   OH238578   2.413   4.530   7.191
 5672TIP3    H138579   2.388   4.623   7.190
 5672TIP3    H238580   2.333   4.484   7.215
 5673TIP3   OH238581   4.305   0.447   6.912
 5673TIP3    H138582   4.275   0.388   6.842
 5673TIP3    H238583   4.227   0.464   6.964
 5674TIP3   OH238584   1.421   3.298   7.917
 5674TIP3    H138585   1.416   3.308   7.822
 5674TIP3    H238586   1.365   3.223   7.936
 5675TIP3   OH238587   4.053   5.279   2.452
 5675TIP3    H138588   4.066   5.200   2.399
 5675TIP3    H238589   3.961   5.275   2.479
 5676TIP3   OH238590   4.521   2.956   7.492
 5676TIP3    H138591   4.488   3.021   7.554
 5676TIP3    H238592   4.586   3.003   7.440
 5677TIP3   OH238593   1.216   2.719   0.048
 5677TIP3    H138594   1.127   2.750   0.036
 5677TIP3    H238595   1.266   2.798   0.070
 5678TIP3   OH238596   2.578   6.486   6.666
 5678TIP3    H138597   2.660   6.528   6.693
 5678TIP3    H238598   2.510   6.549   6.690
 5679TIP3   OH238599   4.645   4.608   6.852
 5679TIP3    H138600   4.686   4.632   6.935
 5679TIP3    H238601   4.690   4.661   6.787
 5680TIP3   OH238602   4.472   6.239   0.180
 5680TIP3    H138603   4.464   6.196   0.265
 5680TIP3    H238604   4.547   6.297   0.188
 5681TIP3   OH238605   2.512   1.325   0.876
 5681TIP3    H138606   2.569   1.346   0.802
 5681TIP3    H238607   2.569   1.280   0.939
 5682TIP3   OH238608   1.362   5.760   0.111
 5682TIP3    H138609   1.406   5.792   0.189
 5682TIP3    H238610   1.281   5.721   0.144
 5683TIP3   OH238611   2.748   4.723   0.824
 5683TIP3    H138612   2.716   4.736   0.735
 5683TIP3    H238613   2.723   4.803   0.870
 5684TIP3   OH238614   6.774   6.141   0.316
 5684TIP3    H138615   6.811   6.183   0.393
 5684TIP3    H238616   6.684   6.119   0.342
 5685TIP3   OH238617   5.487   4.583   1.187
 5685TIP3    H138618   5.504   4.647   1.119
 5685TIP3    H238619   5.417   4.622   1.239
 5686TIP3   OH238620   5.278   2.134   7.788
 5686TIP3    H138621   5.216   2.065   7.812
 5686TIP3    H238622   5.243   2.213   7.830
 5687TIP3   OH238623   3.452   5.479   0.809
 5687TIP3    H138624   3.451   5.454   0.717
 5687TIP3    H238625   3.362   5.467   0.839
 5688TIP3   OH238626   2.634   4.944   0.974
 5688TIP3    H138627   2.592   4.866   1.011
 5688TIP3    H238628   2.639   5.006   1.046
 5689TIP3   OH238629   6.098   6.400   0.377
 5689TIP3    H138630   6.132   6.489   0.380
 5689TIP3    H238631   6.029   6.403   0.310
 5690TIP3   OH238632   0.110   4.773   0.348
 5690TIP3    H138633   0.154   4.782   0.432
 5690TIP3    H238634   0.144   4.691   0.312
 5691TIP3   OH238635   3.717   3.502   0.738
 5691TIP3    H138636   3.632   3.503   0.693
 5691TIP3    H238637   3.759   3.584   0.713
 5692TIP3   OH238638   3.306   3.290   6.687
 5692TIP3    H138639   3.318   3.359   6.752
 5692TIP3    H238640   3.365   3.313   6.616
 5693TIP3   OH238641   3.168   4.057   1.634
 5693TIP3    H138642   3.166   3.963   1.651
 5693TIP3    H238643   3.184   4.097   1.720
 5694TIP3   OH238644   2.694   2.519   6.026
 5694TIP3    H138645   2.657   2.531   6.114
 5694TIP3    H238646   2.620   2.493   5.972
 5695TIP3   OH238647   6.176   2.446   2.324
 5695TIP3    H138648   6.092   2.400   2.326
 5695TIP3    H238649   6.241   2.378   2.338
 5696TIP3   OH238650   5.737   0.679   6.581
 5696TIP3    H138651   5.824   0.670   6.542
 5696TIP3    H238652   5.693   0.745   6.526
 5697TIP3   OH238653   3.983   4.942   1.696
 5697TIP3    H138654   3.970   4.849   1.677
 5697TIP3    H238655   3.902   4.969   1.739
 5698TIP3   OH238656   0.109   3.889   8.075
 5698TIP3    H138657   0.157   3.807   8.090
 5698TIP3    H238658   0.110   3.934   8.159
 5699TIP3   OH238659   1.373   5.012   6.143
 5699TIP3    H138660   1.361   4.963   6.224
 5699TIP3    H238661   1.467   5.030   6.139
 5700TIP3   OH238662   5.516   1.935   7.122
 5700TIP3    H138663   5.503   2.029   7.136
 5700TIP3    H238664   5.589   1.912   7.179
 5701TIP3   OH238665   4.074   5.726   7.853
 5701TIP3    H138666   4.022   5.685   7.783
 5701TIP3    H238667   4.044   5.683   7.933
 5702TIP3   OH238668   3.047   6.291   7.477
 5702TIP3    H138669   2.959   6.272   7.508
 5702TIP3    H238670   3.101   6.295   7.556
 5703TIP3   OH238671   3.257   5.036   8.254
 5703TIP3    H138672   3.275   5.091   8.178
 5703TIP3    H238673   3.229   4.952   8.217
 5704TIP3   OH238674   4.851   0.162   6.612
 5704TIP3    H138675   4.766   0.157   6.569
 5704TIP3    H238676   4.893   0.240   6.574
 5705TIP3   OH238677   2.007   0.370   7.097
 5705TIP3    H138678   1.927   0.325   7.070
 5705TIP3    H238679   1.979   0.459   7.116
 5706TIP3   OH238680   0.151   2.126   8.082
 5706TIP3    H138681   0.167   2.208   8.130
 5706TIP3    H238682   0.235   2.080   8.085
 5707TIP3   OH238683   6.619   2.583   6.583
 5707TIP3    H138684   6.630   2.676   6.563
 5707TIP3    H238685   6.632   2.539   6.499
 5708TIP3   OH238686   6.174   0.943   0.263
 5708TIP3    H138687   6.131   0.929   0.179
 5708TIP3    H238688   6.183   1.038   0.271
 5709TIP3   OH238689   1.061   5.802   8.256
 5709TIP3    H138690   1.137   5.859   8.240
 5709TIP3    H238691   1.001   5.856   8.307
 5710TIP3   OH238692   3.159   5.755   8.281
 5710TIP3    H138693   3.222   5.793   8.342
 5710TIP3    H238694   3.115   5.686   8.330
 5711TIP3   OH238695   4.769   0.646   8.045
 5711TIP3    H138696   4.714   0.567   8.036
 5711TIP3    H238697   4.739   0.704   7.975
 5712TIP3   OH238698   4.716   6.279   0.288
 5712TIP3    H138699   4.690   6.243   0.373
 5712TIP3    H238700   4.808   6.252   0.278
 5713TIP3   OH238701   5.244   3.397   6.509
 5713TIP3    H138702   5.243   3.324   6.447
 5713TIP3    H238703   5.220   3.473   6.456
 5714TIP3   OH238704   6.131   4.518   6.202
 5714TIP3    H138705   6.071   4.483   6.268
 5714TIP3    H238706   6.170   4.441   6.161
 5715TIP3   OH238707   0.584   3.224   1.598
 5715TIP3    H138708   0.644   3.298   1.603
 5715TIP3    H238709   0.503   3.261   1.563
 5716TIP3   OH238710   2.501   2.862   1.323
 5716TIP3    H138711   2.528   2.893   1.410
 5716TIP3    H238712   2.431   2.799   1.341
 5717TIP3   OH238713   2.238   6.017   6.862
 5717TIP3    H138714   2.304   6.082   6.886
 5717TIP3    H238715   2.162   6.039   6.916
 5718TIP3   OH238716   0.785   6.743   8.261
 5718TIP3    H138717   0.739   6.660   8.275
 5718TIP3    H238718   0.876   6.718   8.247
 5719TIP3   OH238719   6.253   2.903   7.229
 5719TIP3    H138720   6.344   2.902   7.201
 5719TIP3    H238721   6.243   2.825   7.283
 5720TIP3   OH238722   2.677   1.618   0.907
 5720TIP3    H138723   2.690   1.652   0.818
 5720TIP3    H238724   2.761   1.636   0.951
 5721TIP3   OH238725   6.476   5.612   7.322
 5721TIP3    H138726   6.560   5.622   7.276
 5721TIP3    H238727   6.451   5.702   7.344
 5722TIP3   OH238728   1.784   0.433   2.348
 5722TIP3    H138729   1.693   0.444   2.322
 5722TIP3    H238730   1.815   0.523   2.363
 5723TIP3   OH238731   4.175   6.303   7.232
 5723TIP3    H138732   4.262   6.285   7.195
 5723TIP3    H238733   4.115   6.262   7.170
 5724TIP3   OH238734   4.612   5.201   1.418
 5724TIP3    H138735   4.551   5.144   1.372
 5724TIP3    H238736   4.636   5.152   1.496
 5725TIP3   OH238737   3.544   4.416   7.916
 5725TIP3    H138738   3.458   4.399   7.877
 5725TIP3    H238739   3.604   4.365   7.861
 5726TIP3   OH238740   1.782   6.653   1.716
 5726TIP3    H138741   1.806   6.736   1.673
 5726TIP3    H238742   1.778   6.675   1.809
 5727TIP3   OH238743   1.729   1.411   7.073
 5727TIP3    H138744   1.783   1.343   7.113
 5727TIP3    H238745   1.762   1.418   6.983
 5728TIP3   OH238746   2.829   2.385   6.790
 5728TIP3    H138747   2.780   2.340   6.721
 5728TIP3    H238748   2.921   2.361   6.774
 5729TIP3   OH238749   5.731   6.954   6.150
 5729TIP3    H138750   5.675   6.981   6.223
 5729TIP3    H238751   5.692   6.995   6.073
 5730TIP3   OH238752   1.073   1.359   7.953
 5730TIP3    H138753   1.011   1.411   7.902
 5730TIP3    H238754   1.042   1.269   7.944
 5731TIP3   OH238755   4.790   3.279   6.756
 5731TIP3    H138756   4.885   3.273   6.743
 5731TIP3    H238757   4.756   3.194   6.728
 5732TIP3   OH238758   1.817   5.502   7.610
 5732TIP3    H138759   1.813   5.449   7.531
 5732TIP3    H238760   1.726   5.525   7.628
 5733TIP3   OH238761   3.576   2.026   1.383
 5733TIP3    H138762   3.536   2.083   1.318
 5733TIP3    H238763   3.502   1.997   1.437
 5734TIP3   OH238764   3.337   6.889   0.677
 5734TIP3    H138765   3.414   6.941   0.654
 5734TIP3    H238766   3.300   6.862   0.593
 5735TIP3   OH238767   4.986   6.020   6.363
 5735TIP3    H138768   5.044   6.051   6.294
 5735TIP3    H238769   4.998   5.925   6.364
 5736TIP3   OH238770   1.741   3.495   0.903
 5736TIP3    H138771   1.712   3.585   0.886
 5736TIP3    H238772   1.670   3.457   0.954
 5737TIP3   OH238773   1.254   6.824   1.666
 5737TIP3    H138774   1.313   6.797   1.736
 5737TIP3    H238775   1.280   6.914   1.646
 5738TIP3   OH238776   1.096   3.185   6.368
 5738TIP3    H138777   1.008   3.149   6.375
 5738TIP3    H238778   1.143   3.122   6.313
 5739TIP3   OH238779   6.716   6.661   8.087
 5739TIP3    H138780   6.758   6.582   8.053
 5739TIP3    H238781   6.713   6.720   8.013
 5740TIP3   OH238782   6.866   4.049   6.662
 5740TIP3    H138783   6.854   4.004   6.745
 5740TIP3    H238784   6.929   3.995   6.614
 5741TIP3   OH238785   6.964   2.489   8.393
 5741TIP3    H138786   6.958   2.394   8.402
 5741TIP3    H238787   6.920   2.508   8.310
 5742TIP3   OH238788   5.422   3.278   1.636
 5742TIP3    H138789   5.447   3.367   1.660
 5742TIP3    H238790   5.492   3.249   1.577
 5743TIP3   OH238791   2.019   0.384   8.339
 5743TIP3    H138792   2.059   0.307   8.379
 5743TIP3    H238793   1.931   0.355   8.314
 5744TIP3   OH238794   0.568   4.722   1.716
 5744TIP3    H138795   0.576   4.701   1.809
 5744TIP3    H238796   0.594   4.814   1.710
 5745TIP3   OH238797   2.476   3.545   0.181
 5745TIP3    H138798   2.404   3.577   0.127
 5745TIP3    H238799   2.510   3.469   0.133
 5746TIP3   OH238800   1.724   6.510   7.741
 5746TIP3    H138801   1.697   6.419   7.750
 5746TIP3    H238802   1.664   6.546   7.676
 5747TIP3   OH238803   3.079   2.625   1.687
 5747TIP3    H138804   3.152   2.678   1.720
 5747TIP3    H238805   3.092   2.623   1.592
 5748TIP3   OH238806   6.356   5.335   7.887
 5748TIP3    H138807   6.339   5.373   7.800
 5748TIP3    H238808   6.447   5.307   7.884
 5749TIP3   OH238809   3.274   3.703   8.169
 5749TIP3    H138810   3.277   3.763   8.095
 5749TIP3    H238811   3.240   3.621   8.131
 5750TIP3   OH238812   4.576   5.606   0.993
 5750TIP3    H138813   4.567   5.674   0.926
 5750TIP3    H238814   4.582   5.654   1.075
 5751TIP3   OH238815   6.084   1.040   1.797
 5751TIP3    H138816   6.048   1.003   1.716
 5751TIP3    H238817   6.171   1.070   1.774
 5752TIP3   OH238818   0.791   6.810   7.963
 5752TIP3    H138819   0.829   6.858   7.888
 5752TIP3    H238820   0.862   6.809   8.028
 5753TIP3   OH238821   1.529   3.928   7.460
 5753TIP3    H138822   1.563   4.017   7.465
 5753TIP3    H238823   1.441   3.933   7.497
 5754TIP3   OH238824   3.427   2.664   8.025
 5754TIP3    H138825   3.480   2.702   8.095
 5754TIP3    H238826   3.412   2.574   8.052
 5755TIP3   OH238827   0.682   2.060   0.675
 5755TIP3    H138828   0.632   2.073   0.755
 5755TIP3    H238829   0.773   2.050   0.704
 5756TIP3   OH238830   5.223   2.441   0.173
 5756TIP3    H138831   5.205   2.371   0.110
 5756TIP3    H238832   5.253   2.514   0.119
 5757TIP3   OH238833   3.674   4.097   1.277
 5757TIP3    H138834   3.750   4.044   1.253
 5757TIP3    H238835   3.639   4.128   1.193
 5758TIP3   OH238836   6.360   0.654   1.841
 5758TIP3    H138837   6.368   0.695   1.927
 5758TIP3    H238838   6.277   0.607   1.844
 5759TIP3   OH238839   5.355   5.998   0.795
 5759TIP3    H138840   5.301   5.920   0.811
 5759TIP3    H238841   5.333   6.024   0.706
 5760TIP3   OH238842   1.507   5.273   2.103
 5760TIP3    H138843   1.515   5.362   2.070
 5760TIP3    H238844   1.573   5.267   2.172
 5761TIP3   OH238845   2.863   0.677   6.799
 5761TIP3    H138846   2.830   0.713   6.717
 5761TIP3    H238847   2.918   0.603   6.773
 5762TIP3   OH238848   3.203   2.695   6.970
 5762TIP3    H138849   3.262   2.725   6.900
 5762TIP3    H238850   3.198   2.769   7.030
 5763TIP3   OH238851   1.846   0.151   8.107
 5763TIP3    H138852   1.883   0.200   8.033
 5763TIP3    H238853   1.793   0.216   8.154
 5764TIP3   OH238854   5.317   3.633   0.854
 5764TIP3    H138855   5.361   3.718   0.850
 5764TIP3    H238856   5.374   3.580   0.911
 5765TIP3   OH238857   6.839   6.767   6.767
 5765TIP3    H138858   6.847   6.836   6.833
 5765TIP3    H238859   6.745   6.746   6.768
 5766TIP3   OH238860   1.416   6.047   2.193
 5766TIP3    H138861   1.481   5.977   2.202
 5766TIP3    H238862   1.338   6.004   2.159
 5767TIP3   OH238863   3.187   1.316   5.875
 5767TIP3    H138864   3.232   1.319   5.959
 5767TIP3    H238865   3.254   1.290   5.812
 5768TIP3   OH238866   1.132   0.755   7.807
 5768TIP3    H138867   1.168   0.841   7.828
 5768TIP3    H238868   1.209   0.700   7.793
 5769TIP3   OH238869   5.481   0.554   2.002
 5769TIP3    H138870   5.559   0.569   2.056
 5769TIP3    H238871   5.433   0.486   2.049
 5770TIP3   OH238872   1.960   6.120   8.388
 5770TIP3    H138873   2.046   6.152   8.361
 5770TIP3    H238874   1.931   6.065   8.315
 5771TIP3   OH238875   6.097   3.254   2.198
 5771TIP3    H138876   6.177   3.300   2.221
 5771TIP3    H238877   6.098   3.175   2.251
 5772TIP3   OH238878   1.572   6.875   7.621
 5772TIP3    H138879   1.568   6.950   7.561
 5772TIP3    H238880   1.515   6.810   7.581
 5773TIP3   OH238881   2.511   4.020   1.809
 5773TIP3    H138882   2.461   4.100   1.823
 5773TIP3    H238883   2.454   3.950   1.840
 5774TIP3   OH238884   0.555   6.861   7.872
 5774TIP3    H138885   0.636   6.832   7.915
 5774TIP3    H238886   0.548   6.954   7.892
 5775TIP3   OH238887   5.119   0.393   5.752
 5775TIP3    H138888   5.107   0.488   5.755
 5775TIP3    H238889   5.133   0.369   5.844
 5776TIP3   OH238890   6.092   6.972   1.201
 5776TIP3    H138891   6.110   6.904   1.136
 5776TIP3    H238892   5.997   6.973   1.208
 5777TIP3   OH238893   1.459   6.944   1.836
 5777TIP3    H138894   1.532   6.927   1.896
 5777TIP3    H238895   1.477   7.031   1.801
 5778TIP3   OH238896   3.252   6.674   2.047
 5778TIP3    H138897   3.317   6.703   1.982
 5778TIP3    H238898   3.241   6.580   2.029
 5779TIP3   OH238899   4.259   1.367   8.064
 5779TIP3    H138900   4.334   1.388   8.008
 5779TIP3    H238901   4.197   1.323   8.007
 5780TIP3   OH238902   5.874   5.410   6.854
 5780TIP3    H138903   5.901   5.470   6.924
 5780TIP3    H238904   5.829   5.466   6.791
 5781TIP3   OH238905   5.065   4.988   8.261
 5781TIP3    H138906   5.041   5.073   8.298
 5781TIP3    H238907   4.982   4.953   8.228
 5782TIP3   OH238908   5.301   3.837   0.213
 5782TIP3    H138909   5.304   3.933   0.204
 5782TIP3    H238910   5.208   3.817   0.220
 5783TIP3   OH238911   4.430   0.400   7.700
 5783TIP3    H138912   4.354   0.361   7.743
 5783TIP3    H238913   4.395   0.442   7.621
 5784TIP3   OH238914   5.077   5.751   6.591
 5784TIP3    H138915   5.130   5.822   6.624
 5784TIP3    H238916   5.118   5.726   6.508
 5785TIP3   OH238917   1.020   3.144   1.345
 5785TIP3    H138918   0.964   3.222   1.346
 5785TIP3    H238919   1.002   3.100   1.428
 5786TIP3   OH238920   0.396   4.728   0.092
 5786TIP3    H138921   0.477   4.685   0.065
 5786TIP3    H238922   0.358   4.762   0.011
 5787TIP3   OH238923   0.445   2.284   8.067
 5787TIP3    H138924   0.391   2.304   8.143
 5787TIP3    H238925   0.438   2.189   8.056
 5788TIP3   OH238926   0.838   1.492   0.215
 5788TIP3    H138927   0.777   1.420   0.234
 5788TIP3    H238928   0.910   1.479   0.278
 5789TIP3   OH238929   0.256   2.287   8.278
 5789TIP3    H138930   0.260   2.347   8.352
 5789TIP3    H238931   0.266   2.200   8.316
 5790TIP3   OH238932   4.407   6.214   7.183
 5790TIP3    H138933   4.415   6.120   7.171
 5790TIP3    H238934   4.486   6.239   7.231
 5791TIP3   OH238935   4.447   0.876   1.608
 5791TIP3    H138936   4.531   0.842   1.576
 5791TIP3    H238937   4.471   0.951   1.663
 5792TIP3   OH238938   6.141   2.417   6.750
 5792TIP3    H138939   6.235   2.426   6.735
 5792TIP3    H238940   6.103   2.419   6.662
 5793TIP3   OH238941   4.178   4.588   1.143
 5793TIP3    H138942   4.147   4.511   1.094
 5793TIP3    H238943   4.101   4.645   1.148
 5794TIP3   OH238944   3.933   6.408   0.968
 5794TIP3    H138945   3.999   6.476   0.980
 5794TIP3    H238946   3.910   6.413   0.875
 5795TIP3   OH238947   3.221   4.283   7.340
 5795TIP3    H138948   3.215   4.377   7.322
 5795TIP3    H238949   3.132   4.258   7.366
 5796TIP3   OH238950   2.512   6.164   1.466
 5796TIP3    H138951   2.495   6.246   1.513
 5796TIP3    H238952   2.452   6.167   1.392
 5797TIP3   OH238953   0.428   3.503   6.521
 5797TIP3    H138954   0.410   3.409   6.521
 5797TIP3    H238955   0.523   3.510   6.524
 5798TIP3   OH238956   1.427   3.550   8.200
 5798TIP3    H138957   1.432   3.454   8.201
 5798TIP3    H238958   1.510   3.579   8.238
 5799TIP3   OH238959   0.531   6.451   7.933
 5799TIP3    H138960   0.470   6.525   7.923
 5799TIP3    H238961   0.506   6.390   7.864
 5800TIP3   OH238962   0.296   3.702   6.675
 5800TIP3    H138963   0.365   3.647   6.637
 5800TIP3    H238964   0.332   3.731   6.759
 5801TIP3   OH238965   0.310   1.672   6.395
 5801TIP3    H138966   0.231   1.626   6.422
 5801TIP3    H238967   0.311   1.666   6.300
 5802TIP3   OH238968   2.932   2.229   7.232
 5802TIP3    H138969   2.867   2.164   7.257
 5802TIP3    H238970   2.895   2.312   7.262
 5803TIP3   OH238971   4.158   2.738   6.817
 5803TIP3    H138972   4.153   2.700   6.729
 5803TIP3    H238973   4.121   2.826   6.807
 5804TIP3   OH238974   5.105   5.215   1.380
 5804TIP3    H138975   5.193   5.216   1.342
 5804TIP3    H238976   5.052   5.265   1.317
 5805TIP3   OH238977   4.952   6.258   1.810
 5805TIP3    H138978   4.862   6.255   1.842
 5805TIP3    H238979   5.003   6.289   1.884
 5806TIP3   OH238980   0.620   1.449   1.445
 5806TIP3    H138981   0.666   1.408   1.518
 5806TIP3    H238982   0.579   1.527   1.482
 5807TIP3   OH238983   1.029   0.985   6.430
 5807TIP3    H138984   0.958   0.920   6.430
 5807TIP3    H238985   1.006   1.046   6.360
 5808TIP3   OH238986   4.379   0.443   8.314
 5808TIP3    H138987   4.341   0.356   8.327
 5808TIP3    H238988   4.427   0.461   8.394
 5809TIP3   OH238989   5.656   1.760   0.647
 5809TIP3    H138990   5.563   1.781   0.656
 5809TIP3    H238991   5.657   1.678   0.598
 5810TIP3   OH238992   5.152   5.626   8.016
 5810TIP3    H138993   5.188   5.668   7.938
 5810TIP3    H238994   5.091   5.560   7.983
 5811TIP3   OH238995   6.075   4.973   1.367
 5811TIP3    H138996   6.117   4.991   1.451
 5811TIP3    H238997   6.039   5.058   1.340
 5812TIP3   OH238998   3.548   2.336   0.754
 5812TIP3    H138999   3.541   2.259   0.810
 5812TIP3    H239000   3.592   2.401   0.810
 5813TIP3   OH239001   5.818   3.196   7.470
 5813TIP3    H139002   5.835   3.211   7.563
 5813TIP3    H239003   5.878   3.126   7.445
 5814TIP3   OH239004   0.402   0.653   7.164
 5814TIP3    H139005   0.399   0.744   7.134
 5814TIP3    H239006   0.342   0.650   7.238
 5815TIP3   OH239007   4.168   0.380   7.807
 5815TIP3    H139008   4.086   0.332   7.823
 5815TIP3    H239009   4.158   0.461   7.857
 5816TIP3   OH239010   6.154   6.410   1.835
 5816TIP3    H139011   6.207   6.331   1.846
 5816TIP3    H239012   6.200   6.476   1.887
 5817TIP3   OH239013   2.562   3.233   6.133
 5817TIP3    H139014   2.657   3.227   6.145
 5817TIP3    H239015   2.535   3.147   6.102
 5818TIP3   OH239016   4.786   0.230   7.825
 5818TIP3    H139017   4.714   0.173   7.798
 5818TIP3    H239018   4.827   0.184   7.899
 5819TIP3   OH239019   1.467   1.095   7.880
 5819TIP3    H139020   1.542   1.050   7.841
 5819TIP3    H239021   1.391   1.056   7.837
 5820TIP3   OH239022   3.871   6.197   6.868
 5820TIP3    H139023   3.794   6.247   6.842
 5820TIP3    H239024   3.915   6.175   6.786
 5821TIP3   OH239025   6.065   6.707   7.231
 5821TIP3    H139026   6.010   6.768   7.181
 5821TIP3    H239027   6.107   6.762   7.298
 5822TIP3   OH239028   2.284   0.762   7.638
 5822TIP3    H139029   2.368   0.805   7.657
 5822TIP3    H239030   2.245   0.817   7.570
 5823TIP3   OH239031   4.384   0.141   8.363
 5823TIP3    H139032   4.324   0.084   8.412
 5823TIP3    H239033   4.376   0.112   8.272
 5824TIP3   OH239034   0.083   1.604   6.952
 5824TIP3    H139035   0.155   1.561   6.905
 5824TIP3    H239036   0.048   1.667   6.889
 5825TIP3   OH239037   4.821   2.738   1.131
 5825TIP3    H139038   4.856   2.804   1.071
 5825TIP3    H239039   4.867   2.753   1.213
 5826TIP3   OH239040   2.585   6.181   0.012
 5826TIP3    H139041   2.654   6.238   0.045
 5826TIP3    H239042   2.568   6.211  -0.077
 5827TIP3   OH239043   5.325   1.634   1.187
 5827TIP3    H139044   5.383   1.711   1.183
 5827TIP3    H239045   5.384   1.560   1.200
 5828TIP3   OH239046   4.019   6.475   6.154
 5828TIP3    H139047   4.057   6.556   6.187
 5828TIP3    H239048   4.087   6.409   6.166
 5829TIP3   OH239049   5.027   2.330   2.013
 5829TIP3    H139050   5.008   2.239   2.034
 5829TIP3    H239051   4.955   2.379   2.052
 5830TIP3   OH239052   3.457   1.127   0.475
 5830TIP3    H139053   3.391   1.196   0.477
 5830TIP3    H239054   3.483   1.117   0.567
 5831TIP3   OH239055   1.078   2.879   7.727
 5831TIP3    H139056   0.998   2.917   7.764
 5831TIP3    H239057   1.129   2.955   7.698
 5832TIP3   OH239058   5.887   2.420   7.960
 5832TIP3    H139059   5.803   2.383   7.987
 5832TIP3    H239060   5.935   2.431   8.042
 5833TIP3   OH239061   0.028   5.391   7.446
 5833TIP3    H139062  -0.009   5.445   7.515
 5833TIP3    H239063  -0.041   5.387   7.379
 5834TIP3   OH239064   1.255   0.993   7.760
 5834TIP3    H139065   1.305   0.968   7.682
 5834TIP3    H239066   1.176   1.034   7.725
 5835TIP3   OH239067   6.971   2.984   0.478
 5835TIP3    H139068   6.945   3.052   0.540
 5835TIP3    H239069   6.897   2.922   0.478
 5836TIP3   OH239070   3.401   1.591   7.096
 5836TIP3    H139071   3.483   1.547   7.071
 5836TIP3    H239072   3.350   1.523   7.139
 5837TIP3   OH239073   5.262   3.536   7.723
 5837TIP3    H139074   5.209   3.582   7.658
 5837TIP3    H239075   5.333   3.597   7.743
 5838TIP3   OH239076   4.295   2.144   0.784
 5838TIP3    H139077   4.350   2.177   0.855
 5838TIP3    H239078   4.214   2.116   0.827
 5839TIP3   OH239079   2.564   2.358   8.288
 5839TIP3    H139080   2.532   2.289   8.346
 5839TIP3    H239081   2.491   2.420   8.283
 5840TIP3   OH239082   5.575   0.347   1.302
 5840TIP3    H139083   5.666   0.354   1.332
 5840TIP3    H239084   5.558   0.432   1.261
 5841TIP3   OH239085   3.331   1.351   6.121
 5841TIP3    H139086   3.357   1.321   6.208
 5841TIP3    H239087   3.409   1.396   6.087
 5842TIP3   OH239088   1.228   0.148   6.508
 5842TIP3    H139089   1.225   0.135   6.413
 5842TIP3    H239090   1.263   0.065   6.541
 5843TIP3   OH239091   3.988   3.031   0.678
 5843TIP3    H139092   4.083   3.044   0.666
 5843TIP3    H239093   3.953   3.120   0.683
 5844TIP3   OH239094   1.136   3.557   1.089
 5844TIP3    H139095   1.177   3.575   1.004
 5844TIP3    H239096   1.210   3.552   1.150
 5845TIP3   OH239097   6.558   1.663   7.438
 5845TIP3    H139098   6.599   1.595   7.492
 5845TIP3    H239099   6.531   1.617   7.358
 5846TIP3   OH239100   2.476   5.757   0.329
 5846TIP3    H139101   2.444   5.845   0.350
 5846TIP3    H239102   2.463   5.706   0.409
 5847TIP3   OH239103   6.281   3.485   0.970
 5847TIP3    H139104   6.237   3.435   1.039
 5847TIP3    H239105   6.347   3.537   1.017
 5848TIP3   OH239106   4.040   5.226   0.348
 5848TIP3    H139107   4.109   5.187   0.400
 5848TIP3    H239108   4.040   5.319   0.372
 5849TIP3   OH239109   1.494   1.461   0.099
 5849TIP3    H139110   1.550   1.398   0.145
 5849TIP3    H239111   1.549   1.496   0.030
 5850TIP3   OH239112   0.663   4.863   0.090
 5850TIP3    H139113   0.621   4.868   0.176
 5850TIP3    H239114   0.742   4.916   0.099
 5851TIP3   OH239115   5.874   4.109   6.821
 5851TIP3    H139116   5.878   4.147   6.908
 5851TIP3    H239117   5.948   4.148   6.774
 5852TIP3   OH239118   1.751   5.139   7.542
 5852TIP3    H139119   1.698   5.214   7.570
 5852TIP3    H239120   1.833   5.177   7.513
 5853TIP3   OH239121   5.960   6.135   1.328
 5853TIP3    H139122   5.998   6.205   1.274
 5853TIP3    H239123   6.008   6.057   1.304
 5854TIP3   OH239124   6.225   6.754   1.089
 5854TIP3    H139125   6.298   6.703   1.053
 5854TIP3    H239126   6.226   6.733   1.182
 5855TIP3   OH239127   2.636   3.802   0.321
 5855TIP3    H139128   2.568   3.773   0.261
 5855TIP3    H239129   2.614   3.893   0.341
 5856TIP3   OH239130   0.743   0.909   7.467
 5856TIP3    H139131   0.657   0.916   7.424
 5856TIP3    H239132   0.804   0.946   7.403
 5857TIP3   OH239133   2.094   4.794   6.791
 5857TIP3    H139134   2.126   4.884   6.802
 5857TIP3    H239135   2.099   4.779   6.697
 5858TIP3   OH239136   0.249   3.449   2.297
 5858TIP3    H139137   0.234   3.541   2.320
 5858TIP3    H239138   0.299   3.414   2.370
 5859TIP3   OH239139   5.219   1.060   7.899
 5859TIP3    H139140   5.152   1.035   7.963
 5859TIP3    H239141   5.170   1.072   7.818
 5860TIP3   OH239142   5.960   2.888   7.733
 5860TIP3    H139143   6.025   2.903   7.665
 5860TIP3    H239144   5.922   2.803   7.712
 5861TIP3   OH239145   6.857   2.831   0.198
 5861TIP3    H139146   6.852   2.907   0.140
 5861TIP3    H239147   6.950   2.819   0.214
 5862TIP3   OH239148   6.846   1.938   1.245
 5862TIP3    H139149   6.940   1.922   1.246
 5862TIP3    H239150   6.808   1.855   1.215
 5863TIP3   OH239151   2.497   0.936   6.552
 5863TIP3    H139152   2.556   1.006   6.580
 5863TIP3    H239153   2.449   0.974   6.478
 5864TIP3   OH239154   6.026   1.881   7.788
 5864TIP3    H139155   5.971   1.889   7.866
 5864TIP3    H239156   6.091   1.951   7.797
 5865TIP3   OH239157   4.416   6.073   0.820
 5865TIP3    H139158   4.418   6.119   0.904
 5865TIP3    H239159   4.479   6.002   0.830
 5866TIP3   OH239160   2.489   2.467   7.818
 5866TIP3    H139161   2.561   2.529   7.818
 5866TIP3    H239162   2.527   2.385   7.849
 5867TIP3   OH239163   0.172   2.484   7.902
 5867TIP3    H139164   0.131   2.528   7.827
 5867TIP3    H239165   0.101   2.434   7.942
 5868TIP3   OH239166   2.230   4.288   7.827
 5868TIP3    H139167   2.254   4.237   7.750
 5868TIP3    H239168   2.257   4.377   7.806
 5869TIP3   OH239169   0.023   5.669   0.906
 5869TIP3    H139170   0.032   5.648   0.814
 5869TIP3    H239171  -0.041   5.740   0.909
 5870TIP3   OH239172   2.028   5.344   7.701
 5870TIP3    H139173   1.964   5.416   7.700
 5870TIP3    H239174   2.053   5.333   7.609
 5871TIP3   OH239175   3.978   0.183   8.227
 5871TIP3    H139176   4.007   0.214   8.312
 5871TIP3    H239177   3.976   0.261   8.172
 5872TIP3   OH239178   0.270   2.871   5.954
 5872TIP3    H139179   0.357   2.835   5.970
 5872TIP3    H239180   0.219   2.797   5.922
 5873TIP3   OH239181   1.430   2.116   1.874
 5873TIP3    H139182   1.463   2.203   1.853
 5873TIP3    H239183   1.493   2.081   1.937
 5874TIP3   OH239184   3.891   0.415   7.576
 5874TIP3    H139185   3.808   0.450   7.544
 5874TIP3    H239186   3.944   0.493   7.595
 5875TIP3   OH239187   5.238   0.297   1.318
 5875TIP3    H139188   5.271   0.302   1.228
 5875TIP3    H239189   5.260   0.383   1.355
 5876TIP3   OH239190   0.996   4.650   6.683
 5876TIP3    H139191   0.986   4.684   6.772
 5876TIP3    H239192   0.915   4.675   6.639
 5877TIP3   OH239193   3.712   1.265   6.834
 5877TIP3    H139194   3.803   1.279   6.808
 5877TIP3    H239195   3.661   1.307   6.765
 5878TIP3   OH239196   4.751   2.454   1.029
 5878TIP3    H139197   4.835   2.428   1.068
 5878TIP3    H239198   4.697   2.480   1.103
 5879TIP3   OH239199   6.961   1.901   7.043
 5879TIP3    H139200   7.004   1.827   7.000
 5879TIP3    H239201   7.032   1.963   7.060
 5880TIP3   OH239202   5.003   2.066   0.387
 5880TIP3    H139203   4.976   2.064   0.479
 5880TIP3    H239204   5.054   2.147   0.379
 5881TIP3   OH239205   0.686   1.585   0.972
 5881TIP3    H139206   0.613   1.526   0.953
 5881TIP3    H239207   0.728   1.545   1.048
 5882TIP3   OH239208   0.791   5.522   0.978
 5882TIP3    H139209   0.885   5.538   0.986
 5882TIP3    H239210   0.752   5.609   0.976
 5883TIP3   OH239211   3.055   2.282   7.706
 5883TIP3    H139212   3.012   2.293   7.791
 5883TIP3    H239213   3.145   2.258   7.726
 5884TIP3   OH239214   4.758   4.749   7.901
 5884TIP3    H139215   4.730   4.759   7.810
 5884TIP3    H239216   4.680   4.721   7.947
 5885TIP3   OH239217   1.819   3.155   6.324
 5885TIP3    H139218   1.892   3.209   6.354
 5885TIP3    H239219   1.821   3.078   6.381
 5886TIP3   OH239220   3.063   0.366   7.011
 5886TIP3    H139221   3.056   0.458   7.035
 5886TIP3    H239222   3.155   0.344   7.026
 5887TIP3   OH239223   1.892   4.329   6.778
 5887TIP3    H139224   1.880   4.361   6.688
 5887TIP3    H239225   1.968   4.377   6.810
 5888TIP3   OH239226   0.836   2.721   7.288
 5888TIP3    H139227   0.882   2.779   7.227
 5888TIP3    H239228   0.836   2.636   7.244
 5889TIP3   OH239229   4.109   1.889   0.712
 5889TIP3    H139230   4.040   1.907   0.776
 5889TIP3    H239231   4.110   1.966   0.655
 5890TIP3   OH239232   4.522   4.642   1.423
 5890TIP3    H139233   4.552   4.551   1.432
 5890TIP3    H239234   4.469   4.658   1.501
 5891TIP3   OH239235   5.826   5.096   1.632
 5891TIP3    H139236   5.917   5.081   1.658
 5891TIP3    H239237   5.774   5.059   1.702
 5892TIP3   OH239238   5.503   1.164   6.882
 5892TIP3    H139239   5.513   1.069   6.878
 5892TIP3    H239240   5.422   1.178   6.930
 5893TIP3   OH239241   2.797   6.121   1.549
 5893TIP3    H139242   2.838   6.186   1.607
 5893TIP3    H239243   2.704   6.142   1.552
 5894TIP3   OH239244   6.514   2.361   6.382
 5894TIP3    H139245   6.604   2.372   6.354
 5894TIP3    H239246   6.470   2.441   6.355
 5895TIP3   OH239247   0.191   4.960   6.774
 5895TIP3    H139248   0.247   4.900   6.823
 5895TIP3    H239249   0.155   4.907   6.703
 5896TIP3   OH239250   0.595   3.451   6.810
 5896TIP3    H139251   0.655   3.496   6.751
 5896TIP3    H239252   0.602   3.359   6.786
 5897TIP3   OH239253   1.505   2.767   1.477
 5897TIP3    H139254   1.557   2.687   1.472
 5897TIP3    H239255   1.559   2.834   1.433
 5898TIP3   OH239256   0.723   3.836   2.003
 5898TIP3    H139257   0.701   3.749   2.036
 5898TIP3    H239258   0.690   3.896   2.069
 5899TIP3   OH239259   5.560   6.402   8.385
 5899TIP3    H139260   5.519   6.481   8.421
 5899TIP3    H239261   5.553   6.338   8.455
 5900TIP3   OH239262   6.205   1.638   1.080
 5900TIP3    H139263   6.204   1.565   1.141
 5900TIP3    H239264   6.296   1.644   1.052
 5901TIP3   OH239265   1.069   2.576   1.500
 5901TIP3    H139266   0.992   2.551   1.449
 5901TIP3    H239267   1.035   2.636   1.566
 5902TIP3   OH239268   4.415   5.571   2.483
 5902TIP3    H139269   4.398   5.656   2.525
 5902TIP3    H239270   4.358   5.510   2.529
 5903TIP3   OH239271   5.906   0.822   6.405
 5903TIP3    H139272   5.978   0.867   6.362
 5903TIP3    H239273   5.831   0.879   6.392
 5904TIP3   OH239274   0.906   5.454   7.597
 5904TIP3    H139275   0.996   5.444   7.630
 5904TIP3    H239276   0.898   5.547   7.577
 5905TIP3   OH239277   0.157   5.751   1.115
 5905TIP3    H139278   0.100   5.826   1.131
 5905TIP3    H239279   0.122   5.710   1.036
 5906TIP3   OH239280   5.320   6.351   1.176
 5906TIP3    H139281   5.343   6.287   1.108
 5906TIP3    H239282   5.321   6.436   1.132
 5907TIP3   OH239283   2.771   0.916   8.241
 5907TIP3    H139284   2.679   0.915   8.214
 5907TIP3    H239285   2.819   0.884   8.164
 5908TIP3   OH239286   3.729   6.780   6.746
 5908TIP3    H139287   3.735   6.846   6.677
 5908TIP3    H239288   3.641   6.792   6.783
 5909TIP3   OH239289   3.727   1.028   0.720
 5909TIP3    H139290   3.730   1.091   0.648
 5909TIP3    H239291   3.781   1.067   0.788
 5910TIP3   OH239292   6.096   0.694   0.463
 5910TIP3    H139293   6.096   0.761   0.395
 5910TIP3    H239294   6.003   0.676   0.479
 5911TIP3   OH239295   5.075   3.067   0.860
 5911TIP3    H139296   5.082   3.162   0.848
 5911TIP3    H239297   5.108   3.030   0.778
 5912TIP3   OH239298   2.117   2.385   0.274
 5912TIP3    H139299   2.032   2.386   0.229
 5912TIP3    H239300   2.179   2.357   0.207
 5913TIP3   OH239301   3.258   6.338   1.850
 5913TIP3    H139302   3.301   6.329   1.935
 5913TIP3    H239303   3.196   6.409   1.862
 5914TIP3   OH239304   4.725   3.740   7.089
 5914TIP3    H139305   4.659   3.672   7.104
 5914TIP3    H239306   4.746   3.733   6.995
 5915TIP3   OH239307   1.417   1.279   7.100
 5915TIP3    H139308   1.393   1.333   7.025
 5915TIP3    H239309   1.488   1.224   7.068
 5916TIP3   OH239310   0.823   5.094   0.171
 5916TIP3    H139311   0.833   5.064   0.261
 5916TIP3    H239312   0.809   5.189   0.178
 5917TIP3   OH239313   6.138   3.360   6.941
 5917TIP3    H139314   6.158   3.427   7.006
 5917TIP3    H239315   6.119   3.409   6.861
 5918TIP3   OH239316   3.272   6.881   1.728
 5918TIP3    H139317   3.336   6.851   1.792
 5918TIP3    H239318   3.208   6.810   1.722
 5919TIP3   OH239319   3.890   2.122   7.289
 5919TIP3    H139320   3.975   2.082   7.307
 5919TIP3    H239321   3.855   2.072   7.214
 5920TIP3   OH239322   2.555   1.946   0.219
 5920TIP3    H139323   2.580   2.037   0.234
 5920TIP3    H239324   2.461   1.949   0.205
 5921TIP3   OH239325   1.364   2.239   2.280
 5921TIP3    H139326   1.290   2.244   2.340
 5921TIP3    H239327   1.325   2.211   2.197
 5922TIP3   OH239328   1.110   2.432   7.929
 5922TIP3    H139329   1.068   2.417   8.014
 5922TIP3    H239330   1.160   2.352   7.913
 5923TIP3   OH239331   3.362   1.700   0.819
 5923TIP3    H139332   3.351   1.795   0.809
 5923TIP3    H239333   3.444   1.691   0.868
 5924TIP3   OH239334   4.410   2.726   7.784
 5924TIP3    H139335   4.502   2.705   7.804
 5924TIP3    H239336   4.376   2.760   7.867
 5925TIP3   OH239337   1.027   4.582   7.292
 5925TIP3    H139338   0.984   4.664   7.267
 5925TIP3    H239339   1.074   4.604   7.373
 5926TIP3   OH239340   2.519   4.397   6.888
 5926TIP3    H139341   2.436   4.370   6.928
 5926TIP3    H239342   2.501   4.394   6.794
 5927TIP3   OH239343   0.404   3.708   1.046
 5927TIP3    H139344   0.422   3.680   0.956
 5927TIP3    H239345   0.358   3.635   1.086
 5928TIP3   OH239346   1.106   1.718   0.532
 5928TIP3    H139347   1.077   1.627   0.533
 5928TIP3    H239348   1.027   1.768   0.511
 5929TIP3   OH239349   2.987   0.454   6.751
 5929TIP3    H139350   3.055   0.426   6.690
 5929TIP3    H239351   3.004   0.403   6.830
 5930TIP3   OH239352   4.423   3.578   1.821
 5930TIP3    H139353   4.406   3.653   1.879
 5930TIP3    H239354   4.349   3.519   1.837
 5931TIP3   OH239355   3.336   1.258   1.983
 5931TIP3    H139356   3.339   1.294   2.071
 5931TIP3    H239357   3.425   1.225   1.967
 5932TIP3   OH239358   3.121   0.318   6.258
 5932TIP3    H139359   3.181   0.373   6.207
 5932TIP3    H239360   3.057   0.380   6.292
 5933TIP3   OH239361   1.074   3.910   6.666
 5933TIP3    H139362   1.087   3.969   6.592
 5933TIP3    H239363   1.021   3.838   6.630
 5934TIP3   OH239364   0.079   4.824   7.387
 5934TIP3    H139365   0.165   4.847   7.423
 5934TIP3    H239366   0.017   4.873   7.440
 5935TIP3   OH239367   3.440   4.752   0.779
 5935TIP3    H139368   3.352   4.784   0.760
 5935TIP3    H239369   3.486   4.829   0.813
 5936TIP3   OH239370   4.518   1.420   6.886
 5936TIP3    H139371   4.510   1.487   6.819
 5936TIP3    H239372   4.543   1.468   6.965
 5937TIP3   OH239373   1.739   5.763   1.465
 5937TIP3    H139374   1.775   5.831   1.407
 5937TIP3    H239375   1.712   5.693   1.406
 5938TIP3   OH239376   1.663   0.937   8.298
 5938TIP3    H139377   1.600   0.879   8.343
 5938TIP3    H239378   1.675   1.010   8.359
 5939TIP3   OH239379   2.917   4.385   2.115
 5939TIP3    H139380   2.988   4.446   2.132
 5939TIP3    H239381   2.925   4.318   2.182
 5940TIP3   OH239382   4.786   0.808   7.824
 5940TIP3    H139383   4.780   0.762   7.740
 5940TIP3    H239384   4.822   0.894   7.802
 5941TIP3   OH239385   4.677   1.255   0.210
 5941TIP3    H139386   4.650   1.163   0.216
 5941TIP3    H239387   4.686   1.271   0.116
 5942TIP3   OH239388   5.169   0.519   0.112
 5942TIP3    H139389   5.096   0.457   0.111
 5942TIP3    H239390   5.247   0.464   0.114
 5943TIP3   OH239391   1.752   5.618   5.868
 5943TIP3    H139392   1.658   5.633   5.870
 5943TIP3    H239393   1.776   5.622   5.775
 5944TIP3   OH239394   3.033   5.405   1.458
 5944TIP3    H139395   3.054   5.323   1.412
 5944TIP3    H239396   3.119   5.441   1.481
 5945TIP3   OH239397   3.782   3.954   1.015
 5945TIP3    H139398   3.722   3.904   0.959
 5945TIP3    H239399   3.862   3.902   1.017
 5946TIP3   OH239400   2.673   3.169   0.930
 5946TIP3    H139401   2.643   3.133   0.847
 5946TIP3    H239402   2.678   3.093   0.988
 5947TIP3   OH239403   6.941   0.639   6.938
 5947TIP3    H139404   7.027   0.648   6.898
 5947TIP3    H239405   6.898   0.724   6.923
 5948TIP3   OH239406   6.000   1.675   8.146
 5948TIP3    H139407   5.938   1.720   8.088
 5948TIP3    H239408   6.065   1.637   8.087
 5949TIP3   OH239409   5.860   7.000   1.349
 5949TIP3    H139410   5.811   6.972   1.272
 5949TIP3    H239411   5.826   6.946   1.421
 5950TIP3   OH239412   3.069   0.150   0.308
 5950TIP3    H139413   3.073   0.228   0.252
 5950TIP3    H239414   3.092   0.182   0.395
 5951TIP3   OH239415   6.898   4.425   7.719
 5951TIP3    H139416   6.953   4.497   7.689
 5951TIP3    H239417   6.819   4.430   7.666
 5952TIP3   OH239418   4.576   4.393   2.132
 5952TIP3    H139419   4.503   4.428   2.183
 5952TIP3    H239420   4.633   4.353   2.197
 5953TIP3   OH239421   5.023   1.022   0.769
 5953TIP3    H139422   5.087   1.070   0.823
 5953TIP3    H239423   5.048   1.042   0.679
 5954TIP3   OH239424   4.827   3.616   1.182
 5954TIP3    H139425   4.848   3.696   1.133
 5954TIP3    H239426   4.887   3.550   1.147
 5955TIP3   OH239427   6.966   1.825   8.316
 5955TIP3    H139428   6.924   1.883   8.379
 5955TIP3    H239429   6.931   1.738   8.336
 5956TIP3   OH239430   3.070   2.878   7.665
 5956TIP3    H139431   3.146   2.863   7.721
 5956TIP3    H239432   3.108   2.894   7.578
 5957TIP3   OH239433   1.392   2.271   8.318
 5957TIP3    H139434   1.310   2.223   8.330
 5957TIP3    H239435   1.395   2.332   8.392
 5958TIP3   OH239436   4.102   1.420   1.671
 5958TIP3    H139437   4.182   1.384   1.710
 5958TIP3    H239438   4.129   1.449   1.584
 5959TIP3   OH239439   3.648   0.875   1.901
 5959TIP3    H139440   3.738   0.856   1.876
 5959TIP3    H239441   3.604   0.790   1.902
 5960TIP3   OH239442   5.866   1.975   0.623
 5960TIP3    H139443   5.816   1.893   0.631
 5960TIP3    H239444   5.941   1.951   0.569
 5961TIP3   OH239445   1.829   1.937   6.734
 5961TIP3    H139446   1.789   1.879   6.800
 5961TIP3    H239447   1.779   2.018   6.741
 5962TIP3   OH239448   5.556   5.450   7.844
 5962TIP3    H139449   5.482   5.389   7.840
 5962TIP3    H239450   5.545   5.505   7.767
 5963TIP3   OH239451   6.129   4.683   7.281
 5963TIP3    H139452   6.221   4.695   7.255
 5963TIP3    H239453   6.131   4.611   7.344
 5964TIP3   OH239454   3.259   1.503   6.682
 5964TIP3    H139455   3.351   1.528   6.687
 5964TIP3    H239456   3.212   1.587   6.675
 5965TIP3   OH239457   5.910   6.389   0.202
 5965TIP3    H139458   5.855   6.313   0.220
 5965TIP3    H239459   5.937   6.379   0.110
 5966TIP3   OH239460   5.167   1.233   0.322
 5966TIP3    H139461   5.140   1.291   0.251
 5966TIP3    H239462   5.262   1.235   0.320
 5967TIP3   OH239463   0.371   6.052   1.169
 5967TIP3    H139464   0.335   5.968   1.142
 5967TIP3    H239465   0.366   6.051   1.265
 5968TIP3   OH239466   3.501   5.798   8.212
 5968TIP3    H139467   3.526   5.713   8.248
 5968TIP3    H239468   3.465   5.846   8.287
 5969TIP3   OH239469   3.424   2.647   1.731
 5969TIP3    H139470   3.479   2.690   1.796
 5969TIP3    H239471   3.471   2.662   1.648
 5970TIP3   OH239472   5.639   5.250   2.303
 5970TIP3    H139473   5.575   5.185   2.332
 5970TIP3    H239474   5.591   5.304   2.240
 5971TIP3   OH239475   6.087   3.795   2.426
 5971TIP3    H139476   6.092   3.835   2.512
 5971TIP3    H239477   6.035   3.856   2.374
 5972TIP3   OH239478   4.248   1.037   7.965
 5972TIP3    H139479   4.341   1.040   7.942
 5972TIP3    H239480   4.214   1.123   7.940
 5973TIP3   OH239481   5.529   3.532   6.718
 5973TIP3    H139482   5.528   3.437   6.725
 5973TIP3    H239483   5.566   3.562   6.801
 5974TIP3   OH239484   1.149   4.936   6.763
 5974TIP3    H139485   1.114   5.012   6.810
 5974TIP3    H239486   1.088   4.922   6.691
 5975TIP3   OH239487   4.422   4.041   2.063
 5975TIP3    H139488   4.334   4.053   2.025
 5975TIP3    H239489   4.429   4.109   2.129
 5976TIP3   OH239490   3.131   2.301   1.411
 5976TIP3    H139491   3.165   2.375   1.460
 5976TIP3    H239492   3.071   2.340   1.346
 5977TIP3   OH239493   6.300   3.542   5.781
 5977TIP3    H139494   6.219   3.491   5.787
 5977TIP3    H239495   6.354   3.508   5.852
 5978TIP3   OH239496   5.124   3.496   7.325
 5978TIP3    H139497   5.142   3.412   7.367
 5978TIP3    H239498   5.040   3.483   7.280
 5979TIP3   OH239499   2.255   6.963   1.954
 5979TIP3    H139500   2.320   6.931   2.015
 5979TIP3    H239501   2.286   7.050   1.929
 5980TIP3   OH239502   6.704   2.382   7.591
 5980TIP3    H139503   6.720   2.469   7.555
 5980TIP3    H239504   6.742   2.385   7.679
 5981TIP3   OH239505   2.520   6.305   7.166
 5981TIP3    H139506   2.600   6.261   7.194
 5981TIP3    H239507   2.500   6.367   7.237
 5982TIP3   OH239508   0.698   4.619   0.950
 5982TIP3    H139509   0.777   4.590   0.995
 5982TIP3    H239510   0.687   4.555   0.879
 5983TIP3   OH239511   2.897   4.536   8.087
 5983TIP3    H139512   2.946   4.560   8.166
 5983TIP3    H239513   2.870   4.619   8.049
 5984TIP3   OH239514   0.818   0.069   6.630
 5984TIP3    H139515   0.739   0.086   6.579
 5984TIP3    H239516   0.878   0.027   6.569
 5985TIP3   OH239517   4.016   0.995   0.035
 5985TIP3    H139518   3.964   1.074   0.047
 5985TIP3    H239519   3.961   0.938  -0.018
 5986TIP3   OH239520   5.208   5.595   0.217
 5986TIP3    H139521   5.203   5.588   0.121
 5986TIP3    H239522   5.169   5.513   0.248
 5987TIP3   OH239523   3.891   1.665   1.992
 5987TIP3    H139524   3.983   1.653   2.016
 5987TIP3    H239525   3.887   1.754   1.956
 5988TIP3   OH239526   3.191   0.899   0.882
 5988TIP3    H139527   3.116   0.909   0.822
 5988TIP3    H239528   3.264   0.938   0.835
 5989TIP3   OH239529   3.495   3.122   1.199
 5989TIP3    H139530   3.539   3.056   1.144
 5989TIP3    H239531   3.404   3.118   1.171
 5990TIP3   OH239532   1.108   3.474   6.919
 5990TIP3    H139533   1.078   3.545   6.976
 5990TIP3    H239534   1.088   3.504   6.830
 5991TIP3   OH239535   4.752   6.812   0.523
 5991TIP3    H139536   4.746   6.881   0.590
 5991TIP3    H239537   4.826   6.839   0.468
 5992TIP3   OH239538   0.458   6.495   6.552
 5992TIP3    H139539   0.552   6.504   6.533
 5992TIP3    H239540   0.419   6.476   6.467
 5993TIP3   OH239541   1.685   4.512   6.874
 5993TIP3    H139542   1.780   4.521   6.871
 5993TIP3    H239543   1.667   4.425   6.838
 5994TIP3   OH239544   0.918   5.643   7.126
 5994TIP3    H139545   0.942   5.735   7.116
 5994TIP3    H239546   0.895   5.614   7.038
 5995TIP3   OH239547   3.211   0.928   0.180
 5995TIP3    H139548   3.277   0.982   0.137
 5995TIP3    H239549   3.261   0.875   0.242
 5996TIP3   OH239550   1.392   1.475   1.801
 5996TIP3    H139551   1.320   1.521   1.842
 5996TIP3    H239552   1.465   1.481   1.863
 5997TIP3   OH239553   3.329   6.079   7.442
 5997TIP3    H139554   3.314   6.080   7.536
 5997TIP3    H239555   3.412   6.031   7.431
 5998TIP3   OH239556   4.689   1.304   8.350
 5998TIP3    H139557   4.778   1.284   8.321
 5998TIP3    H239558   4.633   1.243   8.302
 5999TIP3   OH239559   0.572   0.138   7.827
 5999TIP3    H139560   0.535   0.224   7.807
 5999TIP3    H239561   0.588   0.098   7.742
 6000TIP3   OH239562   6.950   5.660   0.634
 6000TIP3    H139563   7.009   5.601   0.588
 6000TIP3    H239564   6.940   5.735   0.575
 6001TIP3   OH239565   6.943   5.355   0.620
 6001TIP3    H139566   6.964   5.264   0.640
 6001TIP3    H239567   6.987   5.373   0.537
 6002TIP3   OH239568   3.491   2.054   0.614
 6002TIP3    H139569   3.412   2.026   0.659
 6002TIP3    H239570   3.555   1.985   0.634
 6003TIP3   OH239571   1.438   5.510   8.165
 6003TIP3    H139572   1.442   5.602   8.191
 6003TIP3    H239573   1.442   5.462   8.248
 6004TIP3   OH239574   0.424   3.593   0.300
 6004TIP3    H139575   0.422   3.689   0.300
 6004TIP3    H239576   0.435   3.570   0.392
 6005TIP3   OH239577   2.743   2.242   1.228
 6005TIP3    H139578   2.662   2.192   1.217
 6005TIP3    H239579   2.738   2.311   1.162
 6006TIP3   OH239580   6.629   4.289   7.345
 6006TIP3    H139581   6.637   4.279   7.440
 6006TIP3    H239582   6.718   4.309   7.316
 6007TIP3   OH239583   1.102   1.581   8.170
 6007TIP3    H139584   1.155   1.507   8.141
 6007TIP3    H239585   1.025   1.541   8.211
 6008TIP3   OH239586   4.990   2.738   6.475
 6008TIP3    H139587   5.051   2.667   6.456
 6008TIP3    H239588   5.039   2.798   6.531
 6009TIP3   OH239589   3.683   5.005   8.168
 6009TIP3    H139590   3.686   4.964   8.254
 6009TIP3    H239591   3.749   5.075   8.172
 6010TIP3   OH239592   2.890   6.616   2.333
 6010TIP3    H139593   2.916   6.706   2.353
 6010TIP3    H239594   2.803   6.607   2.371
 6011TIP3   OH239595   6.468   5.893   8.137
 6011TIP3    H139596   6.393   5.907   8.080
 6011TIP3    H239597   6.454   5.954   8.210
 6012TIP3   OH239598   6.741   6.722   0.533
 6012TIP3    H139599   6.674   6.686   0.475
 6012TIP3    H239600   6.804   6.762   0.474
 6013TIP3   OH239601   6.489   0.069   7.126
 6013TIP3    H139602   6.442   0.137   7.173
 6013TIP3    H239603   6.555   0.117   7.075
 6014TIP3   OH239604   6.009   2.847   7.098
 6014TIP3    H139605   6.075   2.887   7.041
 6014TIP3    H239606   6.059   2.802   7.165
 6015TIP3   OH239607   6.264   1.088   6.922
 6015TIP3    H139608   6.174   1.089   6.891
 6015TIP3    H239609   6.316   1.107   6.844
 6016TIP3   OH239610   0.074   2.787   6.989
 6016TIP3    H139611   0.033   2.812   6.906
 6016TIP3    H239612   0.150   2.844   6.997
 6017TIP3   OH239613   1.305   4.928   1.300
 6017TIP3    H139614   1.284   4.883   1.218
 6017TIP3    H239615   1.227   4.915   1.354
 6018TIP3   OH239616   5.553   4.936   0.581
 6018TIP3    H139617   5.631   4.883   0.562
 6018TIP3    H239618   5.490   4.874   0.617
 6019TIP3   OH239619   3.191   2.278   0.650
 6019TIP3    H139620   3.190   2.340   0.722
 6019TIP3    H239621   3.103   2.283   0.613
 6020TIP3   OH239622   0.232   1.587   1.721
 6020TIP3    H139623   0.137   1.579   1.710
 6020TIP3    H239624   0.265   1.497   1.716
 6021TIP3   OH239625   0.974   5.059   7.827
 6021TIP3    H139626   0.937   5.147   7.835
 6021TIP3    H239627   0.977   5.026   7.917
 6022TIP3   OH239628   5.058   4.820   6.658
 6022TIP3    H139629   5.077   4.744   6.712
 6022TIP3    H239630   4.962   4.822   6.652
 6023TIP3   OH239631   2.358   4.794   8.356
 6023TIP3    H139632   2.299   4.821   8.427
 6023TIP3    H239633   2.300   4.778   8.282
 6024TIP3   OH239634   2.963   5.928   0.328
 6024TIP3    H139635   2.924   5.860   0.273
 6024TIP3    H239636   2.899   6.000   0.326
 6025TIP3   OH239637   5.230   5.400   6.660
 6025TIP3    H139638   5.256   5.311   6.684
 6025TIP3    H239639   5.253   5.453   6.737
 6026TIP3   OH239640   6.761   6.725   6.480
 6026TIP3    H139641   6.676   6.681   6.487
 6026TIP3    H239642   6.804   6.707   6.563
 6027TIP3   OH239643   3.917   1.425   8.009
 6027TIP3    H139644   3.915   1.520   7.996
 6027TIP3    H239645   3.850   1.409   8.075
 6028TIP3   OH239646   2.420   6.413   1.163
 6028TIP3    H139647   2.384   6.422   1.251
 6028TIP3    H239648   2.442   6.320   1.155
 6029TIP3   OH239649   4.533   0.911   0.937
 6029TIP3    H139650   4.618   0.893   0.896
 6029TIP3    H239651   4.514   0.832   0.988
 6030TIP3   OH239652   6.036   2.732   7.971
 6030TIP3    H139653   6.077   2.807   7.929
 6030TIP3    H239654   6.110   2.681   8.006
 6031TIP3   OH239655   5.913   1.722   6.691
 6031TIP3    H139656   5.921   1.766   6.606
 6031TIP3    H239657   5.961   1.640   6.680
 6032TIP3   OH239658   0.489   4.397   0.247
 6032TIP3    H139659   0.508   4.412   0.340
 6032TIP3    H239660   0.572   4.366   0.211
 6033TIP3   OH239661   5.767   2.714   0.263
 6033TIP3    H139662   5.685   2.761   0.273
 6033TIP3    H239663   5.802   2.705   0.352
 6034TIP3   OH239664   0.707   4.057   8.240
 6034TIP3    H139665   0.658   4.051   8.322
 6034TIP3    H239666   0.648   4.022   8.174
 6035TIP3   OH239667   3.721   3.513   1.426
 6035TIP3    H139668   3.810   3.478   1.423
 6035TIP3    H239669   3.710   3.542   1.517
 6036TIP3   OH239670   6.139   2.168   2.263
 6036TIP3    H139671   6.090   2.119   2.197
 6036TIP3    H239672   6.212   2.207   2.215
 6037TIP3   OH239673   1.669   0.828   0.953
 6037TIP3    H139674   1.746   0.832   0.896
 6037TIP3    H239675   1.638   0.739   0.945
 6038TIP3   OH239676   0.896   0.055   0.940
 6038TIP3    H139677   0.907   0.142   0.979
 6038TIP3    H239678   0.835   0.010   0.998
 6039TIP3   OH239679   2.831   5.362   7.139
 6039TIP3    H139680   2.894   5.290   7.136
 6039TIP3    H239681   2.861   5.417   7.212
 6040TIP3   OH239682   1.673   3.312   0.713
 6040TIP3    H139683   1.689   3.342   0.623
 6040TIP3    H239684   1.731   3.367   0.766
 6041TIP3   OH239685   4.723   6.299   7.835
 6041TIP3    H139686   4.680   6.213   7.840
 6041TIP3    H239687   4.657   6.361   7.864
 6042TIP3   OH239688   4.779   0.576   1.848
 6042TIP3    H139689   4.713   0.571   1.917
 6042TIP3    H239690   4.854   0.527   1.883
 6043TIP3   OH239691   5.769   4.967   0.233
 6043TIP3    H139692   5.767   5.039   0.296
 6043TIP3    H239693   5.748   5.009   0.149
 6044TIP3   OH239694   5.950   1.348   0.019
 6044TIP3    H139695   6.037   1.318  -0.008
 6044TIP3    H239696   5.962   1.440   0.041
 6045TIP3   OH239697   1.316   0.567   8.392
 6045TIP3    H139698   1.318   0.493   8.452
 6045TIP3    H239699   1.402   0.568   8.351
 6046TIP3   OH239700   3.635   4.577   0.661
 6046TIP3    H139701   3.569   4.509   0.644
 6046TIP3    H239702   3.584   4.656   0.676
 6047TIP3   OH239703   3.451   0.879   2.088
 6047TIP3    H139704   3.445   0.808   2.153
 6047TIP3    H239705   3.544   0.885   2.068
 6048TIP3   OH239706   0.272   6.724   0.018
 6048TIP3    H139707   0.359   6.762   0.020
 6048TIP3    H239708   0.213   6.797  -0.001
 6049TIP3   OH239709   2.889   6.765   1.091
 6049TIP3    H139710   2.914   6.823   1.019
 6049TIP3    H239711   2.806   6.726   1.063
 6050TIP3   OH239712   5.998   1.311   1.385
 6050TIP3    H139713   5.961   1.399   1.385
 6050TIP3    H239714   6.028   1.298   1.475
 6051TIP3   OH239715   2.001   5.535   1.303
 6051TIP3    H139716   2.069   5.470   1.284
 6051TIP3    H239717   2.049   5.617   1.314
 6052TIP3   OH239718   2.887   1.343   6.402
 6052TIP3    H139719   2.829   1.400   6.352
 6052TIP3    H239720   2.855   1.255   6.385
 6053TIP3   OH239721   3.141   1.399   7.107
 6053TIP3    H139722   3.095   1.423   7.027
 6053TIP3    H239723   3.115   1.465   7.171
 6054TIP3   OH239724   2.627   1.983   0.814
 6054TIP3    H139725   2.688   1.993   0.887
 6054TIP3    H239726   2.565   1.916   0.843
 6055TIP3   OH239727   2.394   4.966   2.048
 6055TIP3    H139728   2.311   5.012   2.063
 6055TIP3    H239729   2.423   4.939   2.136
 6056TIP3   OH239730   2.221   4.809   1.053
 6056TIP3    H139731   2.199   4.896   1.084
 6056TIP3    H239732   2.178   4.801   0.968
 6057TIP3   OH239733   1.336   6.875   6.464
 6057TIP3    H139734   1.382   6.827   6.395
 6057TIP3    H239735   1.244   6.874   6.436
 6058TIP3   OH239736   2.519   2.666   1.111
 6058TIP3    H139737   2.431   2.680   1.077
 6058TIP3    H239738   2.548   2.753   1.139
 6059TIP3   OH239739   0.136   5.109   6.144
 6059TIP3    H139740   0.130   5.022   6.183
 6059TIP3    H239741   0.053   5.119   6.096
 6060TIP3   OH239742   1.034   3.532   6.192
 6060TIP3    H139743   0.943   3.511   6.170
 6060TIP3    H239744   1.086   3.486   6.127
 6061TIP3   OH239745   0.326   5.801   7.434
 6061TIP3    H139746   0.267   5.728   7.456
 6061TIP3    H239747   0.411   5.773   7.466
 6062TIP3   OH239748   2.500   0.735   0.050
 6062TIP3    H139749   2.521   0.642   0.051
 6062TIP3    H239750   2.576   0.777   0.089
 6063TIP3   OH239751   6.416   6.028   6.749
 6063TIP3    H139752   6.397   6.121   6.746
 6063TIP3    H239753   6.330   5.986   6.758
 6064TIP3   OH239754   0.652   4.487   7.860
 6064TIP3    H139755   0.644   4.582   7.855
 6064TIP3    H239756   0.744   4.470   7.841
 6065TIP3   OH239757   0.899   6.812   0.133
 6065TIP3    H139758   0.867   6.900   0.115
 6065TIP3    H239759   0.943   6.820   0.217
 6066TIP3   OH239760   2.938   0.863   0.483
 6066TIP3    H139761   2.938   0.913   0.401
 6066TIP3    H239762   2.924   0.772   0.456
 6067TIP3   OH239763   1.838   4.872   7.990
 6067TIP3    H139764   1.876   4.904   7.908
 6067TIP3    H239765   1.896   4.905   8.059
 6068TIP3   OH239766   6.151   1.805   0.529
 6068TIP3    H139767   6.126   1.813   0.437
 6068TIP3    H239768   6.166   1.711   0.542
 6069TIP3   OH239769   0.467   5.198   0.487
 6069TIP3    H139770   0.395   5.151   0.529
 6069TIP3    H239771   0.537   5.197   0.553
 6070TIP3   OH239772   1.246   2.471   6.900
 6070TIP3    H139773   1.281   2.522   6.826
 6070TIP3    H239774   1.178   2.526   6.937
 6071TIP3   OH239775   4.914   1.286   6.949
 6071TIP3    H139776   4.851   1.221   6.982
 6071TIP3    H239777   4.884   1.306   6.860
 6072TIP3   OH239778   1.886   5.956   8.160
 6072TIP3    H139779   1.939   5.970   8.082
 6072TIP3    H239780   1.889   5.862   8.175
 6073TIP3   OH239781   1.639   2.951   0.067
 6073TIP3    H139782   1.562   2.973   0.119
 6073TIP3    H239783   1.607   2.948  -0.023
 6074TIP3   OH239784   5.123   2.746   6.078
 6074TIP3    H139785   5.161   2.716   6.160
 6074TIP3    H239786   5.190   2.800   6.038
 6075TIP3   OH239787   6.631   5.270   7.783
 6075TIP3    H139788   6.664   5.182   7.767
 6075TIP3    H239789   6.588   5.295   7.701
 6076TIP3   OH239790   6.857   3.522   6.958
 6076TIP3    H139791   6.902   3.438   6.953
 6076TIP3    H239792   6.765   3.499   6.974
 6077TIP3   OH239793   3.074   2.456   1.910
 6077TIP3    H139794   3.061   2.517   1.837
 6077TIP3    H239795   3.067   2.510   1.988
 6078TIP3   OH239796   1.503   3.096   6.826
 6078TIP3    H139797   1.575   3.124   6.769
 6078TIP3    H239798   1.458   3.177   6.850
 6079TIP3   OH239799   4.156   3.902   8.173
 6079TIP3    H139800   4.197   3.988   8.161
 6079TIP3    H239801   4.229   3.842   8.187
 6080TIP3   OH239802   0.754   0.515   8.262
 6080TIP3    H139803   0.668   0.504   8.221
 6080TIP3    H239804   0.815   0.476   8.200
 6081TIP3   OH239805   1.266   3.718   6.513
 6081TIP3    H139806   1.284   3.660   6.440
 6081TIP3    H239807   1.191   3.770   6.484
 6082TIP3   OH239808   3.287   3.309   8.165
 6082TIP3    H139809   3.251   3.247   8.101
 6082TIP3    H239810   3.330   3.253   8.230
 6083TIP3   OH239811   4.268   4.752   0.203
 6083TIP3    H139812   4.297   4.798   0.281
 6083TIP3    H239813   4.178   4.725   0.221
 6084TIP3   OH239814   3.466   3.760   7.592
 6084TIP3    H139815   3.377   3.745   7.624
 6084TIP3    H239816   3.492   3.676   7.555
 6085TIP3   OH239817   1.331   6.302   2.256
 6085TIP3    H139818   1.343   6.208   2.240
 6085TIP3    H239819   1.398   6.345   2.203
 6086TIP3   OH239820   0.602   5.785   7.547
 6086TIP3    H139821   0.615   5.848   7.618
 6086TIP3    H239822   0.671   5.806   7.484
 6087TIP3   OH239823   5.623   6.214   7.582
 6087TIP3    H139824   5.529   6.225   7.567
 6087TIP3    H239825   5.659   6.302   7.573
 6088TIP3   OH239826   6.172   5.411   7.110
 6088TIP3    H139827   6.120   5.421   7.030
 6088TIP3    H239828   6.254   5.458   7.091
 6089TIP3   OH239829   3.661   4.970   0.608
 6089TIP3    H139830   3.659   4.939   0.699
 6089TIP3    H239831   3.730   5.037   0.607
 6090TIP3   OH239832   5.101   2.692   1.223
 6090TIP3    H139833   5.124   2.663   1.311
 6090TIP3    H239834   5.057   2.617   1.184
 6091TIP3   OH239835   1.951   2.595   1.139
 6091TIP3    H139836   1.981   2.526   1.080
 6091TIP3    H239837   1.952   2.674   1.086
 6092TIP3   OH239838   5.544   4.223   0.442
 6092TIP3    H139839   5.539   4.260   0.354
 6092TIP3    H239840   5.487   4.280   0.494
 6093TIP3   OH239841   0.893   4.121   0.833
 6093TIP3    H139842   0.824   4.064   0.867
 6093TIP3    H239843   0.884   4.203   0.883
 6094TIP3   OH239844   0.741   1.872   7.453
 6094TIP3    H139845   0.696   1.934   7.511
 6094TIP3    H239846   0.736   1.913   7.366
 6095TIP3   OH239847   5.189   0.069   7.181
 6095TIP3    H139848   5.188   0.159   7.216
 6095TIP3    H239849   5.181   0.080   7.087
 6096TIP3   OH239850   6.040   5.181   6.495
 6096TIP3    H139851   6.022   5.186   6.401
 6096TIP3    H239852   5.965   5.135   6.531
 6097TIP3   OH239853   6.034   6.501   7.999
 6097TIP3    H139854   6.020   6.493   8.093
 6097TIP3    H239855   6.080   6.420   7.975
 6098TIP3   OH239856   5.368   5.713   1.299
 6098TIP3    H139857   5.351   5.788   1.241
 6098TIP3    H239858   5.281   5.685   1.327
 6099TIP3   OH239859   6.534   5.339   0.697
 6099TIP3    H139860   6.591   5.379   0.632
 6099TIP3    H239861   6.588   5.330   0.775
 6100TIP3   OH239862   6.108   0.839   7.344
 6100TIP3    H139863   6.127   0.747   7.329
 6100TIP3    H239864   6.194   0.881   7.352
 6101TIP3   OH239865   5.303   0.828   6.613
 6101TIP3    H139866   5.289   0.914   6.650
 6101TIP3    H239867   5.390   0.833   6.572
 6102TIP3   OH239868   2.031   6.886   1.594
 6102TIP3    H139869   1.950   6.933   1.610
 6102TIP3    H239870   2.100   6.952   1.604
 6103TIP3   OH239871   4.537   3.950   7.581
 6103TIP3    H139872   4.466   4.013   7.566
 6103TIP3    H239873   4.529   3.887   7.509
 6104TIP3   OH239874   0.491   0.555   1.572
 6104TIP3    H139875   0.503   0.502   1.651
 6104TIP3    H239876   0.514   0.644   1.599
 6105TIP3   OH239877   0.414   2.846   8.159
 6105TIP3    H139878   0.368   2.775   8.204
 6105TIP3    H239879   0.387   2.838   8.068
 6106TIP3   OH239880   1.821   3.678   6.978
 6106TIP3    H139881   1.797   3.728   6.900
 6106TIP3    H239882   1.738   3.641   7.009
 6107TIP3   OH239883   4.958   4.033   7.522
 6107TIP3    H139884   4.934   3.944   7.498
 6107TIP3    H239885   4.875   4.080   7.527
 6108TIP3   OH239886   0.831   0.252   0.548
 6108TIP3    H139887   0.861   0.190   0.615
 6108TIP3    H239888   0.817   0.334   0.595
 6109TIP3   OH239889   4.866   3.335   1.415
 6109TIP3    H139890   4.790   3.393   1.411
 6109TIP3    H239891   4.844   3.272   1.484
 6110TIP3   OH239892   1.642   5.468   6.572
 6110TIP3    H139893   1.593   5.411   6.513
 6110TIP3    H239894   1.592   5.467   6.654
 6111TIP3   OH239895   6.488   0.966   7.357
 6111TIP3    H139896   6.419   0.965   7.291
 6111TIP3    H239897   6.442   0.966   7.441
 6112TIP3   OH239898   0.935   5.045   1.263
 6112TIP3    H139899   0.996   5.118   1.262
 6112TIP3    H239900   0.871   5.066   1.194
 6113TIP3   OH239901   6.969   1.383   1.580
 6113TIP3    H139902   7.059   1.354   1.596
 6113TIP3    H239903   6.914   1.313   1.616
 6114TIP3   OH239904   0.145   5.640   0.307
 6114TIP3    H139905   0.133   5.730   0.278
 6114TIP3    H239906   0.226   5.612   0.265
 6115TIP3   OH239907   1.596   6.633   0.793
 6115TIP3    H139908   1.595   6.605   0.884
 6115TIP3    H239909   1.680   6.677   0.782
 6116TIP3   OH239910   1.055   6.650   0.888
 6116TIP3    H139911   1.098   6.569   0.862
 6116TIP3    H239912   1.127   6.709   0.909
 6117TIP3   OH239913   2.490   6.727   6.362
 6117TIP3    H139914   2.480   6.808   6.311
 6117TIP3    H239915   2.565   6.683   6.322
 6118TIP3   OH239916   5.499   3.604   6.300
 6118TIP3    H139917   5.514   3.538   6.368
 6118TIP3    H239918   5.581   3.607   6.251
 6119TIP3   OH239919   6.311   1.814   7.377
 6119TIP3    H139920   6.262   1.731   7.373
 6119TIP3    H239921   6.398   1.788   7.407
 6120TIP3   OH239922   3.074   5.180   0.430
 6120TIP3    H139923   3.031   5.120   0.369
 6120TIP3    H239924   3.145   5.129   0.468
 6121TIP3   OH239925   3.848   1.161   1.902
 6121TIP3    H139926   3.903   1.083   1.912
 6121TIP3    H239927   3.858   1.185   1.810
 6122TIP3   OH239928   4.144   5.768   7.142
 6122TIP3    H139929   4.079   5.824   7.100
 6122TIP3    H239930   4.217   5.827   7.161
 6123TIP3   OH239931   5.441   3.046   6.765
 6123TIP3    H139932   5.516   3.021   6.819
 6123TIP3    H239933   5.473   3.040   6.675
 6124TIP3   OH239934   1.852   6.724   0.782
 6124TIP3    H139935   1.876   6.732   0.690
 6124TIP3    H239936   1.928   6.760   0.829
 6125TIP3   OH239937   2.685   4.396   7.866
 6125TIP3    H139938   2.728   4.447   7.934
 6125TIP3    H239939   2.723   4.308   7.874
 6126TIP3   OH239940   5.815   6.807   7.911
 6126TIP3    H139941   5.833   6.725   7.864
 6126TIP3    H239942   5.784   6.867   7.843
 6127TIP3   OH239943   6.719   2.864   1.023
 6127TIP3    H139944   6.749   2.952   1.000
 6127TIP3    H239945   6.628   2.876   1.050
 6128TIP3   OH239946   3.498   0.418   7.950
 6128TIP3    H139947   3.453   0.335   7.936
 6128TIP3    H239948   3.518   0.450   7.862
 6129TIP3   OH239949   6.614   6.265   6.849
 6129TIP3    H139950   6.628   6.345   6.899
 6129TIP3    H239951   6.519   6.263   6.833
 6130TIP3   OH239952   4.825   6.941   1.275
 6130TIP3    H139953   4.919   6.951   1.292
 6130TIP3    H239954   4.817   6.955   1.180
 6131TIP3   OH239955   6.802   2.676   1.198
 6131TIP3    H139956   6.886   2.634   1.179
 6131TIP3    H239957   6.785   2.731   1.122
 6132TIP3   OH239958   1.242   6.185   6.364
 6132TIP3    H139959   1.325   6.148   6.332
 6132TIP3    H239960   1.193   6.109   6.396
 6133TIP3   OH239961   3.813   1.165   7.797
 6133TIP3    H139962   3.865   1.214   7.860
 6133TIP3    H239963   3.735   1.219   7.781
 6134TIP3   OH239964   0.152   2.691   0.903
 6134TIP3    H139965   0.223   2.720   0.959
 6134TIP3    H239966   0.133   2.766   0.847
 6135TIP3   OH239967   3.995   6.908   7.157
 6135TIP3    H139968   3.914   6.889   7.109
 6135TIP3    H239969   4.037   6.823   7.169
 6136TIP3   OH239970   3.900   3.791   0.297
 6136TIP3    H139971   3.892   3.883   0.273
 6136TIP3    H239972   3.918   3.746   0.215
 6137TIP3   OH239973   5.663   5.781   7.296
 6137TIP3    H139974   5.580   5.828   7.290
 6137TIP3    H239975   5.716   5.833   7.355
 6138TIP3   OH239976   4.027   4.925   7.867
 6138TIP3    H139977   4.036   4.860   7.798
 6138TIP3    H239978   3.934   4.924   7.890
 6139TIP3   OH239979   2.876   0.361   1.402
 6139TIP3    H139980   2.937   0.331   1.470
 6139TIP3    H239981   2.912   0.444   1.372
 6140TIP3   OH239982   5.467   5.576   0.401
 6140TIP3    H139983   5.517   5.636   0.456
 6140TIP3    H239984   5.382   5.568   0.444
 6141TIP3   OH239985   1.060   2.860   0.324
 6141TIP3    H139986   1.013   2.777   0.318
 6141TIP3    H239987   1.076   2.872   0.418
 6142TIP3   OH239988   3.309   1.790   7.254
 6142TIP3    H139989   3.382   1.839   7.291
 6142TIP3    H239990   3.347   1.704   7.233
 6143TIP3   OH239991   1.121   2.712   6.799
 6143TIP3    H139992   1.206   2.750   6.778
 6143TIP3    H239993   1.060   2.785   6.793
 6144TIP3   OH239994   1.628   5.398   0.689
 6144TIP3    H139995   1.601   5.313   0.656
 6144TIP3    H239996   1.610   5.394   0.783
 6145TIP3   OH239997   2.789   3.513   0.364
 6145TIP3    H139998   2.737   3.586   0.330
 6145TIP3    H239999   2.869   3.555   0.396
 6146TIP3   OH240000   6.017   3.616   1.135
 6146TIP3    H140001   6.000   3.710   1.144
 6146TIP3    H240002   6.087   3.611   1.069
 6147TIP3   OH240003   4.615   5.830   6.934
 6147TIP3    H140004   4.639   5.802   6.846
 6147TIP3    H240005   4.575   5.916   6.922
 6148TIP3   OH240006   0.383   4.619   1.543
 6148TIP3    H140007   0.442   4.576   1.481
 6148TIP3    H240008   0.441   4.668   1.602
 6149TIP3   OH240009   3.243   4.492   0.498
 6149TIP3    H140010   3.278   4.570   0.456
 6149TIP3    H240011   3.205   4.441   0.426
 6150TIP3   OH240012   1.884   1.609   1.309
 6150TIP3    H140013   1.808   1.665   1.300
 6150TIP3    H240014   1.927   1.640   1.389
 6151TIP3   OH240015   2.036   5.157   7.413
 6151TIP3    H140016   2.002   5.112   7.335
 6151TIP3    H240017   2.077   5.088   7.465
 6152TIP3   OH240018   2.449   1.737   7.548
 6152TIP3    H140019   2.407   1.689   7.619
 6152TIP3    H240020   2.382   1.740   7.479
 6153TIP3   OH240021   0.596   2.678   1.317
 6153TIP3    H140022   0.517   2.684   1.372
 6153TIP3    H240023   0.569   2.623   1.243
 6154TIP3   OH240024   2.083   6.747   2.087
 6154TIP3    H140025   2.011   6.805   2.112
 6154TIP3    H240026   2.143   6.804   2.038
 6155TIP3   OH240027   5.971   1.330   7.376
 6155TIP3    H140028   5.958   1.351   7.284
 6155TIP3    H240029   5.895   1.277   7.400
 6156TIP3   OH240030   2.148   6.622   1.569
 6156TIP3    H140031   2.193   6.590   1.648
 6156TIP3    H240032   2.125   6.712   1.589
 6157TIP3   OH240033   5.234   1.079   6.719
 6157TIP3    H140034   5.140   1.061   6.720
 6157TIP3    H240035   5.240   1.174   6.712
 6158TIP3   OH240036   3.369   5.306   0.135
 6158TIP3    H140037   3.395   5.297   0.043
 6158TIP3    H240038   3.361   5.217   0.167
 6159TIP3   OH240039   3.407   4.939   7.899
 6159TIP3    H140040   3.446   5.017   7.940
 6159TIP3    H240041   3.380   4.968   7.813
 6160TIP3   OH240042   2.647   0.099   7.240
 6160TIP3    H140043   2.723   0.157   7.235
 6160TIP3    H240044   2.602   0.112   7.157
 6161TIP3   OH240045   2.530   4.499   7.423
 6161TIP3    H140046   2.494   4.525   7.338
 6161TIP3    H240047   2.526   4.403   7.423
 6162TIP3   OH240048   5.892   4.373   7.818
 6162TIP3    H140049   5.848   4.320   7.751
 6162TIP3    H240050   5.847   4.351   7.899
 6163TIP3   OH240051   4.319   0.680   0.137
 6163TIP3    H140052   4.241   0.690   0.084
 6163TIP3    H240053   4.326   0.586   0.153
 6164TIP3   OH240054   3.407   1.840   0.397
 6164TIP3    H140055   3.475   1.901   0.426
 6164TIP3    H240056   3.326   1.878   0.431
 6165TIP3   OH240057   4.075   0.123   1.252
 6165TIP3    H140058   4.016   0.057   1.288
 6165TIP3    H240059   4.140   0.136   1.320
 6166TIP3   OH240060   5.548   1.192   1.846
 6166TIP3    H140061   5.513   1.277   1.876
 6166TIP3    H240062   5.590   1.155   1.924
 6167TIP3   OH240063   0.752   2.143   8.077
 6167TIP3    H140064   0.774   2.236   8.067
 6167TIP3    H240065   0.824   2.097   8.035
 6168TIP3   OH240066   3.037   1.396   1.222
 6168TIP3    H140067   3.118   1.362   1.259
 6168TIP3    H240068   3.017   1.338   1.149
 6169TIP3   OH240069   4.370   0.484   7.225
 6169TIP3    H140070   4.313   0.449   7.293
 6169TIP3    H240071   4.382   0.576   7.248
 6170TIP3   OH240072   6.120   2.637   7.260
 6170TIP3    H140073   6.067   2.619   7.338
 6170TIP3    H240074   6.099   2.566   7.200
 6171TIP3   OH240075   3.522   1.737   2.320
 6171TIP3    H140076   3.492   1.663   2.373
 6171TIP3    H240077   3.563   1.697   2.244
 6172TIP3   OH240078   5.053   3.106   7.328
 6172TIP3    H140079   5.017   3.172   7.387
 6172TIP3    H240080   5.003   3.027   7.346
 6173TIP3   OH240081   4.739   6.495   7.239
 6173TIP3    H140082   4.741   6.549   7.318
 6173TIP3    H240083   4.715   6.408   7.270
 6174TIP3   OH240084   4.182   3.521   0.538
 6174TIP3    H140085   4.221   3.486   0.618
 6174TIP3    H240086   4.166   3.443   0.483
 6175TIP3   OH240087   1.207   5.763   1.775
 6175TIP3    H140088   1.144   5.691   1.786
 6175TIP3    H240089   1.253   5.767   1.859
 6176TIP3   OH240090   1.287   6.771   0.827
 6176TIP3    H140091   1.354   6.838   0.817
 6176TIP3    H240092   1.333   6.689   0.806
 6177TIP3   OH240093   0.489   6.997   0.481
 6177TIP3    H140094   0.456   6.961   0.399
 6177TIP3    H240095   0.411   7.007   0.536
 6178TIP3   OH240096   0.932   0.408   0.765
 6178TIP3    H140097   0.967   0.385   0.851
 6178TIP3    H240098   1.004   0.453   0.721
 6179TIP3   OH240099   0.308   4.343   7.267
 6179TIP3    H140100   0.391   4.310   7.302
 6179TIP3    H240101   0.319   4.438   7.265
 6180TIP3   OH240102   1.712   6.815   7.857
 6180TIP3    H140103   1.802   6.790   7.837
 6180TIP3    H240104   1.668   6.817   7.772
 6181TIP3   OH240105   3.149   5.159   1.756
 6181TIP3    H140106   3.061   5.194   1.750
 6181TIP3    H240107   3.185   5.197   1.836
 6182TIP3   OH240108   2.513   1.426   7.339
 6182TIP3    H140109   2.548   1.513   7.320
 6182TIP3    H240110   2.550   1.370   7.271
 6183TIP3   OH240111   0.304   6.781   0.317
 6183TIP3    H140112   0.306   6.837   0.239
 6183TIP3    H240113   0.214   6.750   0.322
 6184TIP3   OH240114   0.294   6.240   8.102
 6184TIP3    H140115   0.344   6.303   8.154
 6184TIP3    H240116   0.207   6.279   8.094
 6185TIP3   OH240117   4.152   3.253   8.272
 6185TIP3    H140118   4.133   3.159   8.271
 6185TIP3    H240119   4.173   3.274   8.181
 6186TIP3   OH240120   5.027   2.412   1.218
 6186TIP3    H140121   5.045   2.325   1.181
 6186TIP3    H240122   5.066   2.410   1.305
 6187TIP3   OH240123   6.557   2.761   7.567
 6187TIP3    H140124   6.568   2.783   7.475
 6187TIP3    H240125   6.465   2.737   7.576
 6188TIP3   OH240126   4.054   0.830   7.782
 6188TIP3    H140127   4.028   0.776   7.856
 6188TIP3    H240128   4.066   0.917   7.819
 6189TIP3   OH240129   1.507   4.961   1.657
 6189TIP3    H140130   1.505   5.025   1.585
 6189TIP3    H240131   1.593   4.973   1.697
 6190TIP3   OH240132   5.024   4.303   1.006
 6190TIP3    H140133   5.091   4.246   1.042
 6190TIP3    H240134   5.004   4.265   0.920
 6191TIP3   OH240135   2.599   0.821   7.171
 6191TIP3    H140136   2.605   0.741   7.119
 6191TIP3    H240137   2.690   0.844   7.190
 6192TIP3   OH240138   5.301   5.837   0.292
 6192TIP3    H140139   5.284   5.745   0.272
 6192TIP3    H240140   5.396   5.846   0.286
 6193TIP3   OH240141   5.375   3.299   6.749
 6193TIP3    H140142   5.393   3.206   6.736
 6193TIP3    H240143   5.345   3.330   6.663
 6194TIP3   OH240144   6.973   1.307   6.370
 6194TIP3    H140145   7.018   1.303   6.286
 6194TIP3    H240146   6.948   1.217   6.389
 6195TIP3   OH240147   2.077   1.903   6.588
 6195TIP3    H140148   1.984   1.915   6.607
 6195TIP3    H240149   2.115   1.990   6.593
 6196TIP3   OH240150   6.406   3.335   7.663
 6196TIP3    H140151   6.459   3.309   7.588
 6196TIP3    H240152   6.429   3.273   7.732
 6197TIP3   OH240153   2.283   2.751   1.471
 6197TIP3    H140154   2.295   2.665   1.432
 6197TIP3    H240155   2.218   2.794   1.416
 6198TIP3   OH240156   1.894   2.906   1.348
 6198TIP3    H140157   1.824   2.883   1.287
 6198TIP3    H240158   1.849   2.954   1.418
 6199TIP3   OH240159   5.135   6.796   0.075
 6199TIP3    H140160   5.157   6.884   0.107
 6199TIP3    H240161   5.162   6.737   0.146
 6200TIP3   OH240162   5.607   6.273   1.131
 6200TIP3    H140163   5.540   6.269   1.063
 6200TIP3    H240164   5.634   6.182   1.143
 6201TIP3   OH240165   4.351   0.513   1.368
 6201TIP3    H140166   4.342   0.439   1.307
 6201TIP3    H240167   4.442   0.509   1.397
 6202TIP3   OH240168   5.055   0.104   1.389
 6202TIP3    H140169   5.120   0.041   1.421
 6202TIP3    H240170   5.108   0.180   1.362
 6203TIP3   OH240171   4.762   6.537   0.221
 6203TIP3    H140172   4.757   6.445   0.247
 6203TIP3    H240173   4.854   6.561   0.234
 6204TIP3   OH240174   6.845   0.060   0.877
 6204TIP3    H140175   6.785  -0.003   0.837
 6204TIP3    H240176   6.815   0.145   0.846
 6205TIP3   OH240177   1.692   1.065   7.663
 6205TIP3    H140178   1.769   1.118   7.643
 6205TIP3    H240179   1.634   1.077   7.588
 6206TIP3   OH240180   0.302   3.959   0.418
 6206TIP3    H140181   0.238   3.893   0.392
 6206TIP3    H240182   0.386   3.922   0.393
 6207TIP3   OH240183   6.417   0.127   7.629
 6207TIP3    H140184   6.432   0.048   7.578
 6207TIP3    H240185   6.467   0.195   7.584
 6208TIP3   OH240186   0.498   2.776   1.920
 6208TIP3    H140187   0.589   2.746   1.921
 6208TIP3    H240188   0.490   2.830   1.999
 6209TIP3   OH240189   1.430   3.227   8.247
 6209TIP3    H140190   1.356   3.260   8.298
 6209TIP3    H240191   1.508   3.257   8.294
 6210TIP3   OH240192   1.499   2.850   7.612
 6210TIP3    H140193   1.575   2.906   7.621
 6210TIP3    H240194   1.525   2.784   7.547
 6211TIP3   OH240195   1.024   5.392   1.575
 6211TIP3    H140196   0.955   5.374   1.511
 6211TIP3    H240197   1.087   5.321   1.563
 6212TIP3   OH240198   1.042   0.505   2.381
 6212TIP3    H140199   0.946   0.509   2.375
 6212TIP3    H240200   1.072   0.511   2.290
 6213TIP3   OH240201   2.017   6.143   6.188
 6213TIP3    H140202   2.024   6.228   6.145
 6213TIP3    H240203   1.936   6.149   6.239
 6214TIP3   OH240204   6.908   3.524   0.985
 6214TIP3    H140205   6.942   3.613   0.995
 6214TIP3    H240206   6.819   3.537   0.951
 6215TIP3   OH240207   2.776   0.811   6.567
 6215TIP3    H140208   2.763   0.906   6.578
 6215TIP3    H240209   2.730   0.791   6.485
 6216TIP3   OH240210   3.149   6.254   7.784
 6216TIP3    H140211   3.085   6.196   7.825
 6216TIP3    H240212   3.125   6.342   7.812
 6217TIP3   OH240213   1.236   1.306   0.610
 6217TIP3    H140214   1.271   1.218   0.601
 6217TIP3    H240215   1.268   1.337   0.695
 6218TIP3   OH240216   4.034   5.332   2.182
 6218TIP3    H140217   4.058   5.341   2.274
 6218TIP3    H240218   4.088   5.261   2.149
 6219TIP3   OH240219   2.530   3.106   8.274
 6219TIP3    H140220   2.518   3.012   8.260
 6219TIP3    H240221   2.516   3.118   8.368
 6220TIP3   OH240222   1.692   2.902   6.938
 6220TIP3    H140223   1.771   2.930   6.892
 6220TIP3    H240224   1.625   2.964   6.911
 6221TIP3   OH240225   0.355   2.663   0.281
 6221TIP3    H140226   0.369   2.673   0.376
 6221TIP3    H240227   0.270   2.702   0.265
 6222TIP3   OH240228   5.822   1.301   0.840
 6222TIP3    H140229   5.879   1.257   0.777
 6222TIP3    H240230   5.834   1.253   0.922
 6223TIP3   OH240231   0.597   6.330   0.650
 6223TIP3    H140232   0.511   6.342   0.691
 6223TIP3    H240233   0.623   6.418   0.624
 6224TIP3   OH240234   0.940   4.514   1.097
 6224TIP3    H140235   1.014   4.548   1.046
 6224TIP3    H240236   0.963   4.532   1.188
 6225TIP3   OH240237   3.967   3.038   1.771
 6225TIP3    H140238   4.023   3.098   1.819
 6225TIP3    H240239   3.915   2.994   1.839
 6226TIP3   OH240240   1.695   6.986   0.609
 6226TIP3    H140241   1.695   7.071   0.564
 6226TIP3    H240242   1.742   7.002   0.691
 6227TIP3   OH240243   2.220   6.191   8.286
 6227TIP3    H140244   2.231   6.156   8.374
 6227TIP3    H240245   2.302   6.169   8.241
 6228TIP3   OH240246   3.879   1.809   1.655
 6228TIP3    H140247   3.972   1.812   1.636
 6228TIP3    H240248   3.872   1.838   1.746
 6229TIP3   OH240249   5.878   3.713   1.473
 6229TIP3    H140250   5.878   3.804   1.444
 6229TIP3    H240251   5.971   3.690   1.479
 6230TIP3   OH240252   6.471   1.646   1.006
 6230TIP3    H140253   6.521   1.700   1.067
 6230TIP3    H240254   6.496   1.556   1.028
 6231TIP3   OH240255   0.301   0.957   7.742
 6231TIP3    H140256   0.287   1.033   7.799
 6231TIP3    H240257   0.394   0.935   7.753
 6232TIP3   OH240258   5.886   1.104   0.150
 6232TIP3    H140259   5.917   1.187   0.115
 6232TIP3    H240260   5.913   1.104   0.241
 6233TIP3   OH240261   1.069   6.293   2.340
 6233TIP3    H140262   1.153   6.286   2.294
 6233TIP3    H240263   1.070   6.222   2.404
 6234TIP3   OH240264   1.894   5.220   0.280
 6234TIP3    H140265   1.916   5.130   0.303
 6234TIP3    H240266   1.858   5.214   0.191
 6235TIP3   OH240267   0.750   5.475   0.620
 6235TIP3    H140268   0.813   5.497   0.688
 6235TIP3    H240269   0.801   5.471   0.540
 6236TIP3   OH240270   0.617   6.210   1.400
 6236TIP3    H140271   0.626   6.121   1.435
 6236TIP3    H240272   0.553   6.252   1.456
 6237TIP3   OH240273   3.054   1.185   0.034
 6237TIP3    H140274   3.106   1.171  -0.045
 6237TIP3    H240275   2.972   1.138   0.018
 6238TIP3   OH240276   0.637   5.208   0.690
 6238TIP3    H140277   0.664   5.166   0.771
 6238TIP3    H240278   0.701   5.277   0.676
 6239TIP3   OH240279   3.197   6.332   1.243
 6239TIP3    H140280   3.258   6.258   1.249
 6239TIP3    H240281   3.114   6.296   1.273
 6240TIP3   OH240282   6.871   6.432   0.391
 6240TIP3    H140283   6.826   6.500   0.342
 6240TIP3    H240284   6.808   6.405   0.459
 6241TIP3   OH240285   4.066   1.203   0.772
 6241TIP3    H140286   4.152   1.164   0.791
 6241TIP3    H240287   4.086   1.291   0.741
 6242TIP3   OH240288   3.280   1.471   0.965
 6242TIP3    H140289   3.315   1.540   0.908
 6242TIP3    H240290   3.295   1.504   1.054
 6243TIP3   OH240291   0.420   2.343   0.366
 6243TIP3    H140292   0.488   2.319   0.429
 6243TIP3    H240293   0.399   2.434   0.387
 6244TIP3   OH240294   1.257   6.219   1.968
 6244TIP3    H140295   1.313   6.149   1.999
 6244TIP3    H240296   1.312   6.269   1.908
 6245TIP3   OH240297   3.494   0.790   8.288
 6245TIP3    H140298   3.562   0.734   8.249
 6245TIP3    H240299   3.424   0.730   8.313
 6246TIP3   OH240300   2.785   6.774   6.200
 6246TIP3    H140301   2.836   6.849   6.233
 6246TIP3    H240302   2.843   6.699   6.210
 6247TIP3   OH240303   3.385   6.313   7.286
 6247TIP3    H140304   3.325   6.327   7.212
 6247TIP3    H240305   3.357   6.230   7.324
 6248TIP3   OH240306   2.630   6.250   7.857
 6248TIP3    H140307   2.641   6.182   7.791
 6248TIP3    H240308   2.535   6.263   7.864
 6249TIP3   OH240309   2.445   2.122   0.447
 6249TIP3    H140310   2.458   2.204   0.399
 6249TIP3    H240311   2.350   2.115   0.457
 6250TIP3   OH240312   0.614   3.784   7.495
 6250TIP3    H140313   0.639   3.794   7.586
 6250TIP3    H240314   0.581   3.870   7.469
 6251TIP3   OH240315   0.213   4.988   2.069
 6251TIP3    H140316   0.148   5.030   2.013
 6251TIP3    H240317   0.279   5.055   2.083
 6252TIP3   OH240318   3.600   3.980   0.022
 6252TIP3    H140319   3.580   4.072   0.040
 6252TIP3    H240320   3.695   3.974   0.032
 6253TIP3   OH240321   0.034   0.330   1.424
 6253TIP3    H140322   0.052   0.348   1.331
 6253TIP3    H240323   0.049   0.413   1.468
 6254TIP3   OH240324   4.050   5.658   6.219
 6254TIP3    H140325   4.031   5.748   6.190
 6254TIP3    H240326   4.042   5.606   6.140
 6255TIP3   OH240327   4.103   6.997   1.575
 6255TIP3    H140328   4.076   6.929   1.513
 6255TIP3    H240329   4.192   6.973   1.601
 6256TIP3   OH240330   5.309   1.552   6.294
 6256TIP3    H140331   5.336   1.505   6.215
 6256TIP3    H240332   5.377   1.616   6.309
 6257TIP3   OH240333   1.473   5.258   6.447
 6257TIP3    H140334   1.391   5.241   6.493
 6257TIP3    H240335   1.520   5.174   6.450
 6258TIP3   OH240336   2.286   3.086   1.001
 6258TIP3    H140337   2.360   3.125   1.048
 6258TIP3    H240338   2.292   2.993   1.020
 6259TIP3   OH240339   1.080   3.590   6.665
 6259TIP3    H140340   1.074   3.511   6.611
 6259TIP3    H240341   1.137   3.648   6.616
 6260TIP3   OH240342   0.273   4.893   8.307
 6260TIP3    H140343   0.364   4.921   8.298
 6260TIP3    H240344   0.225   4.949   8.246
 6261TIP3   OH240345   5.848   0.948   7.777
 6261TIP3    H140346   5.838   1.025   7.834
 6261TIP3    H240347   5.907   0.890   7.825
 6262TIP3   OH240348   1.024   6.586   7.038
 6262TIP3    H140349   1.074   6.599   7.119
 6262TIP3    H240350   0.972   6.666   7.030
 6263TIP3   OH240351   0.264   6.196   6.784
 6263TIP3    H140352   0.219   6.140   6.721
 6263TIP3    H240353   0.321   6.137   6.833
 6264TIP3   OH240354   4.685   4.918   1.150
 6264TIP3    H140355   4.592   4.920   1.169
 6264TIP3    H240356   4.716   4.838   1.192
 6265TIP3   OH240357   6.355   6.415   1.566
 6265TIP3    H140358   6.430   6.364   1.598
 6265TIP3    H240359   6.279   6.367   1.599
 6266TIP3   OH240360   2.632   1.022   0.878
 6266TIP3    H140361   2.696   0.963   0.836
 6266TIP3    H240362   2.685   1.090   0.918
 6267TIP3   OH240363   1.212   5.282   6.534
 6267TIP3    H140364   1.188   5.360   6.484
 6267TIP3    H240365   1.129   5.236   6.549
 6268TIP3   OH240366   3.610   2.279   7.155
 6268TIP3    H140367   3.527   2.232   7.161
 6268TIP3    H240368   3.645   2.255   7.070
 6269TIP3   OH240369   2.088   2.596   6.847
 6269TIP3    H140370   2.123   2.616   6.760
 6269TIP3    H240371   2.071   2.682   6.886
 6270TIP3   OH240372   6.126   6.750   0.616
 6270TIP3    H140373   6.033   6.727   0.605
 6270TIP3    H240374   6.161   6.681   0.672
 6271TIP3   OH240375   3.804   3.316   8.179
 6271TIP3    H140376   3.831   3.339   8.268
 6271TIP3    H240377   3.734   3.252   8.190
 6272TIP3   OH240378   3.980   6.229   1.720
 6272TIP3    H140379   4.057   6.253   1.772
 6272TIP3    H240380   3.970   6.135   1.733
 6273TIP3   OH240381   0.245   0.936   0.409
 6273TIP3    H140382   0.258   1.031   0.414
 6273TIP3    H240383   0.303   0.907   0.339
 6274TIP3   OH240384   4.626   0.151   6.467
 6274TIP3    H140385   4.616   0.076   6.408
 6274TIP3    H240386   4.537   0.175   6.491
 6275TIP3   OH240387   3.613   5.672   7.584
 6275TIP3    H140388   3.542   5.620   7.546
 6275TIP3    H240389   3.585   5.689   7.674
 6276TIP3   OH240390   6.687   0.645   0.723
 6276TIP3    H140391   6.629   0.643   0.647
 6276TIP3    H240392   6.630   0.626   0.798
 6277TIP3   OH240393   5.874   3.290   6.725
 6277TIP3    H140394   5.866   3.372   6.676
 6277TIP3    H240395   5.876   3.222   6.657
 6278TIP3   OH240396   0.188   2.330   7.519
 6278TIP3    H140397   0.172   2.344   7.613
 6278TIP3    H240398   0.117   2.272   7.492
 6279TIP3   OH240399   2.397   4.662   1.762
 6279TIP3    H140400   2.392   4.693   1.852
 6279TIP3    H240401   2.306   4.645   1.737
 6280TIP3   OH240402   2.361   2.634   8.007
 6280TIP3    H140403   2.370   2.558   7.950
 6280TIP3    H240404   2.442   2.684   7.995
 6281TIP3   OH240405   5.987   0.268   6.621
 6281TIP3    H140406   5.952   0.186   6.585
 6281TIP3    H240407   6.006   0.248   6.713
 6282TIP3   OH240408   1.497   0.522   7.853
 6282TIP3    H140409   1.576   0.471   7.840
 6282TIP3    H240410   1.523   0.612   7.834
 6283TIP3   OH240411   5.398   1.539   6.962
 6283TIP3    H140412   5.314   1.506   6.930
 6283TIP3    H240413   5.421   1.480   7.035
 6284TIP3   OH240414   0.197   5.272   7.793
 6284TIP3    H140415   0.286   5.269   7.828
 6284TIP3    H240416   0.179   5.366   7.781
 6285TIP3   OH240417   6.015   1.872   7.348
 6285TIP3    H140418   6.083   1.816   7.384
 6285TIP3    H240419   5.955   1.888   7.421
 6286TIP3   OH240420   2.073   2.863   6.370
 6286TIP3    H140421   2.167   2.877   6.381
 6286TIP3    H240422   2.067   2.778   6.327
 6287TIP3   OH240423   1.077   5.751   0.203
 6287TIP3    H140424   1.002   5.772   0.147
 6287TIP3    H240425   1.123   5.834   0.212
 6288TIP3   OH240426   0.850   4.033   7.438
 6288TIP3    H140427   0.906   3.972   7.486
 6288TIP3    H240428   0.777   4.050   7.497
 6289TIP3   OH240429   5.410   5.611   1.604
 6289TIP3    H140430   5.334   5.641   1.554
 6289TIP3    H240431   5.432   5.526   1.565
 6290TIP3   OH240432   2.216   3.792   7.130
 6290TIP3    H140433   2.202   3.885   7.147
 6290TIP3    H240434   2.251   3.790   7.041
 6291TIP3   OH240435   4.515   2.208   6.431
 6291TIP3    H140436   4.594   2.154   6.433
 6291TIP3    H240437   4.443   2.146   6.426
 6292TIP3   OH240438   4.570   3.744   6.334
 6292TIP3    H140439   4.533   3.656   6.344
 6292TIP3    H240440   4.532   3.776   6.252
 6293TIP3   OH240441   6.686   3.132   1.321
 6293TIP3    H140442   6.771   3.164   1.292
 6293TIP3    H240443   6.623   3.171   1.260
 6294TIP3   OH240444   2.480   3.941   7.339
 6294TIP3    H140445   2.518   3.940   7.251
 6294TIP3    H240446   2.406   4.001   7.332
 6295TIP3   OH240447   1.776   6.070   7.147
 6295TIP3    H140448   1.725   5.993   7.172
 6295TIP3    H240449   1.830   6.039   7.074
 6296TIP3   OH240450   4.024   5.525   7.114
 6296TIP3    H140451   4.068   5.610   7.114
 6296TIP3    H240452   3.969   5.526   7.036
 6297TIP3   OH240453   3.147   1.418   0.704
 6297TIP3    H140454   3.064   1.421   0.751
 6297TIP3    H240455   3.212   1.392   0.770
 6298TIP3   OH240456   6.784   1.240   7.212
 6298TIP3    H140457   6.870   1.264   7.175
 6298TIP3    H240458   6.763   1.313   7.271
 6299TIP3   OH240459   5.511   2.368   8.094
 6299TIP3    H140460   5.476   2.455   8.078
 6299TIP3    H240461   5.548   2.341   8.010
 6300TIP3   OH240462   1.538   1.832   0.819
 6300TIP3    H140463   1.541   1.849   0.913
 6300TIP3    H240464   1.584   1.906   0.780
 6301TIP3   OH240465   1.342   6.000   7.041
 6301TIP3    H140466   1.390   6.030   7.117
 6301TIP3    H240467   1.315   5.911   7.062
 6302TIP3   OH240468   6.281   4.249   0.554
 6302TIP3    H140469   6.326   4.211   0.630
 6302TIP3    H240470   6.252   4.335   0.584
 6303TIP3   OH240471   5.658   3.171   0.392
 6303TIP3    H140472   5.701   3.153   0.308
 6303TIP3    H240473   5.604   3.094   0.409
 6304TIP3   OH240474   3.127   3.506   1.583
 6304TIP3    H140475   3.198   3.443   1.569
 6304TIP3    H240476   3.061   3.458   1.631
 6305TIP3   OH240477   2.301   6.993   1.035
 6305TIP3    H140478   2.240   7.035   0.974
 6305TIP3    H240479   2.371   7.057   1.048
 6306TIP3   OH240480   3.468   1.799   6.225
 6306TIP3    H140481   3.535   1.738   6.256
 6306TIP3    H240482   3.497   1.885   6.256
 6307TIP3   OH240483   0.424   1.487   0.946
 6307TIP3    H140484   0.387   1.440   0.871
 6307TIP3    H240485   0.385   1.574   0.942
 6308TIP3   OH240486   5.822   0.196   6.969
 6308TIP3    H140487   5.915   0.200   6.993
 6308TIP3    H240488   5.813   0.111   6.925
 6309TIP3   OH240489   0.681   0.526   1.164
 6309TIP3    H140490   0.768   0.491   1.185
 6309TIP3    H240491   0.644   0.463   1.102
 6310TIP3   OH240492   0.754   5.333   7.795
 6310TIP3    H140493   0.790   5.353   7.708
 6310TIP3    H240494   0.820   5.367   7.856
 6311TIP3   OH240495   3.551   4.213   7.089
 6311TIP3    H140496   3.616   4.147   7.063
 6311TIP3    H240497   3.515   4.180   7.171
 6312TIP3   OH240498   3.925   4.257   1.153
 6312TIP3    H140499   3.989   4.219   1.213
 6312TIP3    H240500   3.934   4.207   1.072
 6313TIP3   OH240501   2.791   6.152   7.550
 6313TIP3    H140502   2.773   6.125   7.460
 6313TIP3    H240503   2.806   6.069   7.596
 6314TIP3   OH240504   4.619   0.065   8.032
 6314TIP3    H140505   4.571   0.144   8.006
 6314TIP3    H240506   4.711   0.089   8.022
 6315TIP3   OH240507   5.589   1.784   7.851
 6315TIP3    H140508   5.583   1.816   7.761
 6315TIP3    H240509   5.614   1.692   7.842
 6316TIP3   OH240510   0.216   0.921   7.493
 6316TIP3    H140511   0.244   0.948   7.580
 6316TIP3    H240512   0.126   0.892   7.504
 6317TIP3   OH240513   2.114   4.662   1.708
 6317TIP3    H140514   2.071   4.635   1.627
 6317TIP3    H240515   2.098   4.756   1.714
 6318TIP3   OH240516   2.715   2.885   1.013
 6318TIP3    H140517   2.713   2.933   1.096
 6318TIP3    H240518   2.783   2.819   1.024
 6319TIP3   OH240519   5.364   6.614   7.207
 6319TIP3    H140520   5.411   6.678   7.261
 6319TIP3    H240521   5.431   6.552   7.179
 6320TIP3   OH240522   4.586   1.214   7.193
 6320TIP3    H140523   4.639   1.199   7.115
 6320TIP3    H240524   4.503   1.249   7.159
 6321TIP3   OH240525   5.042   1.471   6.303
 6321TIP3    H140526   5.025   1.529   6.229
 6321TIP3    H240527   5.123   1.505   6.342
 6322TIP3   OH240528   1.662   5.036   6.837
 6322TIP3    H140529   1.587   5.076   6.794
 6322TIP3    H240530   1.678   4.955   6.787
 6323TIP3   OH240531   0.691   0.127   1.332
 6323TIP3    H140532   0.685   0.164   1.420
 6323TIP3    H240533   0.631   0.053   1.333
 6324TIP3   OH240534   6.003   1.098   6.795
 6324TIP3    H140535   5.945   1.150   6.849
 6324TIP3    H240536   5.954   1.018   6.776
 6325TIP3   OH240537   0.697   1.818   1.275
 6325TIP3    H140538   0.783   1.776   1.271
 6325TIP3    H240539   0.689   1.846   1.367
 6326TIP3   OH240540   1.031   6.332   1.297
 6326TIP3    H140541   1.033   6.315   1.391
 6326TIP3    H240542   1.034   6.428   1.290
 6327TIP3   OH240543   3.263   6.736   0.941
 6327TIP3    H140544   3.261   6.810   0.880
 6327TIP3    H240545   3.306   6.665   0.892
 6328TIP3   OH240546   0.025   1.042   6.416
 6328TIP3    H140547   0.085   1.029   6.489
 6328TIP3    H240548  -0.058   1.066   6.457
 6329TIP3   OH240549   1.518   6.319   2.475
 6329TIP3    H140550   1.533   6.226   2.488
 6329TIP3    H240551   1.442   6.324   2.417
 6330TIP3   OH240552   5.652   5.192   0.361
 6330TIP3    H140553   5.633   5.262   0.299
 6330TIP3    H240554   5.567   5.155   0.382
 6331TIP3   OH240555   2.700   3.477   6.616
 6331TIP3    H140556   2.713   3.484   6.522
 6331TIP3    H240557   2.775   3.523   6.655
 6332TIP3   OH240558   2.857   3.124   7.408
 6332TIP3    H140559   2.805   3.165   7.339
 6332TIP3    H240560   2.933   3.182   7.417
 6333TIP3   OH240561   2.531   4.233   7.410
 6333TIP3    H140562   2.533   4.179   7.330
 6333TIP3    H240563   2.599   4.196   7.465
 6334TIP3   OH240564   6.486   6.537   0.231
 6334TIP3    H140565   6.405   6.516   0.185
 6334TIP3    H240566   6.470   6.509   0.321
 6335TIP3   OH240567   1.181   5.239   0.307
 6335TIP3    H140568   1.227   5.155   0.301
 6335TIP3    H240569   1.118   5.237   0.235
 6336TIP3   OH240570   6.392   1.917   8.334
 6336TIP3    H140571   6.472   1.951   8.294
 6336TIP3    H240572   6.344   1.877   8.261
 6337TIP3   OH240573   4.898   6.442   6.182
 6337TIP3    H140574   4.957   6.516   6.199
 6337TIP3    H240575   4.855   6.466   6.100
 6338TIP3   OH240576   1.426   3.822   6.927
 6338TIP3    H140577   1.443   3.810   6.834
 6338TIP3    H240578   1.394   3.738   6.958
 6339TIP3   OH240579   6.630   4.928   7.259
 6339TIP3    H140580   6.669   4.941   7.345
 6339TIP3    H240581   6.596   5.014   7.234
 6340TIP3   OH240582   4.843   3.877   6.441
 6340TIP3    H140583   4.760   3.830   6.431
 6340TIP3    H240584   4.905   3.828   6.387
 6341TIP3   OH240585   6.880   6.677   1.485
 6341TIP3    H140586   6.969   6.647   1.469
 6341TIP3    H240587   6.884   6.720   1.570
 6342TIP3   OH240588   5.994   6.688   6.047
 6342TIP3    H140589   6.071   6.730   6.086
 6342TIP3    H240590   5.995   6.715   5.955
 6343TIP3   OH240591   3.148   6.958   5.749
 6343TIP3    H140592   3.170   7.031   5.806
 6343TIP3    H240593   3.088   6.995   5.685
 6344TIP3   OH240594   0.340   4.268   0.856
 6344TIP3    H140595   0.295   4.191   0.890
 6344TIP3    H240596   0.282   4.302   0.787
 6345TIP3   OH240597   3.507   3.408   1.597
 6345TIP3    H140598   3.560   3.360   1.660
 6345TIP3    H240599   3.455   3.341   1.553
 6346TIP3   OH240600   4.676   4.535   0.571
 6346TIP3    H140601   4.584   4.554   0.553
 6346TIP3    H240602   4.674   4.456   0.625
 6347TIP3   OH240603   3.567   1.685   0.207
 6347TIP3    H140604   3.546   1.732   0.126
 6347TIP3    H240605   3.515   1.729   0.274
 6348TIP3   OH240606   2.265   3.746   7.682
 6348TIP3    H140607   2.350   3.776   7.649
 6348TIP3    H240608   2.201   3.798   7.632
 6349TIP3   OH240609   4.736   2.452   6.110
 6349TIP3    H140610   4.750   2.396   6.187
 6349TIP3    H240611   4.746   2.541   6.143
 6350TIP3   OH240612   0.347   6.397   0.756
 6350TIP3    H140613   0.306   6.484   0.755
 6350TIP3    H240614   0.281   6.339   0.719
 6351TIP3   OH240615   4.930   4.153   8.311
 6351TIP3    H140616   4.994   4.082   8.315
 6351TIP3    H240617   4.876   4.131   8.235
 6352TIP3   OH240618   5.232   6.915   0.917
 6352TIP3    H140619   5.171   6.982   0.948
 6352TIP3    H240620   5.176   6.847   0.880
 6353TIP3   OH240621   0.286   0.713   0.922
 6353TIP3    H140622   0.207   0.733   0.971
 6353TIP3    H240623   0.272   0.625   0.888
 6354TIP3   OH240624   2.962   1.153   7.156
 6354TIP3    H140625   3.042   1.206   7.159
 6354TIP3    H240626   2.937   1.153   7.064
 6355TIP3   OH240627   5.332   0.837   1.590
 6355TIP3    H140628   5.292   0.867   1.508
 6355TIP3    H240629   5.359   0.918   1.634
 6356TIP3   OH240630   3.340   5.650   0.199
 6356TIP3    H140631   3.378   5.654   0.287
 6356TIP3    H240632   3.268   5.588   0.206
 6357TIP3   OH240633   1.961   2.883   0.422
 6357TIP3    H140634   1.880   2.882   0.370
 6357TIP3    H240635   2.017   2.818   0.380
 6358TIP3   OH240636   4.221   2.998   0.067
 6358TIP3    H140637   4.132   2.995   0.101
 6358TIP3    H240638   4.254   2.909   0.079
 6359TIP3   OH240639   1.517   4.010   1.496
 6359TIP3    H140640   1.469   4.054   1.567
 6359TIP3    H240641   1.608   4.011   1.525
 6360TIP3   OH240642   4.744   4.187   7.994
 6360TIP3    H140643   4.758   4.103   7.950
 6360TIP3    H240644   4.670   4.226   7.948
 6361TIP3   OH240645   5.061   1.957   6.989
 6361TIP3    H140646   5.152   1.930   6.976
 6361TIP3    H240647   5.060   2.049   6.962
 6362TIP3   OH240648   6.311   6.024   8.374
 6362TIP3    H140649   6.236   6.073   8.340
 6362TIP3    H240650   6.273   5.963   8.437
 6363TIP3   OH240651   4.994   4.915   1.694
 6363TIP3    H140652   4.974   5.008   1.703
 6363TIP3    H240653   5.019   4.887   1.782
 6364TIP3   OH240654   6.046   0.083   6.858
 6364TIP3    H140655   6.011   0.043   6.779
 6364TIP3    H240656   6.122   0.133   6.828
 6365TIP3   OH240657   1.274   3.008   0.010
 6365TIP3    H140658   1.339   2.990  -0.059
 6365TIP3    H240659   1.208   3.062  -0.033
 6366TIP3   OH240660   5.848   6.438   7.141
 6366TIP3    H140661   5.915   6.507   7.137
 6366TIP3    H240662   5.897   6.357   7.133
 6367TIP3   OH240663   1.236   4.206   7.764
 6367TIP3    H140664   1.256   4.113   7.755
 6367TIP3    H240665   1.254   4.243   7.678
 6368TIP3   OH240666   5.328   0.757   1.850
 6368TIP3    H140667   5.389   0.719   1.913
 6368TIP3    H240668   5.384   0.786   1.777
 6369TIP3   OH240669   6.715   5.228   1.217
 6369TIP3    H140670   6.799   5.217   1.261
 6369TIP3    H240671   6.714   5.160   1.150
 6370TIP3   OH240672   1.152   4.549   0.673
 6370TIP3    H140673   1.228   4.603   0.652
 6370TIP3    H240674   1.077   4.606   0.657
 6371TIP3   OH240675   6.938   6.893   0.450
 6371TIP3    H140676   6.863   6.950   0.433
 6371TIP3    H240677   7.014   6.952   0.441
 6372TIP3   OH240678   3.952   1.549   0.879
 6372TIP3    H140679   3.988   1.481   0.935
 6372TIP3    H240680   3.857   1.535   0.882
 6373TIP3   OH240681   0.568   4.904   8.238
 6373TIP3    H140682   0.591   4.892   8.330
 6373TIP3    H240683   0.651   4.901   8.191
 6374TIP3   OH240684   2.773   3.106   0.393
 6374TIP3    H140685   2.846   3.139   0.340
 6374TIP3    H240686   2.754   3.178   0.454
 6375TIP3   OH240687   4.276   5.957   6.846
 6375TIP3    H140688   4.257   6.007   6.767
 6375TIP3    H240689   4.189   5.932   6.879
 6376TIP3   OH240690   0.374   5.584   8.007
 6376TIP3    H140691   0.374   5.570   7.912
 6376TIP3    H240692   0.282   5.594   8.029
 6377TIP3   OH240693   1.288   1.577   0.221
 6377TIP3    H140694   1.377   1.547   0.202
 6377TIP3    H240695   1.286   1.668   0.190
 6378TIP3   OH240696   1.144   5.282   8.365
 6378TIP3    H140697   1.123   5.371   8.392
 6378TIP3    H240698   1.149   5.286   8.270
 6379TIP3   OH240699   1.094   4.549   6.343
 6379TIP3    H140700   1.173   4.535   6.292
 6379TIP3    H240701   1.046   4.466   6.335
 6380TIP3   OH240702   0.420   5.670   5.929
 6380TIP3    H140703   0.363   5.738   5.893
 6380TIP3    H240704   0.373   5.638   6.005
 6381TIP3   OH240705   5.450   3.116   0.714
 6381TIP3    H140706   5.448   3.204   0.753
 6381TIP3    H240707   5.358   3.096   0.697
 6382TIP3   OH240708   3.073   3.855   7.417
 6382TIP3    H140709   3.128   3.891   7.348
 6382TIP3    H240710   3.098   3.763   7.423
 6383TIP3   OH240711   1.781   2.366   7.438
 6383TIP3    H140712   1.783   2.271   7.444
 6383TIP3    H240713   1.754   2.395   7.526
 6384TIP3   OH240714   5.199   1.237   6.110
 6384TIP3    H140715   5.291   1.266   6.112
 6384TIP3    H240716   5.164   1.264   6.195
 6385TIP3   OH240717   0.210   2.759   7.572
 6385TIP3    H140718   0.226   2.687   7.510
 6385TIP3    H240719   0.293   2.808   7.573
 6386TIP3   OH240720   2.614   4.699   0.570
 6386TIP3    H140721   2.634   4.619   0.521
 6386TIP3    H240722   2.566   4.754   0.508
 6387TIP3   OH240723   2.214   3.022   1.949
 6387TIP3    H140724   2.269   2.946   1.964
 6387TIP3    H240725   2.203   3.062   2.036
 6388TIP3   OH240726   2.863   4.001   7.153
 6388TIP3    H140727   2.912   4.014   7.072
 6388TIP3    H240728   2.853   3.906   7.160
 6389TIP3   OH240729   5.477   6.958   6.842
 6389TIP3    H140730   5.443   7.046   6.857
 6389TIP3    H240731   5.503   6.957   6.750
 6390TIP3   OH240732   4.798   4.794   8.257
 6390TIP3    H140733   4.843   4.721   8.214
 6390TIP3    H240734   4.800   4.864   8.193
 6391TIP3   OH240735   3.223   0.967   7.597
 6391TIP3    H140736   3.280   0.953   7.674
 6391TIP3    H240737   3.265   0.917   7.527
 6392TIP3   OH240738   3.792   1.277   0.560
 6392TIP3    H140739   3.762   1.292   0.470
 6392TIP3    H240740   3.877   1.321   0.564
 6393TIP3   OH240741   1.527   4.388   0.089
 6393TIP3    H140742   1.570   4.311   0.126
 6393TIP3    H240743   1.520   4.449   0.163
 6394TIP3   OH240744   2.034   6.591   2.310
 6394TIP3    H140745   2.054   6.622   2.398
 6394TIP3    H240746   2.020   6.671   2.259
 6395TIP3   OH240747   4.575   6.377   8.310
 6395TIP3    H140748   4.566   6.438   8.384
 6395TIP3    H240749   4.528   6.299   8.339
 6396TIP3   OH240750   6.270   1.179   2.113
 6396TIP3    H140751   6.207   1.137   2.172
 6396TIP3    H240752   6.238   1.269   2.105
 6397TIP3   OH240753   2.154   2.859   1.254
 6397TIP3    H140754   2.064   2.871   1.284
 6397TIP3    H240755   2.194   2.945   1.263
 6398TIP3   OH240756   0.699   3.539   0.980
 6398TIP3    H140757   0.731   3.466   1.033
 6398TIP3    H240758   0.776   3.593   0.964
 6399TIP3   OH240759   0.257   0.319   1.636
 6399TIP3    H140760   0.276   0.253   1.569
 6399TIP3    H240761   0.339   0.330   1.684
 6400TIP3   OH240762   5.545   4.241   0.959
 6400TIP3    H140763   5.503   4.174   0.906
 6400TIP3    H240764   5.617   4.196   1.003
 6401TIP3   OH240765   0.595   2.301   6.601
 6401TIP3    H140766   0.655   2.290   6.527
 6401TIP3    H240767   0.592   2.215   6.642
 6402TIP3   OH240768   4.897   3.418   6.472
 6402TIP3    H140769   4.939   3.396   6.555
 6402TIP3    H240770   4.878   3.511   6.479
 6403TIP3   OH240771   0.139   3.420   0.862
 6403TIP3    H140772   0.062   3.425   0.919
 6403TIP3    H240773   0.116   3.472   0.785
 6404TIP3   OH240774   5.346   4.436   8.380
 6404TIP3    H140775   5.344   4.341   8.387
 6404TIP3    H240776   5.439   4.458   8.377
 6405TIP3   OH240777   4.911   6.122   0.071
 6405TIP3    H140778   4.951   6.201   0.108
 6405TIP3    H240779   4.946   6.117  -0.018
 6406TIP3   OH240780   3.178   3.365   0.131
 6406TIP3    H140781   3.190   3.439   0.072
 6406TIP3    H240782   3.219   3.291   0.086
 6407TIP3   OH240783   6.339   1.236   0.146
 6407TIP3    H140784   6.351   1.227   0.240
 6407TIP3    H240785   6.348   1.147   0.112
 6408TIP3   OH240786   4.864   3.854   1.022
 6408TIP3    H140787   4.897   3.933   1.065
 6408TIP3    H240788   4.933   3.830   0.960
 6409TIP3   OH240789   0.741   4.958   6.920
 6409TIP3    H140790   0.746   4.901   6.843
 6409TIP3    H240791   0.758   5.046   6.885
 6410TIP3   OH240792   0.216   2.974   8.345
 6410TIP3    H140793   0.180   3.062   8.358
 6410TIP3    H240794   0.165   2.938   8.272
 6411TIP3   OH240795   0.160   6.583   6.591
 6411TIP3    H140796   0.246   6.557   6.623
 6411TIP3    H240797   0.121   6.501   6.560
 6412TIP3   OH240798   5.709   4.936   1.418
 6412TIP3    H140799   5.753   4.988   1.486
 6412TIP3    H240800   5.650   4.878   1.466
 6413TIP3   OH240801   4.705   0.873   2.257
 6413TIP3    H140802   4.705   0.783   2.289
 6413TIP3    H240803   4.625   0.881   2.206
 6414TIP3   OH240804   4.945   2.493   7.933
 6414TIP3    H140805   5.017   2.436   7.907
 6414TIP3    H240806   4.867   2.437   7.926
 6415TIP3   OH240807   3.963   5.598   7.635
 6415TIP3    H140808   4.020   5.549   7.575
 6415TIP3    H240809   3.875   5.572   7.610
 6416TIP3   OH240810   3.220   2.801   6.056
 6416TIP3    H140811   3.124   2.800   6.054
 6416TIP3    H240812   3.246   2.727   6.002
 6417TIP3   OH240813   4.896   6.802   2.255
 6417TIP3    H140814   4.871   6.894   2.265
 6417TIP3    H240815   4.971   6.791   2.313
 6418TIP3   OH240816   6.934   1.585   1.382
 6418TIP3    H140817   6.998   1.565   1.314
 6418TIP3    H240818   6.963   1.533   1.457
 6419TIP3   OH240819   4.802   6.098   2.068
 6419TIP3    H140820   4.783   6.021   2.015
 6419TIP3    H240821   4.770   6.171   2.017
 6420TIP3   OH240822   3.553   3.513   7.498
 6420TIP3    H140823   3.514   3.444   7.550
 6420TIP3    H240824   3.626   3.471   7.452
 6421TIP3   OH240825   5.239   0.987   7.272
 6421TIP3    H140826   5.288   0.950   7.345
 6421TIP3    H240827   5.220   1.077   7.298
 6422TIP3   OH240828   6.051   1.136   7.129
 6422TIP3    H140829   6.126   1.145   7.071
 6422TIP3    H240830   6.007   1.056   7.101
 6423TIP3   OH240831   4.783   4.774   6.651
 6423TIP3    H140832   4.749   4.732   6.573
 6423TIP3    H240833   4.759   4.866   6.642
 6424TIP3   OH240834   5.995   2.958   1.514
 6424TIP3    H140835   6.071   2.967   1.572
 6424TIP3    H240836   5.956   2.875   1.538
 6425TIP3   OH240837   0.202   3.099   1.423
 6425TIP3    H140838   0.228   3.190   1.437
 6425TIP3    H240839   0.285   3.050   1.424
 6426TIP3   OH240840   4.601   2.076   0.523
 6426TIP3    H140841   4.668   2.017   0.489
 6426TIP3    H240842   4.526   2.064   0.465
 6427TIP3   OH240843   6.059   5.789   0.618
 6427TIP3    H140844   6.033   5.707   0.659
 6427TIP3    H240845   5.977   5.839   0.611
 6428TIP3   OH240846   4.957   1.027   0.300
 6428TIP3    H140847   4.952   1.009   0.206
 6428TIP3    H240848   5.023   1.096   0.308
 6429TIP3   OH240849   6.806   3.962   8.061
 6429TIP3    H140850   6.861   4.029   8.100
 6429TIP3    H240851   6.867   3.903   8.017
 6430TIP3   OH240852   2.642   4.884   7.945
 6430TIP3    H140853   2.688   4.893   8.029
 6430TIP3    H240854   2.616   4.792   7.943
 6431TIP3   OH240855   1.267   1.975   0.801
 6431TIP3    H140856   1.331   1.974   0.872
 6431TIP3    H240857   1.183   1.991   0.845
 6432TIP3   OH240858   1.979   3.462   6.902
 6432TIP3    H140859   2.073   3.475   6.894
 6432TIP3    H240860   1.946   3.545   6.938
 6433TIP3   OH240861   5.056   1.319   1.254
 6433TIP3    H140862   5.036   1.242   1.307
 6433TIP3    H240863   5.106   1.376   1.313
 6434TIP3   OH240864   5.335   5.719   8.188
 6434TIP3    H140865   5.263   5.708   8.126
 6434TIP3    H240866   5.405   5.760   8.137
 6435TIP3   OH240867   3.863   4.664   1.360
 6435TIP3    H140868   3.853   4.744   1.412
 6435TIP3    H240869   3.828   4.686   1.274
 6436TIP3   OH240870   4.355   5.189   2.320
 6436TIP3    H140871   4.270   5.151   2.300
 6436TIP3    H240872   4.375   5.245   2.245
 6437TIP3   OH240873   0.023   4.851   6.985
 6437TIP3    H140874  -0.060   4.899   6.992
 6437TIP3    H240875   0.079   4.908   6.931
 6438TIP3   OH240876   5.846   6.368   0.569
 6438TIP3    H140877   5.829   6.290   0.517
 6438TIP3    H240878   5.937   6.357   0.599
 6439TIP3   OH240879   5.158   3.236   1.136
 6439TIP3    H140880   5.177   3.143   1.120
 6439TIP3    H240881   5.158   3.244   1.231
 6440TIP3   OH240882   3.318   1.207   0.961
 6440TIP3    H140883   3.383   1.179   0.897
 6440TIP3    H240884   3.314   1.302   0.951
 6441TIP3   OH240885   2.228   3.463   7.660
 6441TIP3    H140886   2.243   3.556   7.646
 6441TIP3    H240887   2.218   3.426   7.573
 6442TIP3   OH240888   0.928   2.587   6.080
 6442TIP3    H140889   0.873   2.662   6.057
 6442TIP3    H240890   1.002   2.591   6.020
 6443TIP3   OH240891   1.775   3.688   8.113
 6443TIP3    H140892   1.737   3.629   8.048
 6443TIP3    H240893   1.720   3.766   8.111
 6444TIP3   OH240894   0.318   2.053   8.405
 6444TIP3    H140895   0.316   1.963   8.375
 6444TIP3    H240896   0.382   2.054   8.476
 6445TIP3   OH240897   3.002   3.626   1.344
 6445TIP3    H140898   3.062   3.647   1.273
 6445TIP3    H240899   3.059   3.608   1.419
 6446TIP3   OH240900   0.174   1.322   1.755
 6446TIP3    H140901   0.254   1.281   1.723
 6446TIP3    H240902   0.113   1.249   1.767
 6447TIP3   OH240903   5.863   4.501   7.202
 6447TIP3    H140904   5.869   4.582   7.252
 6447TIP3    H240905   5.780   4.462   7.228
 6448TIP3   OH240906   1.603   6.614   1.057
 6448TIP3    H140907   1.524   6.562   1.042
 6448TIP3    H240908   1.630   6.591   1.146
 6449TIP3   OH240909   1.377   0.908   0.751
 6449TIP3    H140910   1.427   0.833   0.719
 6449TIP3    H240911   1.370   0.893   0.846
 6450TIP3   OH240912   5.688   3.058   0.992
 6450TIP3    H140913   5.728   2.971   1.000
 6450TIP3    H240914   5.621   3.047   0.925
 6451TIP3   OH240915   2.283   5.474   6.711
 6451TIP3    H140916   2.291   5.411   6.782
 6451TIP3    H240917   2.243   5.551   6.750
 6452TIP3   OH240918   3.892   3.960   7.757
 6452TIP3    H140919   3.897   3.936   7.850
 6452TIP3    H240920   3.799   3.972   7.740
 6453TIP3   OH240921   0.918   6.978   7.737
 6453TIP3    H140922   0.930   7.072   7.752
 6453TIP3    H240923   0.847   6.973   7.673
 6454TIP3   OH240924   4.972   5.362   1.171
 6454TIP3    H140925   5.028   5.398   1.102
 6454TIP3    H240926   4.909   5.307   1.125
 6455TIP3   OH240927   5.511   2.285   8.388
 6455TIP3    H140928   5.537   2.339   8.313
 6455TIP3    H240929   5.549   2.329   8.464
 6456TIP3   OH240930   5.919   4.247   0.754
 6456TIP3    H140931   5.925   4.186   0.827
 6456TIP3    H240932   5.883   4.195   0.682
 6457TIP3   OH240933   3.124   2.612   8.291
 6457TIP3    H140934   3.054   2.570   8.341
 6457TIP3    H240935   3.132   2.558   8.212
 6458TIP3   OH240936   6.807   5.184   6.664
 6458TIP3    H140937   6.749   5.110   6.677
 6458TIP3    H240938   6.815   5.193   6.569
 6459TIP3   OH240939   1.803   0.504   1.474
 6459TIP3    H140940   1.793   0.509   1.379
 6459TIP3    H240941   1.893   0.530   1.491
 6460TIP3   OH240942   3.177   0.081   0.784
 6460TIP3    H140943   3.246   0.031   0.739
 6460TIP3    H240944   3.186   0.170   0.749
 6461TIP3   OH240945   0.750   6.332   6.883
 6461TIP3    H140946   0.682   6.378   6.834
 6461TIP3    H240947   0.828   6.387   6.873
 6462TIP3   OH240948   1.481   0.313   6.469
 6462TIP3    H140949   1.497   0.221   6.491
 6462TIP3    H240950   1.445   0.351   6.549
 6463TIP3   OH240951   4.630   3.167   0.443
 6463TIP3    H140952   4.561   3.106   0.419
 6463TIP3    H240953   4.614   3.245   0.390
 6464TIP3   OH240954   0.975   1.637   0.958
 6464TIP3    H140955   0.880   1.628   0.957
 6464TIP3    H240956   1.000   1.629   1.050
 6465TIP3   OH240957   5.968   2.697   1.601
 6465TIP3    H140958   5.914   2.640   1.657
 6465TIP3    H240959   6.053   2.653   1.598
 6466TIP3   OH240960   2.925   2.294   7.937
 6466TIP3    H140961   2.836   2.323   7.958
 6466TIP3    H240962   2.929   2.204   7.970
 6467TIP3   OH240963   1.139   6.382   0.875
 6467TIP3    H140964   1.194   6.319   0.828
 6467TIP3    H240965   1.074   6.329   0.920
 6468TIP3   OH240966   2.606   4.813   6.695
 6468TIP3    H140967   2.572   4.729   6.665
 6468TIP3    H240968   2.690   4.822   6.650
 6469TIP3   OH240969   4.879   5.782   0.856
 6469TIP3    H140970   4.876   5.692   0.824
 6469TIP3    H240971   4.836   5.834   0.788
 6470TIP3   OH240972   3.983   3.023   7.439
 6470TIP3    H140973   3.943   3.064   7.516
 6470TIP3    H240974   4.038   2.953   7.475
 6471TIP3   OH240975   1.345   4.113   7.216
 6471TIP3    H140976   1.380   4.123   7.304
 6471TIP3    H240977   1.273   4.050   7.227
 6472TIP3   OH240978   0.234   6.450   6.884
 6472TIP3    H140979   0.240   6.431   6.977
 6472TIP3    H240980   0.239   6.364   6.841
 6473TIP3   OH240981   4.316   1.358   0.898
 6473TIP3    H140982   4.256   1.366   0.972
 6473TIP3    H240983   4.401   1.384   0.933
 6474TIP3   OH240984   4.252   0.484   7.495
 6474TIP3    H140985   4.174   0.524   7.533
 6474TIP3    H240986   4.234   0.390   7.497
 6475TIP3   OH240987   4.135   6.008   0.127
 6475TIP3    H140988   4.054   5.996   0.177
 6475TIP3    H240989   4.201   5.961   0.177
 6476TIP3   OH240990   4.429   1.382   0.331
 6476TIP3    H140991   4.403   1.290   0.340
 6476TIP3    H240992   4.521   1.378   0.305
 6477TIP3   OH240993   5.301   0.653   1.117
 6477TIP3    H140994   5.391   0.666   1.148
 6477TIP3    H240995   5.247   0.674   1.193
 6478TIP3   OH240996   5.284   6.443   1.436
 6478TIP3    H140997   5.215   6.509   1.440
 6478TIP3    H240998   5.290   6.420   1.343
 6479TIP3   OH240999   1.365   6.476   7.685
 6479TIP3    H141000   1.284   6.520   7.658
 6479TIP3    H241001   1.359   6.473   7.781
 6480TIP3   OH241002   3.609   6.725   0.118
 6480TIP3    H141003   3.559   6.720   0.036
 6480TIP3    H241004   3.610   6.636   0.151
 6481TIP3   OH241005   0.372   0.319   7.309
 6481TIP3    H141006   0.365   0.277   7.395
 6481TIP3    H241007   0.466   0.328   7.293
 6482TIP3   OH241008   0.912   1.202   1.072
 6482TIP3    H141009   0.829   1.226   1.113
 6482TIP3    H241010   0.972   1.188   1.145
 6483TIP3   OH241011   3.276   5.705   1.474
 6483TIP3    H141012   3.298   5.623   1.518
 6483TIP3    H241013   3.346   5.765   1.500
 6484TIP3   OH241014   2.291   4.337   0.489
 6484TIP3    H141015   2.271   4.430   0.477
 6484TIP3    H241016   2.324   4.331   0.578
 6485TIP3   OH241017   6.176   3.428   6.073
 6485TIP3    H141018   6.091   3.388   6.057
 6485TIP3    H241019   6.240   3.362   6.046
 6486TIP3   OH241020   0.318   1.813   1.290
 6486TIP3    H141021   0.292   1.822   1.382
 6486TIP3    H241022   0.338   1.720   1.281
 6487TIP3   OH241023   5.894   0.498   7.692
 6487TIP3    H141024   5.926   0.422   7.741
 6487TIP3    H241025   5.945   0.572   7.727
 6488TIP3   OH241026   2.474   0.687   6.014
 6488TIP3    H141027   2.535   0.700   5.941
 6488TIP3    H241028   2.431   0.603   5.995
 6489TIP3   OH241029   5.803   2.044   6.658
 6489TIP3    H141030   5.806   2.121   6.715
 6489TIP3    H241031   5.794   2.081   6.570
 6490TIP3   OH241032   2.197   4.210   8.100
 6490TIP3    H141033   2.182   4.248   8.014
 6490TIP3    H241034   2.192   4.284   8.160
 6491TIP3   OH241035   0.833   5.977   7.972
 6491TIP3    H141036   0.818   6.046   8.037
 6491TIP3    H241037   0.789   6.008   7.893
 6492TIP3   OH241038   4.588   2.071   1.354
 6492TIP3    H141039   4.621   1.982   1.369
 6492TIP3    H241040   4.584   2.080   1.259
 6493TIP3   OH241041   4.133   3.498   1.882
 6493TIP3    H141042   4.159   3.514   1.973
 6493TIP3    H241043   4.050   3.544   1.873
 6494TIP3   OH241044   3.717   0.104   7.037
 6494TIP3    H141045   3.680   0.185   7.072
 6494TIP3    H241046   3.795   0.131   6.990
 6495TIP3   OH241047   6.014   6.538   8.293
 6495TIP3    H141048   5.951   6.466   8.295
 6495TIP3    H241049   5.974   6.608   8.344
 6496TIP3   OH241050   2.881   0.424   7.400
 6496TIP3    H141051   2.808   0.463   7.352
 6496TIP3    H241052   2.953   0.487   7.389
 6497TIP3   OH241053   1.875   1.807   0.523
 6497TIP3    H141054   1.793   1.763   0.547
 6497TIP3    H241055   1.909   1.841   0.605
 6498TIP3   OH241056   2.681   1.954   8.220
 6498TIP3    H141057   2.759   1.977   8.269
 6498TIP3    H241058   2.653   1.870   8.256
 6499TIP3   OH241059   1.145   1.030   1.259
 6499TIP3    H141060   1.233   1.053   1.230
 6499TIP3    H241061   1.143   1.054   1.351
 6500TIP3   OH241062   0.475   0.986   7.406
 6500TIP3    H141063   0.385   0.955   7.416
 6500TIP3    H241064   0.496   0.966   7.314
 6501TIP3   OH241065   3.237   5.314   1.300
 6501TIP3    H141066   3.261   5.403   1.274
 6501TIP3    H241067   3.203   5.275   1.219
 6502TIP3   OH241068   4.764   5.199   2.246
 6502TIP3    H141069   4.809   5.244   2.318
 6502TIP3    H241070   4.835   5.161   2.194
 6503TIP3   OH241071   4.356   2.103   1.806
 6503TIP3    H141072   4.289   2.149   1.856
 6503TIP3    H241073   4.326   2.012   1.803
 6504TIP3   OH241074   5.832   5.927   0.606
 6504TIP3    H141075   5.804   5.972   0.686
 6504TIP3    H241076   5.818   5.990   0.536
 6505TIP3   OH241077   4.049   0.748   1.004
 6505TIP3    H141078   4.002   0.809   0.948
 6505TIP3    H241079   4.015   0.765   1.092
 6506TIP3   OH241080   6.777   1.550   8.067
 6506TIP3    H141081   6.704   1.578   8.012
 6506TIP3    H241082   6.776   1.610   8.142
 6507TIP3   OH241083   0.682   6.035   8.368
 6507TIP3    H141084   0.619   6.056   8.437
 6507TIP3    H241085   0.629   5.997   8.299
 6508TIP3   OH241086   0.219   4.899   1.618
 6508TIP3    H141087   0.243   4.919   1.708
 6508TIP3    H241088   0.282   4.946   1.564
 6509TIP3   OH241089   4.473   4.303   8.342
 6509TIP3    H141090   4.559   4.344   8.351
 6509TIP3    H241091   4.412   4.368   8.374
 6510TIP3   OH241092   4.915   3.481   7.134
 6510TIP3    H141093   4.877   3.478   7.046
 6510TIP3    H241094   4.843   3.512   7.189
 6511TIP3   OH241095   2.634   2.448   2.178
 6511TIP3    H141096   2.652   2.493   2.261
 6511TIP3    H241097   2.606   2.518   2.119
 6512TIP3   OH241098   4.175   4.566   6.975
 6512TIP3    H141099   4.264   4.530   6.966
 6512TIP3    H241100   4.159   4.566   7.069
 6513TIP3   OH241101   5.225   0.833   2.222
 6513TIP3    H141102   5.135   0.859   2.245
 6513TIP3    H241103   5.220   0.739   2.209
 6514TIP3   OH241104   2.135   2.485   8.288
 6514TIP3    H141105   2.135   2.389   8.299
 6514TIP3    H241106   2.226   2.510   8.306
 6515TIP3   OH241107   6.260   5.657   6.810
 6515TIP3    H141108   6.323   5.658   6.739
 6515TIP3    H241109   6.231   5.748   6.818
 6516TIP3   OH241110   0.829   6.192   0.585
 6516TIP3    H141111   0.815   6.161   0.496
 6516TIP3    H241112   0.751   6.245   0.604
 6517TIP3   OH241113   6.747   5.032   7.821
 6517TIP3    H141114   6.779   4.973   7.753
 6517TIP3    H241115   6.823   5.051   7.875
 6518TIP3   OH241116   2.369   4.804   7.221
 6518TIP3    H141117   2.463   4.786   7.217
 6518TIP3    H241118   2.362   4.899   7.231
 6519TIP3   OH241119   5.924   1.236   7.669
 6519TIP3    H141120   5.868   1.297   7.620
 6519TIP3    H241121   5.907   1.151   7.629
 6520TIP3   OH241122   4.744   3.077   7.728
 6520TIP3    H141123   4.770   2.996   7.772
 6520TIP3    H241124   4.658   3.098   7.765
 6521TIP3   OH241125   4.229   2.828   7.068
 6521TIP3    H141126   4.165   2.804   7.134
 6521TIP3    H241127   4.205   2.775   6.991
 6522TIP3   OH241128   1.216   5.076   7.222
 6522TIP3    H141129   1.220   4.996   7.276
 6522TIP3    H241130   1.308   5.102   7.212
 6523TIP3   OH241131   6.960   6.659   0.026
 6523TIP3    H141132   7.019   6.594   0.064
 6523TIP3    H241133   6.991   6.671  -0.064
 6524TIP3   OH241134   2.154   2.187   1.968
 6524TIP3    H141135   2.131   2.214   1.879
 6524TIP3    H241136   2.086   2.124   1.992
 6525TIP3   OH241137   5.793   1.048   0.952
 6525TIP3    H141138   5.716   1.047   0.896
 6525TIP3    H241139   5.760   1.031   1.040
 6526TIP3   OH241140   3.194   5.984   0.748
 6526TIP3    H141141   3.132   5.945   0.686
 6526TIP3    H241142   3.145   5.991   0.830
 6527TIP3   OH241143   4.224   0.729   1.431
 6527TIP3    H141144   4.278   0.657   1.399
 6527TIP3    H241145   4.274   0.766   1.504
 6528TIP3   OH241146   0.698   6.650   2.056
 6528TIP3    H141147   0.639   6.725   2.057
 6528TIP3    H241148   0.707   6.628   1.963
 6529TIP3   OH241149   4.621   0.495   0.055
 6529TIP3    H141150   4.699   0.532   0.012
 6529TIP3    H241151   4.634   0.513   0.148
 6530TIP3   OH241152   0.426   6.489   2.094
 6530TIP3    H141153   0.362   6.426   2.127
 6530TIP3    H241154   0.496   6.435   2.057
 6531TIP3   OH241155   5.633   5.447   0.019
 6531TIP3    H141156   5.602   5.461  -0.071
 6531TIP3    H241157   5.727   5.432   0.009
 6532TIP3   OH241158   1.777   2.777   0.231
 6532TIP3    H141159   1.848   2.735   0.182
 6532TIP3    H241160   1.731   2.829   0.165
 6533TIP3   OH241161   1.739   0.110   7.691
 6533TIP3    H141162   1.672   0.045   7.715
 6533TIP3    H241163   1.689   0.185   7.660
 6534TIP3   OH241164   4.541   2.820   0.574
 6534TIP3    H141165   4.528   2.725   0.579
 6534TIP3    H241166   4.635   2.832   0.592
 6535TIP3   OH241167   6.362   6.379   7.725
 6535TIP3    H141168   6.396   6.404   7.811
 6535TIP3    H241169   6.412   6.301   7.702
 6536TIP3   OH241170   4.171   3.618   1.584
 6536TIP3    H141171   4.224   3.543   1.612
 6536TIP3    H241172   4.145   3.660   1.666
 6537TIP3   OH241173   0.652   6.487   0.075
 6537TIP3    H141174   0.740   6.522   0.062
 6537TIP3    H241175   0.640   6.486   0.170
 6538TIP3   OH241176   3.938   6.144   7.137
 6538TIP3    H141177   3.908   6.194   7.061
 6538TIP3    H241178   3.862   6.141   7.195
 6539TIP3   OH241179   1.189   4.446   0.927
 6539TIP3    H141180   1.250   4.373   0.914
 6539TIP3    H241181   1.164   4.472   0.838
 6540TIP3   OH241182   6.991   6.750   0.676
 6540TIP3    H141183   6.991   6.656   0.695
 6540TIP3    H241184   6.915   6.763   0.619
 6541TIP3   OH241185   5.292   5.019   0.466
 6541TIP3    H141186   5.243   4.991   0.389
 6541TIP3    H241187   5.380   4.983   0.452
 6542TIP3   OH241188   2.503   0.713   6.872
 6542TIP3    H141189   2.420   0.754   6.847
 6542TIP3    H241190   2.480   0.622   6.890
 6543TIP3   OH241191   5.407   3.709   6.051
 6543TIP3    H141192   5.461   3.648   6.102
 6543TIP3    H241193   5.330   3.724   6.105
 6544TIP3   OH241194   4.500   6.770   0.395
 6544TIP3    H141195   4.548   6.783   0.313
 6544TIP3    H241196   4.564   6.788   0.464
 6545TIP3   OH241197   0.600   4.547   8.396
 6545TIP3    H141198   0.682   4.517   8.436
 6545TIP3    H241199   0.623   4.630   8.352
 6546TIP3   OH241200   0.123   4.399   1.197
 6546TIP3    H141201   0.058   4.330   1.184
 6546TIP3    H241202   0.200   4.354   1.229
 6547TIP3   OH241203   1.157   0.450   0.623
 6547TIP3    H141204   1.239   0.460   0.671
 6547TIP3    H241205   1.165   0.366   0.578
 6548TIP3   OH241206   3.270   1.222   7.801
 6548TIP3    H141207   3.203   1.199   7.736
 6548TIP3    H241208   3.326   1.145   7.806
 6549TIP3   OH241209   4.671   5.967   8.402
 6549TIP3    H141210   4.703   5.903   8.338
 6549TIP3    H241211   4.750   6.015   8.428
 6550TIP3   OH241212   4.382   2.444   1.282
 6550TIP3    H141213   4.469   2.480   1.268
 6550TIP3    H241214   4.322   2.516   1.260
 6551TIP3   OH241215   1.538   5.345   5.901
 6551TIP3    H141216   1.544   5.435   5.870
 6551TIP3    H241217   1.459   5.344   5.957
 6552TIP3   OH241218   2.933   4.978   7.341
 6552TIP3    H141219   2.998   4.908   7.332
 6552TIP3    H241220   2.932   4.997   7.435
 6553TIP3   OH241221   4.422   1.762   7.272
 6553TIP3    H141222   4.458   1.733   7.356
 6553TIP3    H241223   4.465   1.845   7.255
 6554TIP3   OH241224   5.098   5.193   6.421
 6554TIP3    H141225   5.073   5.285   6.434
 6554TIP3    H241226   5.082   5.178   6.328
 6555TIP3   OH241227   2.711   5.674   7.729
 6555TIP3    H141228   2.642   5.701   7.790
 6555TIP3    H241229   2.679   5.590   7.694
 6556TIP3   OH241230   4.619   2.614   7.941
 6556TIP3    H141231   4.639   2.537   7.888
 6556TIP3    H241232   4.628   2.584   8.031
 6557TIP3   OH241233   1.077   1.094   1.761
 6557TIP3    H141234   1.158   1.103   1.812
 6557TIP3    H241235   1.088   1.013   1.713
 6558TIP3   OH241236   2.168   1.332   6.765
 6558TIP3    H141237   2.125   1.287   6.838
 6558TIP3    H241238   2.096   1.372   6.716
 6559TIP3   OH241239   3.331   4.336   1.031
 6559TIP3    H141240   3.394   4.265   1.026
 6559TIP3    H241241   3.333   4.377   0.944
 6560TIP3   OH241242   4.770   5.053   7.416
 6560TIP3    H141243   4.728   4.967   7.408
 6560TIP3    H241244   4.699   5.116   7.401
 6561TIP3   OH241245   3.097   6.884   0.216
 6561TIP3    H141246   3.018   6.834   0.234
 6561TIP3    H241247   3.078   6.972   0.249
 6562TIP3   OH241248   6.405   2.803   6.642
 6562TIP3    H141249   6.438   2.840   6.560
 6562TIP3    H241250   6.311   2.793   6.628
 6563TIP3   OH241251   4.703   0.467   7.707
 6563TIP3    H141252   4.608   0.457   7.708
 6563TIP3    H241253   4.733   0.413   7.780
 6564TIP3   OH241254   6.466   0.216   8.225
 6564TIP3    H141255   6.447   0.283   8.291
 6564TIP3    H241256   6.400   0.148   8.241
 6565TIP3   OH241257   4.531   2.999   2.194
 6565TIP3    H141258   4.589   2.924   2.207
 6565TIP3    H241259   4.585   3.075   2.212
 6566TIP3   OH241260   4.583   1.281   1.528
 6566TIP3    H141261   4.556   1.256   1.439
 6566TIP3    H241262   4.647   1.215   1.553
 6567TIP3   OH241263   5.570   3.872   0.816
 6567TIP3    H141264   5.664   3.887   0.826
 6567TIP3    H241265   5.564   3.807   0.746
 6568TIP3   OH241266   1.390   1.220   1.319
 6568TIP3    H141267   1.480   1.236   1.289
 6568TIP3    H241268   1.400   1.166   1.397
 6569TIP3   OH241269   4.956   6.578   7.558
 6569TIP3    H141270   4.998   6.497   7.528
 6569TIP3    H241271   5.021   6.647   7.542
 6570TIP3   OH241272   0.442   0.412   7.802
 6570TIP3    H141273   0.350   0.431   7.782
 6570TIP3    H241274   0.491   0.479   7.754
 6571TIP3   OH241275   5.645   5.826   2.015
 6571TIP3    H141276   5.630   5.800   1.924
 6571TIP3    H241277   5.598   5.759   2.066
 6572TIP3   OH241278   6.708   0.473   2.035
 6572TIP3    H141279   6.684   0.445   2.123
 6572TIP3    H241280   6.626   0.471   1.985
 6573TIP3   OH241281   3.726   1.384   0.826
 6573TIP3    H141282   3.771   1.333   0.758
 6573TIP3    H241283   3.759   1.348   0.909
 6574TIP3   OH241284   6.146   6.237   7.725
 6574TIP3    H141285   6.213   6.306   7.724
 6574TIP3    H241286   6.195   6.156   7.710
 6575TIP3   OH241287   2.898   0.898   1.770
 6575TIP3    H141288   2.972   0.842   1.793
 6575TIP3    H241289   2.830   0.838   1.741
 6576TIP3   OH241290   0.141   6.888   1.527
 6576TIP3    H141291   0.068   6.903   1.587
 6576TIP3    H241292   0.161   6.975   1.492
 6577TIP3   OH241293   1.689   5.923   0.599
 6577TIP3    H141294   1.604   5.947   0.635
 6577TIP3    H241295   1.735   6.006   0.586
 6578TIP3   OH241296   1.122   5.933   0.770
 6578TIP3    H141297   1.183   5.903   0.703
 6578TIP3    H241298   1.093   6.019   0.739
 6579TIP3   OH241299   3.989   6.961   7.422
 6579TIP3    H141300   3.912   7.010   7.449
 6579TIP3    H241301   3.972   6.936   7.331
 6580TIP3   OH241302   4.624   0.888   7.191
 6580TIP3    H141303   4.625   0.983   7.203
 6580TIP3    H241304   4.656   0.853   7.274
 6581TIP3   OH241305   0.973   6.610   6.247
 6581TIP3    H141306   0.970   6.581   6.156
 6581TIP3    H241307   0.955   6.532   6.298
 6582TIP3   OH241308   2.539   5.867   1.492
 6582TIP3    H141309   2.529   5.962   1.500
 6582TIP3    H241310   2.589   5.854   1.411
 6583TIP3   OH241311   1.753   5.016   0.096
 6583TIP3    H141312   1.829   4.993   0.150
 6583TIP3    H241313   1.787   5.013   0.006
 6584TIP3   OH241314   1.058   4.924   1.930
 6584TIP3    H141315   1.127   4.981   1.897
 6584TIP3    H241316   0.984   4.983   1.945
 6585TIP3   OH241317   2.651   6.009   6.434
 6585TIP3    H141318   2.646   5.952   6.357
 6585TIP3    H241319   2.724   6.067   6.415
 6586TIP3   OH241320   0.722   4.279   0.182
 6586TIP3    H141321   0.777   4.347   0.223
 6586TIP3    H241322   0.767   4.258   0.100
 6587TIP3   OH241323   1.532   4.701   7.757
 6587TIP3    H141324   1.523   4.764   7.828
 6587TIP3    H241325   1.593   4.742   7.696
 6588TIP3   OH241326   2.596   6.257   0.714
 6588TIP3    H141327   2.564   6.332   0.764
 6588TIP3    H241328   2.517   6.210   0.687
 6589TIP3   OH241329   0.560   4.030   0.056
 6589TIP3    H141330   0.513   4.107   0.025
 6589TIP3    H241331   0.559   4.039   0.152
 6590TIP3   OH241332   1.197   4.690   1.850
 6590TIP3    H141333   1.250   4.676   1.928
 6590TIP3    H241334   1.111   4.716   1.883
 6591TIP3   OH241335   1.070   0.410   0.081
 6591TIP3    H141336   1.070   0.466   0.159
 6591TIP3    H241337   1.056   0.470   0.008
 6592TIP3   OH241338   0.736   6.583   7.767
 6592TIP3    H141339   0.657   6.549   7.809
 6592TIP3    H241340   0.794   6.605   7.840
 6593TIP3   OH241341   5.732   2.396   7.597
 6593TIP3    H141342   5.673   2.404   7.522
 6593TIP3    H241343   5.814   2.363   7.560
 6594TIP3   OH241344   2.405   4.645   0.720
 6594TIP3    H141345   2.468   4.698   0.672
 6594TIP3    H241346   2.459   4.589   0.777
 6595TIP3   OH241347   5.004   6.152   1.536
 6595TIP3    H141348   4.998   6.166   1.630
 6595TIP3    H241349   4.954   6.223   1.497
 6596TIP3   OH241350   0.083   6.309   6.566
 6596TIP3    H141351   0.102   6.231   6.513
 6596TIP3    H241352   0.139   6.300   6.642
 6597TIP3   OH241353   4.967   3.227   7.801
 6597TIP3    H141354   5.016   3.183   7.870
 6597TIP3    H241355   4.894   3.168   7.782
 6598TIP3   OH241356   0.534   1.391   7.196
 6598TIP3    H141357   0.454   1.438   7.173
 6598TIP3    H241358   0.584   1.453   7.250
 6599TIP3   OH241359   0.494   6.986   1.441
 6599TIP3    H141360   0.446   6.912   1.403
 6599TIP3    H241361   0.445   7.063   1.414
 6600TIP3   OH241362   2.940   5.861   0.595
 6600TIP3    H141363   2.872   5.809   0.553
 6600TIP3    H241364   2.986   5.903   0.523
 6601TIP3   OH241365   1.289   1.442   1.170
 6601TIP3    H141366   1.353   1.421   1.239
 6601TIP3    H241367   1.215   1.482   1.217
 6602TIP3   OH241368   4.890   3.292   0.779
 6602TIP3    H141369   4.859   3.205   0.756
 6602TIP3    H241370   4.851   3.350   0.713
 6603TIP3   OH241371   6.540   5.249   7.527
 6603TIP3    H141372   6.506   5.174   7.575
 6603TIP3    H241373   6.493   5.247   7.443
 6604TIP3   OH241374   3.358   2.981   0.342
 6604TIP3    H141375   3.286   3.016   0.395
 6604TIP3    H241376   3.371   2.892   0.376
 6605TIP3   OH241377   6.686   0.654   6.763
 6605TIP3    H141378   6.707   0.746   6.773
 6605TIP3    H241379   6.749   0.608   6.817
 6606TIP3   OH241380   1.032   5.614   1.056
 6606TIP3    H141381   1.116   5.602   1.099
 6606TIP3    H241382   1.054   5.634   0.965
 6607TIP3   OH241383   5.179   6.661   0.694
 6607TIP3    H141384   5.101   6.648   0.748
 6607TIP3    H241385   5.193   6.576   0.652
 6608TIP3   OH241386   5.222   0.710   7.816
 6608TIP3    H141387   5.307   0.732   7.854
 6608TIP3    H241388   5.166   0.691   7.892
 6609TIP3   OH241389   6.695   4.038   0.797
 6609TIP3    H141390   6.788   4.058   0.785
 6609TIP3    H241391   6.649   4.116   0.765
 6610TIP3   OH241392   1.928   1.504   0.495
 6610TIP3    H141393   1.973   1.577   0.452
 6610TIP3    H241394   1.871   1.546   0.559
 6611TIP3   OH241395   4.020   3.538   0.260
 6611TIP3    H141396   3.991   3.504   0.345
 6611TIP3    H241397   3.967   3.491   0.196
 6612TIP3   OH241398   4.093   2.154   8.304
 6612TIP3    H141399   4.152   2.117   8.237
 6612TIP3    H241400   4.148   2.214   8.354
 6613TIP3   OH241401   5.792   6.201   1.802
 6613TIP3    H141402   5.804   6.198   1.707
 6613TIP3    H241403   5.708   6.158   1.817
 6614TIP3   OH241404   6.115   0.284   8.161
 6614TIP3    H141405   6.150   0.197   8.140
 6614TIP3    H241406   6.189   0.332   8.197
 6615TIP3   OH241407   3.756   6.658   5.988
 6615TIP3    H141408   3.813   6.598   5.938
 6615TIP3    H241409   3.684   6.677   5.928
 6616TIP3   OH241410   5.304   4.578   8.132
 6616TIP3    H141411   5.287   4.547   8.221
 6616TIP3    H241412   5.394   4.611   8.136
 6617TIP3   OH241413   1.569   0.580   8.276
 6617TIP3    H141414   1.602   0.600   8.363
 6617TIP3    H241415   1.629   0.625   8.216
 6618TIP3   OH241416   3.628   4.246   1.036
 6618TIP3    H141417   3.584   4.331   1.033
 6618TIP3    H241418   3.720   4.266   1.050
 6619TIP3   OH241419   5.996   6.940   7.082
 6619TIP3    H141420   5.998   6.968   6.990
 6619TIP3    H241421   6.020   7.018   7.131
 6620TIP3   OH241422   0.607   2.460   1.950
 6620TIP3    H141423   0.657   2.386   1.985
 6620TIP3    H241424   0.629   2.533   2.008
 6621TIP3   OH241425   2.700   1.533   0.173
 6621TIP3    H141426   2.771   1.477   0.140
 6621TIP3    H241427   2.729   1.561   0.259
 6622TIP3   OH241428   6.191   1.612   7.107
 6622TIP3    H141429   6.197   1.594   7.201
 6622TIP3    H241430   6.143   1.537   7.071
 6623TIP3   OH241431   0.645   0.620   7.306
 6623TIP3    H141432   0.559   0.620   7.264
 6623TIP3    H241433   0.691   0.694   7.266
 6624TIP3   OH241434   6.214   5.297   6.773
 6624TIP3    H141435   6.181   5.386   6.784
 6624TIP3    H241436   6.147   5.241   6.811
 6625TIP3   OH241437   6.290   5.464   0.588
 6625TIP3    H141438   6.366   5.420   0.626
 6625TIP3    H241439   6.250   5.511   0.661
 6626TIP3   OH241440   5.589   6.207   7.245
 6626TIP3    H141441   5.521   6.153   7.286
 6626TIP3    H241442   5.602   6.279   7.306
 6627TIP3   OH241443   6.867   3.452   7.493
 6627TIP3    H141444   6.808   3.482   7.561
 6627TIP3    H241445   6.832   3.489   7.412
 6628TIP3   OH241446   2.576   5.869   6.192
 6628TIP3    H141447   2.529   5.947   6.161
 6628TIP3    H241448   2.521   5.796   6.166
 6629TIP3   OH241449   2.503   4.878   1.506
 6629TIP3    H141450   2.571   4.818   1.475
 6629TIP3    H241451   2.493   4.856   1.598
 6630TIP3   OH241452   5.189   6.291   0.712
 6630TIP3    H141453   5.269   6.240   0.696
 6630TIP3    H241454   5.171   6.334   0.629
 6631TIP3   OH241455   2.159   0.159   0.319
 6631TIP3    H141456   2.219   0.124   0.252
 6631TIP3    H241457   2.215   0.211   0.376
 6632TIP3   OH241458   6.961   5.176   7.964
 6632TIP3    H141459   7.023   5.232   8.010
 6632TIP3    H241460   6.931   5.229   7.890
 6633TIP3   OH241461   4.410   1.092   1.109
 6633TIP3    H141462   4.476   1.036   1.068
 6633TIP3    H241463   4.345   1.105   1.040
 6634TIP3   OH241464   6.715   6.243   7.901
 6634TIP3    H141465   6.633   6.289   7.916
 6634TIP3    H241466   6.709   6.164   7.955
 6635TIP3   OH241467   1.992   5.418   7.049
 6635TIP3    H141468   1.928   5.489   7.050
 6635TIP3    H241469   1.974   5.371   6.968
 6636TIP3   OH241470   5.002   2.047   2.043
 6636TIP3    H141471   4.961   1.981   1.988
 6636TIP3    H241472   5.027   2.000   2.122
 6637TIP3   OH241473   5.446   2.568   7.258
 6637TIP3    H141474   5.501   2.552   7.182
 6637TIP3    H241475   5.461   2.493   7.316
 6638TIP3   OH241476   0.208   4.052   6.835
 6638TIP3    H141477   0.220   4.147   6.825
 6638TIP3    H241478   0.131   4.032   6.782
 6639TIP3   OH241479   3.745   2.369   7.443
 6639TIP3    H141480   3.814   2.309   7.414
 6639TIP3    H241481   3.723   2.420   7.365
 6640TIP3   OH241482   6.690   6.495   6.696
 6640TIP3    H141483   6.758   6.459   6.639
 6640TIP3    H241484   6.609   6.451   6.668
 6641TIP3   OH241485   4.180   6.696   6.253
 6641TIP3    H141486   4.269   6.731   6.250
 6641TIP3    H241487   4.130   6.761   6.303
 6642TIP3   OH241488   1.063   4.439   7.627
 6642TIP3    H141489   1.022   4.449   7.712
 6642TIP3    H241490   1.074   4.528   7.594
 6643TIP3   OH241491   6.078   4.991   1.798
 6643TIP3    H141492   6.164   5.031   1.785
 6643TIP3    H241493   6.089   4.936   1.876
 6644TIP3   OH241494   3.545   2.367   1.461
 6644TIP3    H141495   3.509   2.309   1.394
 6644TIP3    H241496   3.633   2.331   1.478
 6645TIP3   OH241497   3.477   4.972   7.085
 6645TIP3    H141498   3.529   4.894   7.107
 6645TIP3    H241499   3.503   4.993   6.996
 6646TIP3   OH241500   1.042   0.085   8.037
 6646TIP3    H141501   1.052   0.059   8.129
 6646TIP3    H241502   0.961   0.136   8.035
 6647TIP3   OH241503   5.765   2.000   1.209
 6647TIP3    H141504   5.716   2.080   1.192
 6647TIP3    H241505   5.837   2.027   1.267
 6648TIP3   OH241506   4.665   1.835   1.463
 6648TIP3    H141507   4.757   1.842   1.441
 6648TIP3    H241508   4.638   1.751   1.426
 6649TIP3   OH241509   2.799   6.896   8.209
 6649TIP3    H141510   2.751   6.815   8.192
 6649TIP3    H241511   2.762   6.959   8.148
 6650TIP3   OH241512   6.962   0.098   1.541
 6650TIP3    H141513   6.968   0.192   1.521
 6650TIP3    H241514   6.961   0.093   1.636
 6651TIP3   OH241515   4.084   5.612   1.817
 6651TIP3    H141516   4.102   5.526   1.779
 6651TIP3    H241517   4.090   5.598   1.912
 6652TIP3   OH241518   6.271   6.596   7.515
 6652TIP3    H141519   6.308   6.575   7.600
 6652TIP3    H241520   6.326   6.549   7.452
 6653TIP3   OH241521   2.125   3.281   0.346
 6653TIP3    H141522   2.208   3.292   0.300
 6653TIP3    H241523   2.150   3.248   0.433
 6654TIP3   OH241524   6.726   3.330   1.508
 6654TIP3    H141525   6.691   3.254   1.462
 6654TIP3    H241526   6.778   3.377   1.443
 6655TIP3   OH241527   2.694   3.851   8.199
 6655TIP3    H141528   2.713   3.917   8.132
 6655TIP3    H241529   2.614   3.883   8.242
 6656TIP3   OH241530   6.828   2.843   8.314
 6656TIP3    H141531   6.747   2.811   8.354
 6656TIP3    H241532   6.823   2.939   8.322
 6657TIP3   OH241533   6.246   4.220   6.072
 6657TIP3    H141534   6.339   4.199   6.079
 6657TIP3    H241535   6.211   4.154   6.011
 6658TIP3   OH241536   6.246   2.046   7.183
 6658TIP3    H141537   6.160   2.082   7.201
 6658TIP3    H241538   6.237   1.953   7.202
 6659TIP3   OH241539   1.140   6.464   1.913
 6659TIP3    H141540   1.147   6.382   1.962
 6659TIP3    H241541   1.146   6.532   1.979
 6660TIP3   OH241542   2.593   2.052   1.603
 6660TIP3    H141543   2.574   1.966   1.564
 6660TIP3    H241544   2.623   2.105   1.529
 6661TIP3   OH241545   6.335   4.163   1.068
 6661TIP3    H141546   6.262   4.161   1.129
 6661TIP3    H241547   6.408   4.126   1.117
 6662TIP3   OH241548   6.256   6.496   0.114
 6662TIP3    H141549   6.188   6.469   0.176
 6662TIP3    H241550   6.225   6.464   0.029
 6663TIP3   OH241551   6.834   6.354   1.242
 6663TIP3    H141552   6.759   6.336   1.298
 6663TIP3    H241553   6.909   6.319   1.291
 6664TIP3   OH241554   4.652   3.486   0.012
 6664TIP3    H141555   4.580   3.442  -0.033
 6664TIP3    H241556   4.611   3.563   0.052
 6665TIP3   OH241557   2.294   3.830   1.865
 6665TIP3    H141558   2.208   3.853   1.900
 6665TIP3    H241559   2.349   3.820   1.942
 6666TIP3   OH241560   6.349   2.681   7.412
 6666TIP3    H141561   6.270   2.636   7.383
 6666TIP3    H241562   6.420   2.623   7.386
 6667TIP3   OH241563   2.202   1.091   1.245
 6667TIP3    H141564   2.252   1.169   1.270
 6667TIP3    H241565   2.205   1.035   1.322
 6668TIP3   OH241566   1.270   4.974   0.364
 6668TIP3    H141567   1.359   4.982   0.397
 6668TIP3    H241568   1.255   4.880   0.357
 6669TIP3   OH241569   5.596   0.723   0.178
 6669TIP3    H141570   5.690   0.714   0.193
 6669TIP3    H241571   5.584   0.700   0.086
 6670TIP3   OH241572   3.934   6.782   0.016
 6670TIP3    H141573   3.954   6.791  -0.077
 6670TIP3    H241574   3.922   6.688   0.029
 6671TIP3   OH241575   5.576   0.142   7.298
 6671TIP3    H141576   5.667   0.111   7.292
 6671TIP3    H241577   5.533   0.103   7.223
 6672TIP3   OH241578   2.328   1.497   6.018
 6672TIP3    H141579   2.282   1.419   5.987
 6672TIP3    H241580   2.406   1.462   6.062
 6673TIP3   OH241581   2.361   2.767   7.164
 6673TIP3    H141582   2.286   2.759   7.223
 6673TIP3    H241583   2.435   2.732   7.215
 6674TIP3   OH241584   0.227   3.142   0.815
 6674TIP3    H141585   0.299   3.136   0.753
 6674TIP3    H241586   0.190   3.229   0.800
 6675TIP3   OH241587   6.226   2.637   7.699
 6675TIP3    H141588   6.159   2.569   7.705
 6675TIP3    H241589   6.256   2.633   7.608
 6676TIP3   OH241590   3.705   4.219   7.702
 6676TIP3    H141591   3.651   4.140   7.715
 6676TIP3    H241592   3.760   4.222   7.781
 6677TIP3   OH241593   6.290   0.433   8.305
 6677TIP3    H141594   6.259   0.494   8.372
 6677TIP3    H241595   6.296   0.486   8.226
 6678TIP3   OH241596   2.671   0.997   0.397
 6678TIP3    H141597   2.723   1.074   0.420
 6678TIP3    H241598   2.692   0.981   0.305
 6679TIP3   OH241599   3.950   2.546   6.187
 6679TIP3    H141600   3.872   2.572   6.137
 6679TIP3    H241601   3.937   2.453   6.205
 6680TIP3   OH241602   5.990   2.987   7.423
 6680TIP3    H141603   6.061   2.972   7.360
 6680TIP3    H241604   5.923   2.922   7.399
 6681TIP3   OH241605   1.065   6.054   5.988
 6681TIP3    H141606   1.068   6.121   6.057
 6681TIP3    H241607   1.004   6.089   5.924
 6682TIP3   OH241608   2.619   0.977   6.905
 6682TIP3    H141609   2.586   0.887   6.900
 6682TIP3    H241610   2.630   1.003   6.814
 6683TIP3   OH241611   0.931   5.103   8.318
 6683TIP3    H141612   0.907   5.092   8.410
 6683TIP3    H241613   0.935   5.198   8.306
 6684TIP3   OH241614   0.995   2.487   7.248
 6684TIP3    H141615   1.068   2.426   7.258
 6684TIP3    H241616   0.992   2.535   7.331
 6685TIP3   OH241617   6.697   0.763   1.309
 6685TIP3    H141618   6.628   0.762   1.376
 6685TIP3    H241619   6.703   0.854   1.282
 6686TIP3   OH241620   6.666   0.482   8.364
 6686TIP3    H141621   6.650   0.504   8.273
 6686TIP3    H241622   6.719   0.402   8.360
 6687TIP3   OH241623   6.676   3.260   7.605
 6687TIP3    H141624   6.682   3.301   7.691
 6687TIP3    H241625   6.671   3.166   7.623
 6688TIP3   OH241626   2.594   0.152   1.793
 6688TIP3    H141627   2.628   0.132   1.706
 6688TIP3    H241628   2.632   0.085   1.849
 6689TIP3   OH241629   3.614   5.927   7.146
 6689TIP3    H141630   3.659   5.860   7.095
 6689TIP3    H241631   3.622   6.007   7.093
 6690TIP3   OH241632   3.017   0.586   8.301
 6690TIP3    H141633   3.029   0.565   8.208
 6690TIP3    H241634   3.076   0.660   8.317
 6691TIP3   OH241635   3.928   4.842   6.696
 6691TIP3    H141636   4.007   4.815   6.742
 6691TIP3    H241637   3.955   4.851   6.605
 6692TIP3   OH241638   4.229   5.654   6.687
 6692TIP3    H141639   4.239   5.714   6.613
 6692TIP3    H241640   4.176   5.582   6.651
 6693TIP3   OH241641   4.895   1.289   7.993
 6693TIP3    H141642   4.955   1.333   7.934
 6693TIP3    H241643   4.836   1.358   8.024
 6694TIP3   OH241644   5.323   3.656   8.400
 6694TIP3    H141645   5.328   3.713   8.322
 6694TIP3    H241646   5.302   3.716   8.471
 6695TIP3   OH241647   6.787   0.808   6.488
 6695TIP3    H141648   6.702   0.766   6.496
 6695TIP3    H241649   6.845   0.739   6.456
 6696TIP3   OH241650   5.189   2.908   1.572
 6696TIP3    H141651   5.163   2.829   1.618
 6696TIP3    H241652   5.185   2.977   1.638
 6697TIP3   OH241653   6.667   3.768   7.864
 6697TIP3    H141654   6.744   3.825   7.869
 6697TIP3    H241655   6.666   3.736   7.774
 6698TIP3   OH241656   1.143   4.459   1.660
 6698TIP3    H141657   1.155   4.528   1.724
 6698TIP3    H241658   1.117   4.382   1.712
 6699TIP3   OH241659   5.007   4.172   7.756
 6699TIP3    H141660   4.927   4.147   7.801
 6699TIP3    H241661   4.996   4.141   7.666
 6700TIP3   OH241662   5.859   5.592   7.348
 6700TIP3    H141663   5.799   5.665   7.336
 6700TIP3    H241664   5.942   5.621   7.311
 6701TIP3   OH241665   4.577   2.555   7.427
 6701TIP3    H141666   4.595   2.488   7.493
 6701TIP3    H241667   4.573   2.506   7.345
 6702TIP3   OH241668   2.234   3.356   1.491
 6702TIP3    H141669   2.327   3.336   1.493
 6702TIP3    H241670   2.229   3.450   1.477
 6703TIP3   OH241671   0.062   4.342   0.341
 6703TIP3    H141672   0.148   4.376   0.316
 6703TIP3    H241673   0.025   4.409   0.398
 6704TIP3   OH241674   3.809   0.394   0.011
 6704TIP3    H141675   3.883   0.354   0.057
 6704TIP3    H241676   3.731   0.354   0.051
 6705TIP3   OH241677   5.460   6.533   7.603
 6705TIP3    H141678   5.508   6.572   7.531
 6705TIP3    H241679   5.399   6.472   7.561
 6706TIP3   OH241680   1.936   5.615   0.948
 6706TIP3    H141681   1.889   5.627   1.031
 6706TIP3    H241682   1.867   5.601   0.884
 6707TIP3   OH241683   1.778   3.098   0.857
 6707TIP3    H141684   1.756   3.175   0.805
 6707TIP3    H241685   1.870   3.109   0.880
 6708TIP3   OH241686   1.459   4.560   1.416
 6708TIP3    H141687   1.406   4.553   1.337
 6708TIP3    H241688   1.478   4.470   1.441
 6709TIP3   OH241689   4.360   6.935   6.564
 6709TIP3    H141690   4.385   7.026   6.548
 6709TIP3    H241691   4.381   6.889   6.483
 6710TIP3   OH241692   1.222   0.200   7.861
 6710TIP3    H141693   1.213   0.295   7.857
 6710TIP3    H241694   1.159   0.173   7.928
 6711TIP3   OH241695   6.363   3.213   6.974
 6711TIP3    H141696   6.302   3.282   6.946
 6711TIP3    H241697   6.395   3.242   7.059
 6712TIP3   OH241698   0.490   2.057   0.208
 6712TIP3    H141699   0.536   2.140   0.199
 6712TIP3    H241700   0.553   1.999   0.252
 6713TIP3   OH241701   6.261   2.919   0.479
 6713TIP3    H141702   6.333   2.929   0.417
 6713TIP3    H241703   6.184   2.954   0.433
 6714TIP3   OH241704   5.096   0.108   6.922
 6714TIP3    H141705   5.112   0.193   6.963
 6714TIP3    H241706   5.121   0.120   6.831
 6715TIP3   OH241707   6.622   1.596   0.748
 6715TIP3    H141708   6.587   1.621   0.662
 6715TIP3    H241709   6.561   1.633   0.811
 6716TIP3   OH241710   5.577   1.548   8.245
 6716TIP3    H141711   5.483   1.544   8.228
 6716TIP3    H241712   5.604   1.634   8.212
 6717TIP3   OH241713   5.925   0.937   1.367
 6717TIP3    H141714   5.833   0.957   1.355
 6717TIP3    H241715   5.948   0.976   1.452
 6718TIP3   OH241716   6.377   6.373   1.102
 6718TIP3    H141717   6.449   6.368   1.039
 6718TIP3    H241718   6.409   6.434   1.169
 6719TIP3   OH241719   5.864   1.592   6.367
 6719TIP3    H141720   5.947   1.543   6.368
 6719TIP3    H241721   5.890   1.683   6.386
 6720TIP3   OH241722   2.762   4.863   1.363
 6720TIP3    H141723   2.720   4.934   1.314
 6720TIP3    H241724   2.846   4.900   1.391
 6721TIP3   OH241725   2.847   2.254   0.871
 6721TIP3    H141726   2.879   2.336   0.909
 6721TIP3    H241727   2.752   2.257   0.883
 6722TIP3   OH241728   2.030   1.005   0.014
 6722TIP3    H141729   2.066   1.084   0.054
 6722TIP3    H241730   2.018   0.945   0.087
 6723TIP3   OH241731   6.122   6.917   7.402
 6723TIP3    H141732   6.212   6.917   7.433
 6723TIP3    H241733   6.078   6.981   7.458
 6724TIP3   OH241734   1.920   0.904   1.242
 6724TIP3    H141735   1.870   0.975   1.200
 6724TIP3    H241736   1.915   0.923   1.336
 6725TIP3   OH241737   4.446   4.555   1.154
 6725TIP3    H141738   4.477   4.587   1.239
 6725TIP3    H241739   4.352   4.574   1.153
 6726TIP3   OH241740   5.000   6.686   1.186
 6726TIP3    H141741   5.004   6.631   1.264
 6726TIP3    H241742   4.922   6.740   1.199
 6727TIP3   OH241743   1.186   5.612   1.502
 6727TIP3    H141744   1.131   5.545   1.541
 6727TIP3    H241745   1.135   5.693   1.510
 6728TIP3   OH241746   1.572   2.352   1.839
 6728TIP3    H141747   1.589   2.410   1.765
 6728TIP3    H241748   1.516   2.403   1.898
 6729TIP3   OH241749   0.886   0.339   7.115
 6729TIP3    H141750   0.953   0.297   7.169
 6729TIP3    H241751   0.932   0.366   7.036
 6730TIP3   OH241752   0.573   5.739   7.098
 6730TIP3    H141753   0.566   5.647   7.075
 6730TIP3    H241754   0.482   5.770   7.100
 6731TIP3   OH241755   5.429   4.854   0.230
 6731TIP3    H141756   5.396   4.911   0.161
 6731TIP3    H241757   5.524   4.864   0.226
 6732TIP3   OH241758   0.923   0.681   7.977
 6732TIP3    H141759   0.938   0.591   8.006
 6732TIP3    H241760   0.991   0.732   8.020
 6733TIP3   OH241761   2.238   6.605   7.109
 6733TIP3    H141762   2.265   6.532   7.164
 6733TIP3    H241763   2.244   6.682   7.166
 6734TIP3   OH241764   2.593   2.183   2.066
 6734TIP3    H141765   2.629   2.246   2.127
 6734TIP3    H241766   2.517   2.145   2.111
 6735TIP3   OH241767   4.903   6.196   7.021
 6735TIP3    H141768   4.861   6.121   7.063
 6735TIP3    H241769   4.961   6.157   6.956
 6736TIP3   OH241770   1.204   2.564   0.299
 6736TIP3    H141771   1.127   2.567   0.356
 6736TIP3    H241772   1.251   2.645   0.318
 6737TIP3   OH241773   0.403   5.808   7.791
 6737TIP3    H141774   0.455   5.857   7.727
 6737TIP3    H241775   0.467   5.755   7.838
 6738TIP3   OH241776   2.823   5.406   6.854
 6738TIP3    H141777   2.836   5.364   6.939
 6738TIP3    H241778   2.848   5.498   6.869
 6739TIP3   OH241779   6.650   4.622   7.407
 6739TIP3    H141780   6.626   4.530   7.397
 6739TIP3    H241781   6.672   4.631   7.500
 6740TIP3   OH241782   0.419   0.083   6.885
 6740TIP3    H141783   0.399   0.028   6.808
 6740TIP3    H241784   0.491   0.139   6.856
 6741TIP3   OH241785   0.969   0.751   1.905
 6741TIP3    H141786   0.940   0.842   1.897
 6741TIP3    H241787   1.025   0.750   1.982
 6742TIP3   OH241788   3.444   3.604   7.260
 6742TIP3    H141789   3.357   3.563   7.251
 6742TIP3    H241790   3.474   3.577   7.346
 6743TIP3   OH241791   5.012   3.886   7.190
 6743TIP3    H141792   4.923   3.873   7.157
 6743TIP3    H241793   5.062   3.815   7.150
 6744TIP3   OH241794   4.039   6.433   8.096
 6744TIP3    H141795   4.106   6.416   8.161
 6744TIP3    H241796   4.011   6.347   8.065
 6745TIP3   OH241797   3.172   3.508   0.362
 6745TIP3    H141798   3.213   3.452   0.295
 6745TIP3    H241799   3.182   3.597   0.328
 6746TIP3   OH241800   3.667   6.659   1.049
 6746TIP3    H141801   3.729   6.731   1.061
 6746TIP3    H241802   3.659   6.650   0.954
 6747TIP3   OH241803   0.343   4.008   1.736
 6747TIP3    H141804   0.285   4.044   1.804
 6747TIP3    H241805   0.355   3.917   1.762
 6748TIP3   OH241806   5.352   6.711   8.284
 6748TIP3    H141807   5.339   6.803   8.303
 6748TIP3    H241808   5.379   6.672   8.367
 6749TIP3   OH241809   4.760   1.889   7.389
 6749TIP3    H141810   4.674   1.922   7.364
 6749TIP3    H241811   4.821   1.939   7.336
 6750TIP3   OH241812   2.346   0.436   1.708
 6750TIP3    H141813   2.366   0.505   1.645
 6750TIP3    H241814   2.358   0.355   1.659
 6751TIP3   OH241815   4.013   2.182   6.850
 6751TIP3    H141816   3.972   2.218   6.771
 6751TIP3    H241817   4.079   2.247   6.874
 6752TIP3   OH241818   5.984   3.930   0.556
 6752TIP3    H141819   6.035   4.001   0.594
 6752TIP3    H241820   6.047   3.860   0.542
 6753TIP3   OH241821   4.795   3.864   0.058
 6753TIP3    H141822   4.708   3.824   0.055
 6753TIP3    H241823   4.778   3.958   0.063
 6754TIP3   OH241824   3.555   1.463   6.032
 6754TIP3    H141825   3.573   1.507   6.116
 6754TIP3    H241826   3.588   1.524   5.966
 6755TIP3   OH241827   4.663   6.235   1.885
 6755TIP3    H141828   4.595   6.269   1.942
 6755TIP3    H241829   4.621   6.226   1.799
 6756TIP3   OH241830   5.484   5.363   0.241
 6756TIP3    H141831   5.486   5.428   0.311
 6756TIP3    H241832   5.504   5.412   0.161
 6757TIP3   OH241833   4.968   0.288   0.622
 6757TIP3    H141834   5.055   0.314   0.591
 6757TIP3    H241835   4.936   0.365   0.670
 6758TIP3   OH241836   4.913   2.955   1.025
 6758TIP3    H141837   4.870   3.032   1.062
 6758TIP3    H241838   4.958   2.988   0.947
 6759TIP3   OH241839   6.701   3.219   7.073
 6759TIP3    H141840   6.724   3.199   7.163
 6759TIP3    H241841   6.624   3.276   7.080
 6760TIP3   OH241842   6.297   4.127   1.558
 6760TIP3    H141843   6.333   4.090   1.477
 6760TIP3    H241844   6.365   4.112   1.623
 6761TIP3   OH241845   2.684   3.627   1.006
 6761TIP3    H141846   2.612   3.688   1.020
 6761TIP3    H241847   2.643   3.549   0.969
 6762TIP3   OH241848   3.192   0.402   7.793
 6762TIP3    H141849   3.253   0.345   7.747
 6762TIP3    H241850   3.247   0.468   7.834
 6763TIP3   OH241851   2.951   3.759   8.012
 6763TIP3    H141852   2.938   3.854   8.017
 6763TIP3    H241853   3.032   3.743   8.059
 6764TIP3   OH241854   6.406   5.032   7.652
 6764TIP3    H141855   6.324   4.994   7.618
 6764TIP3    H241856   6.400   5.018   7.746
 6765TIP3   OH241857   0.936   4.481   7.885
 6765TIP3    H141858   0.884   4.486   7.965
 6765TIP3    H241859   1.024   4.509   7.913
 6766TIP3   OH241860   1.673   5.309   2.328
 6766TIP3    H141861   1.733   5.377   2.358
 6766TIP3    H241862   1.590   5.329   2.373
 6767TIP3   OH241863   1.893   2.892   8.346
 6767TIP3    H141864   1.966   2.951   8.365
 6767TIP3    H241865   1.815   2.944   8.368
 6768TIP3   OH241866   2.329   5.467   1.027
 6768TIP3    H141867   2.382   5.543   1.002
 6768TIP3    H241868   2.317   5.418   0.946
 6769TIP3   OH241869   2.282   4.439   1.143
 6769TIP3    H141870   2.224   4.458   1.069
 6769TIP3    H241871   2.223   4.433   1.219
 6770TIP3   OH241872   0.689   4.667   0.615
 6770TIP3    H141873   0.666   4.575   0.615
 6770TIP3    H241874   0.664   4.699   0.528
 6771TIP3   OH241875   1.609   6.680   0.334
 6771TIP3    H141876   1.623   6.708   0.425
 6771TIP3    H241877   1.655   6.746   0.282
 6772TIP3   OH241878   3.393   4.373   1.394
 6772TIP3    H141879   3.420   4.425   1.319
 6772TIP3    H241880   3.465   4.382   1.456
 6773TIP3   OH241881   1.874   3.178   1.759
 6773TIP3    H141882   1.914   3.142   1.680
 6773TIP3    H241883   1.781   3.160   1.749
 6774TIP3   OH241884   3.411   3.084   7.880
 6774TIP3    H141885   3.374   3.069   7.967
 6774TIP3    H241886   3.336   3.081   7.821
 6775TIP3   OH241887   4.209   1.670   1.260
 6775TIP3    H141888   4.265   1.703   1.189
 6775TIP3    H241889   4.136   1.732   1.263
 6776TIP3   OH241890   2.117   1.509   1.819
 6776TIP3    H141891   2.171   1.438   1.854
 6776TIP3    H241892   2.056   1.530   1.889
 6777TIP3   OH241893   2.932   2.648   0.215
 6777TIP3    H141894   3.026   2.663   0.215
 6777TIP3    H241895   2.894   2.734   0.231
 6778TIP3   OH241896   5.169   3.375   7.019
 6778TIP3    H141897   5.105   3.429   7.064
 6778TIP3    H241898   5.247   3.377   7.074
 6779TIP3   OH241899   0.359   2.813   1.690
 6779TIP3    H141900   0.267   2.803   1.714
 6779TIP3    H241901   0.408   2.780   1.766
 6780TIP3   OH241902   6.259   1.322   7.303
 6780TIP3    H141903   6.326   1.289   7.242
 6780TIP3    H241904   6.189   1.257   7.297
 6781TIP3   OH241905   2.415   2.546   7.521
 6781TIP3    H141906   2.475   2.473   7.505
 6781TIP3    H241907   2.329   2.506   7.527
 6782TIP3   OH241908   1.113   1.023   7.452
 6782TIP3    H141909   1.181   1.068   7.402
 6782TIP3    H241910   1.123   0.931   7.429
 6783TIP3   OH241911   0.221   1.057   6.642
 6783TIP3    H141912   0.308   1.054   6.603
 6783TIP3    H241913   0.231   1.012   6.726
 6784TIP3   OH241914   1.887   2.988   6.520
 6784TIP3    H141915   1.946   2.937   6.464
 6784TIP3    H241916   1.938   3.066   6.543
 6785TIP3   OH241917   3.861   3.876   6.748
 6785TIP3    H141918   3.932   3.890   6.811
 6785TIP3    H241919   3.906   3.864   6.664
 6786TIP3   OH241920   2.376   1.473   2.124
 6786TIP3    H141921   2.333   1.389   2.137
 6786TIP3    H241922   2.369   1.517   2.208
 6787TIP3   OH241923   2.590   3.735   0.711
 6787TIP3    H141924   2.651   3.776   0.650
 6787TIP3    H241925   2.646   3.685   0.771
 6788TIP3   OH241926   5.090   1.832   7.348
 6788TIP3    H141927   5.052   1.747   7.323
 6788TIP3    H241928   5.046   1.895   7.290
 6789TIP3   OH241929   6.550   0.779   7.840
 6789TIP3    H141930   6.582   0.772   7.930
 6789TIP3    H241931   6.514   0.867   7.834
 6790TIP3   OH241932   2.279   4.611   0.418
 6790TIP3    H141933   2.338   4.681   0.445
 6790TIP3    H241934   2.290   4.605   0.323
 6791TIP3   OH241935   4.757   6.125   8.165
 6791TIP3    H141936   4.728   6.045   8.121
 6791TIP3    H241937   4.852   6.114   8.174
 6792TIP3   OH241938   6.380   4.752   1.598
 6792TIP3    H141939   6.430   4.824   1.636
 6792TIP3    H241940   6.419   4.673   1.635
 6793TIP3   OH241941   3.542   4.876   6.531
 6793TIP3    H141942   3.596   4.955   6.530
 6793TIP3    H241943   3.593   4.813   6.479
 6794TIP3   OH241944   0.116   1.504   7.331
 6794TIP3    H141945   0.164   1.470   7.407
 6794TIP3    H241946   0.116   1.431   7.269
 6795TIP3   OH241947   4.402   4.914   0.364
 6795TIP3    H141948   4.410   5.000   0.323
 6795TIP3    H241949   4.475   4.864   0.328
 6796TIP3   OH241950   6.743   2.208   0.224
 6796TIP3    H141951   6.728   2.303   0.222
 6796TIP3    H241952   6.752   2.188   0.317
 6797TIP3   OH241953   0.287   6.319   7.120
 6797TIP3    H141954   0.371   6.338   7.160
 6797TIP3    H241955   0.232   6.288   7.192
 6798TIP3   OH241956   2.458   3.468   2.181
 6798TIP3    H141957   2.510   3.474   2.261
 6798TIP3    H241958   2.498   3.397   2.131
 6799TIP3   OH241959   6.518   2.038   1.767
 6799TIP3    H141960   6.588   2.101   1.780
 6799TIP3    H241961   6.506   1.998   1.854
 6800TIP3   OH241962   1.788   1.761   7.089
 6800TIP3    H141963   1.811   1.726   7.175
 6800TIP3    H241964   1.694   1.744   7.080
 6801TIP3   OH241965   1.236   0.922   0.497
 6801TIP3    H141966   1.281   0.868   0.562
 6801TIP3    H241967   1.158   0.954   0.543
 6802TIP3   OH241968   3.655   2.791   0.486
 6802TIP3    H141969   3.726   2.756   0.539
 6802TIP3    H241970   3.622   2.716   0.438
 6803TIP3   OH241971   2.693   1.738   7.642
 6803TIP3    H141972   2.705   1.819   7.691
 6803TIP3    H241973   2.610   1.750   7.595
 6804TIP3   OH241974   1.741   0.344   8.315
 6804TIP3    H141975   1.703   0.427   8.286
 6804TIP3    H241976   1.667   0.283   8.317
 6805TIP3   OH241977   1.539   4.319   1.476
 6805TIP3    H141978   1.626   4.298   1.444
 6805TIP3    H241979   1.479   4.280   1.412
 6806TIP3   OH241980   2.054   5.725   7.748
 6806TIP3    H141981   2.024   5.753   7.662
 6806TIP3    H241982   2.064   5.807   7.797
 6807TIP3   OH241983   0.591   4.376   8.141
 6807TIP3    H141984   0.684   4.391   8.154
 6807TIP3    H241985   0.569   4.424   8.062
 6808TIP3   OH241986   6.705   3.328   0.123
 6808TIP3    H141987   6.760   3.391   0.076
 6808TIP3    H241988   6.739   3.329   0.213
 6809TIP3   OH241989   4.132   1.428   6.893
 6809TIP3    H141990   4.096   1.372   6.825
 6809TIP3    H241991   4.169   1.366   6.957
 6810TIP3   OH241992   0.595   1.650   0.351
 6810TIP3    H141993   0.650   1.576   0.379
 6810TIP3    H241994   0.523   1.609   0.303
 6811TIP3   OH241995   1.025   5.160   0.508
 6811TIP3    H141996   1.090   5.193   0.446
 6811TIP3    H241997   1.075   5.136   0.585
 6812TIP3   OH241998   5.381   3.478   0.397
 6812TIP3    H141999   5.333   3.476   0.480
 6812TIP3    H242000   5.321   3.441   0.333
 6813TIP3   OH242001   6.034   3.064   0.064
 6813TIP3    H142002   6.080   3.145   0.041
 6813TIP3    H242003   6.090   3.023   0.130
 6814TIP3   OH242004   4.833   4.957   0.822
 6814TIP3    H142005   4.830   5.016   0.898
 6814TIP3    H242006   4.831   4.869   0.861
 6815TIP3   OH242007   1.626   0.550   0.993
 6815TIP3    H142008   1.700   0.515   0.944
 6815TIP3    H242009   1.665   0.593   1.069
 6816TIP3   OH242010   4.320   0.399   0.225
 6816TIP3    H142011   4.381   0.333   0.258
 6816TIP3    H242012   4.234   0.368   0.253
 6817TIP3   OH242013   6.013   5.456   1.066
 6817TIP3    H142014   6.094   5.435   1.112
 6817TIP3    H242015   5.988   5.375   1.022
 6818TIP3   OH242016   1.322   4.360   2.097
 6818TIP3    H142017   1.357   4.449   2.094
 6818TIP3    H242018   1.235   4.366   2.057
 6819TIP3   OH242019   1.902   1.072   8.193
 6819TIP3    H142020   1.813   1.038   8.192
 6819TIP3    H242021   1.942   1.034   8.271
 6820TIP3   OH242022   6.328   4.421   0.190
 6820TIP3    H142023   6.348   4.465   0.273
 6820TIP3    H242024   6.246   4.374   0.208
 6821TIP3   OH242025   1.349   4.049   1.760
 6821TIP3    H142026   1.394   4.133   1.763
 6821TIP3    H242027   1.271   4.062   1.815
 6822TIP3   OH242028   5.983   2.672   0.680
 6822TIP3    H142029   5.968   2.609   0.751
 6822TIP3    H242030   6.077   2.669   0.665
 6823TIP3   OH242031   6.249   1.910   8.066
 6823TIP3    H142032   6.307   1.946   7.998
 6823TIP3    H242033   6.194   1.847   8.019
 6824TIP3   OH242034   6.726   0.437   8.094
 6824TIP3    H142035   6.787   0.506   8.069
 6824TIP3    H242036   6.776   0.356   8.083
 6825TIP3   OH242037   6.959   6.559   1.091
 6825TIP3    H142038   6.958   6.650   1.121
 6825TIP3    H242039   6.953   6.507   1.171
 6826TIP3   OH242040   0.367   5.022   7.721
 6826TIP3    H142041   0.373   5.059   7.809
 6826TIP3    H242042   0.440   5.062   7.673
 6827TIP3   OH242043   3.336   4.168   6.337
 6827TIP3    H142044   3.370   4.132   6.420
 6827TIP3    H242045   3.413   4.171   6.280
 6828TIP3   OH242046   6.823   4.905   8.271
 6828TIP3    H142047   6.789   4.862   8.349
 6828TIP3    H242048   6.798   4.997   8.281
 6829TIP3   OH242049   2.067   2.921   1.716
 6829TIP3    H142050   2.083   2.979   1.641
 6829TIP3    H242051   2.108   2.966   1.790
 6830TIP3   OH242052   1.135   4.179   1.136
 6830TIP3    H142053   1.190   4.154   1.062
 6830TIP3    H242054   1.082   4.251   1.103
 6831TIP3   OH242055   5.124   3.334   0.153
 6831TIP3    H142056   5.083   3.344   0.239
 6831TIP3    H242057   5.050   3.316   0.094
 6832TIP3   OH242058   4.854   5.045   0.205
 6832TIP3    H142059   4.896   5.079   0.126
 6832TIP3    H242060   4.845   4.951   0.190
 6833TIP3   OH242061   0.190   3.964   7.826
 6833TIP3    H142062   0.152   3.917   7.901
 6833TIP3    H242063   0.187   4.056   7.852
 6834TIP3   OH242064   4.030   1.166   0.310
 6834TIP3    H142065   4.029   1.084   0.261
 6834TIP3    H242066   4.118   1.171   0.347
 6835TIP3   OH242067   5.972   5.622   7.019
 6835TIP3    H142068   5.930   5.706   7.004
 6835TIP3    H242069   5.998   5.624   7.111
 6836TIP3   OH242070   3.696   2.192   0.033
 6836TIP3    H142071   3.619   2.244   0.013
 6836TIP3    H242072   3.723   2.155  -0.051
 6837TIP3   OH242073   1.263   6.364   0.561
 6837TIP3    H142074   1.342   6.326   0.600
 6837TIP3    H242075   1.271   6.458   0.578
 6838TIP3   OH242076   6.200   2.220   1.772
 6838TIP3    H142077   6.183   2.313   1.789
 6838TIP3    H242078   6.247   2.189   1.849
 6839TIP3   OH242079   5.293   3.809   6.900
 6839TIP3    H142080   5.297   3.764   6.984
 6839TIP3    H242081   5.299   3.739   6.835
 6840TIP3   OH242082   4.385   5.535   1.575
 6840TIP3    H142083   4.460   5.515   1.631
 6840TIP3    H242084   4.310   5.499   1.623
 6841TIP3   OH242085   2.130   6.865   7.964
 6841TIP3    H142086   2.171   6.947   7.993
 6841TIP3    H242087   2.102   6.822   8.045
 6842TIP3   OH242088   1.473   2.195   8.074
 6842TIP3    H142089   1.516   2.279   8.063
 6842TIP3    H242090   1.438   2.197   8.163
 6843TIP3   OH242091   5.962   2.275   7.541
 6843TIP3    H142092   5.990   2.213   7.609
 6843TIP3    H242093   5.987   2.233   7.459
 6844TIP3   OH242094   3.438   4.341   6.698
 6844TIP3    H142095   3.381   4.382   6.764
 6844TIP3    H242096   3.486   4.414   6.659
 6845TIP3   OH242097   2.183   1.339   7.074
 6845TIP3    H142098   2.098   1.298   7.088
 6845TIP3    H242099   2.245   1.278   7.114
 6846TIP3   OH242100   2.991   6.679   8.114
 6846TIP3    H142101   2.981   6.596   8.161
 6846TIP3    H242102   2.931   6.739   8.158
 6847TIP3   OH242103   0.089   6.513   7.326
 6847TIP3    H142104   0.080   6.539   7.418
 6847TIP3    H242105   0.014   6.455   7.311
 6848TIP3   OH242106   4.110   6.612   0.843
 6848TIP3    H142107   4.154   6.527   0.839
 6848TIP3    H242108   4.180   6.676   0.832
 6849TIP3   OH242109   0.416   6.256   7.727
 6849TIP3    H142110   0.497   6.209   7.748
 6849TIP3    H242111   0.352   6.186   7.714
 6850TIP3   OH242112   3.027   5.726   6.712
 6850TIP3    H142113   3.052   5.639   6.680
 6850TIP3    H242114   2.994   5.710   6.801
 6851TIP3   OH242115   0.475   3.573   1.396
 6851TIP3    H142116   0.530   3.581   1.317
 6851TIP3    H242117   0.493   3.653   1.445
 6852TIP3   OH242118   1.403   2.264   6.856
 6852TIP3    H142119   1.350   2.340   6.880
 6852TIP3    H242120   1.426   2.279   6.764
 6853TIP3   OH242121   0.177   1.641   0.597
 6853TIP3    H142122   0.139   1.694   0.666
 6853TIP3    H242123   0.264   1.679   0.583
 6854TIP3   OH242124   5.782   6.418   7.529
 6854TIP3    H142125   5.795   6.465   7.611
 6854TIP3    H242126   5.858   6.442   7.476
 6855TIP3   OH242127   4.686   3.529   1.437
 6855TIP3    H142128   4.722   3.568   1.358
 6855TIP3    H242129   4.635   3.599   1.478
 6856TIP3   OH242130   0.456   6.799   1.236
 6856TIP3    H142131   0.423   6.710   1.241
 6856TIP3    H242132   0.384   6.849   1.198
 6857TIP3   OH242133   3.908   3.315   1.688
 6857TIP3    H142134   3.960   3.235   1.687
 6857TIP3    H242135   3.924   3.355   1.602
 6858TIP3   OH242136   1.501   3.514   1.456
 6858TIP3    H142137   1.519   3.429   1.417
 6858TIP3    H242138   1.454   3.493   1.537
 6859TIP3   OH242139   2.022   1.493   0.039
 6859TIP3    H142140   1.982   1.456  -0.040
 6859TIP3    H242141   2.059   1.417   0.085
 6860TIP3   OH242142   0.527   5.560   8.270
 6860TIP3    H142143   0.455   5.560   8.334
 6860TIP3    H242144   0.484   5.575   8.185
 6861TIP3   OH242145   3.473   6.576   7.791
 6861TIP3    H142146   3.557   6.532   7.806
 6861TIP3    H242147   3.422   6.556   7.870
 6862TIP3   OH242148   6.773   0.993   1.168
 6862TIP3    H142149   6.840   1.002   1.101
 6862TIP3    H242150   6.751   1.084   1.192
 6863TIP3   OH242151   1.291   2.736   7.069
 6863TIP3    H142152   1.287   2.698   7.157
 6863TIP3    H242153   1.199   2.751   7.046
 6864TIP3   OH242154   4.214   5.126   6.631
 6864TIP3    H142155   4.308   5.117   6.640
 6864TIP3    H242156   4.180   5.117   6.720
 6865TIP3   OH242157   2.484   1.409   1.875
 6865TIP3    H142158   2.503   1.459   1.955
 6865TIP3    H242159   2.393   1.383   1.885
 6866TIP3   OH242160   5.040   5.295   1.642
 6866TIP3    H142161   5.068   5.265   1.556
 6866TIP3    H242162   4.963   5.242   1.662
 6867TIP3   OH242163   2.706   6.542   7.710
 6867TIP3    H142164   2.774   6.609   7.721
 6867TIP3    H242165   2.709   6.491   7.791
 6868TIP3   OH242166   4.700   6.275   0.610
 6868TIP3    H142167   4.730   6.254   0.698
 6868TIP3    H242168   4.760   6.342   0.578
 6869TIP3   OH242169   6.490   5.227   2.117
 6869TIP3    H142170   6.503   5.141   2.158
 6869TIP3    H242171   6.577   5.265   2.114
 6870TIP3   OH242172   0.623   6.440   1.600
 6870TIP3    H142173   0.713   6.406   1.597
 6870TIP3    H242174   0.618   6.502   1.528
 6871TIP3   OH242175   0.481   6.091   0.509
 6871TIP3    H142176   0.496   6.169   0.454
 6871TIP3    H242177   0.503   6.120   0.598
 6872TIP3   OH242178   3.491   4.423   8.193
 6872TIP3    H142179   3.558   4.491   8.197
 6872TIP3    H242180   3.459   4.426   8.103
 6873TIP3   OH242181   2.403   2.377   0.204
 6873TIP3    H142182   2.435   2.444   0.143
 6873TIP3    H242183   2.473   2.312   0.208
 6874TIP3   OH242184   5.503   2.152   0.345
 6874TIP3    H142185   5.560   2.108   0.282
 6874TIP3    H242186   5.499   2.092   0.420
 6875TIP3   OH242187   6.207   2.446   1.361
 6875TIP3    H142188   6.183   2.527   1.406
 6875TIP3    H242189   6.254   2.394   1.426
 6876TIP3   OH242190   5.817   0.558   8.393
 6876TIP3    H142191   5.838   0.595   8.479
 6876TIP3    H242192   5.887   0.590   8.336
 6877TIP3   OH242193   4.167   4.064   1.507
 6877TIP3    H142194   4.074   4.051   1.491
 6877TIP3    H242195   4.201   4.103   1.426
 6878TIP3   OH242196   2.847   1.159   8.039
 6878TIP3    H142197   2.898   1.104   8.098
 6878TIP3    H242198   2.901   1.237   8.027
 6879TIP3   OH242199   0.245   5.775   8.318
 6879TIP3    H142200   0.159   5.767   8.360
 6879TIP3    H242201   0.227   5.820   8.235
 6880TIP3   OH242202   6.582   0.524   1.683
 6880TIP3    H142203   6.548   0.468   1.614
 6880TIP3    H242204   6.504   0.562   1.723
 6881TIP3   OH242205   3.843   1.102   7.287
 6881TIP3    H142206   3.904   1.032   7.312
 6881TIP3    H242207   3.790   1.117   7.366
 6882TIP3   OH242208   0.350   6.538   1.203
 6882TIP3    H142209   0.424   6.478   1.215
 6882TIP3    H242210   0.274   6.480   1.193
 6883TIP3   OH242211   2.395   0.210   2.172
 6883TIP3    H142212   2.395   0.235   2.079
 6883TIP3    H242213   2.488   0.205   2.195
 6884TIP3   OH242214   4.046   4.071   7.043
 6884TIP3    H142215   4.115   4.051   6.980
 6884TIP3    H242216   4.092   4.082   7.127
 6885TIP3   OH242217   0.133   2.835   1.874
 6885TIP3    H142218   0.066   2.856   1.940
 6885TIP3    H242219   0.111   2.891   1.799
 6886TIP3   OH242220   3.356   5.379   7.513
 6886TIP3    H142221   3.326   5.433   7.440
 6886TIP3    H242222   3.280   5.375   7.571
 6887TIP3   OH242223   2.086   2.714   6.020
 6887TIP3    H142224   2.138   2.704   6.099
 6887TIP3    H242225   2.038   2.796   6.033
 6888TIP3   OH242226   5.834   2.282   6.777
 6888TIP3    H142227   5.796   2.309   6.694
 6888TIP3    H242228   5.915   2.333   6.785
 6889TIP3   OH242229   4.651   0.082   7.431
 6889TIP3    H142230   4.743   0.058   7.424
 6889TIP3    H242231   4.603   0.004   7.401
 6890TIP3   OH242232   0.272   2.604   1.912
 6890TIP3    H142233   0.234   2.692   1.907
 6890TIP3    H242234   0.359   2.618   1.950
 6891TIP3   OH242235   4.056   1.248   7.359
 6891TIP3    H142236   3.974   1.248   7.310
 6891TIP3    H242237   4.119   1.203   7.301
 6892TIP3   OH242238   2.957   0.618   7.760
 6892TIP3    H142239   2.987   0.709   7.760
 6892TIP3    H242240   2.862   0.624   7.766
 6893TIP3   OH242241   4.682   3.477   0.945
 6893TIP3    H142242   4.769   3.516   0.938
 6893TIP3    H242243   4.680   3.438   1.032
 6894TIP3   OH242244   2.363   2.924   6.371
 6894TIP3    H142245   2.449   2.892   6.345
 6894TIP3    H242246   2.354   3.008   6.327
 6895TIP3   OH242247   6.407   1.956   1.342
 6895TIP3    H142248   6.349   1.924   1.411
 6895TIP3    H242249   6.495   1.951   1.380
 6896TIP3   OH242250   6.848   6.395   7.268
 6896TIP3    H142251   6.789   6.430   7.335
 6896TIP3    H242252   6.829   6.301   7.267
 6897TIP3   OH242253   2.159   6.423   1.042
 6897TIP3    H142254   2.084   6.459   1.090
 6897TIP3    H242255   2.234   6.440   1.099
 6898TIP3   OH242256   2.786   3.275   7.836
 6898TIP3    H142257   2.859   3.275   7.898
 6898TIP3    H242258   2.799   3.196   7.783
 6899TIP3   OH242259   2.751   4.056   0.071
 6899TIP3    H142260   2.786   4.145   0.066
 6899TIP3    H242261   2.669   4.060   0.022
 6900TIP3   OH242262   4.924   0.044   8.028
 6900TIP3    H142263   4.996   0.105   8.041
 6900TIP3    H242264   4.967  -0.042   8.020
 6901TIP3   OH242265   5.694   3.496   0.129
 6901TIP3    H142266   5.713   3.479   0.221
 6901TIP3    H242267   5.655   3.583   0.128
 6902TIP3   OH242268   1.879   2.748   0.703
 6902TIP3    H142269   1.787   2.741   0.678
 6902TIP3    H242270   1.917   2.808   0.638
 6903TIP3   OH242271   0.703   3.609   2.144
 6903TIP3    H142272   0.728   3.521   2.169
 6903TIP3    H242273   0.610   3.603   2.124
 6904TIP3   OH242274   1.484   5.407   1.307
 6904TIP3    H142275   1.485   5.329   1.251
 6904TIP3    H242276   1.410   5.459   1.275
 6905TIP3   OH242277   4.825   6.861   7.688
 6905TIP3    H142278   4.851   6.953   7.691
 6905TIP3    H242279   4.845   6.834   7.598
 6906TIP3   OH242280   5.625   2.843   1.821
 6906TIP3    H142281   5.702   2.883   1.781
 6906TIP3    H242282   5.559   2.913   1.819
 6907TIP3   OH242283   4.014   3.825   0.971
 6907TIP3    H142284   4.047   3.736   0.962
 6907TIP3    H242285   4.036   3.868   0.888
 6908TIP3   OH242286   3.191   2.598   7.455
 6908TIP3    H142287   3.103   2.568   7.474
 6908TIP3    H242288   3.202   2.582   7.361
 6909TIP3   OH242289   6.864   0.455   0.621
 6909TIP3    H142290   6.883   0.482   0.531
 6909TIP3    H242291   6.817   0.529   0.659
 6910TIP3   OH242292   6.450   3.890   0.828
 6910TIP3    H142293   6.405   3.897   0.744
 6910TIP3    H242294   6.541   3.913   0.809
 6911TIP3   OH242295   0.807   5.406   1.933
 6911TIP3    H142296   0.752   5.356   1.872
 6911TIP3    H242297   0.751   5.476   1.965
 6912TIP3   OH242298   2.151   4.499   8.384
 6912TIP3    H142299   2.107   4.559   8.444
 6912TIP3    H242300   2.125   4.529   8.297
 6913TIP3   OH242301   0.753   1.285   8.172
 6913TIP3    H142302   0.746   1.262   8.080
 6913TIP3    H242303   0.840   1.255   8.197
 6914TIP3   OH242304   6.407   4.489   6.286
 6914TIP3    H142305   6.485   4.452   6.329
 6914TIP3    H242306   6.441   4.560   6.231
 6915TIP3   OH242307   1.641   3.348   8.381
 6915TIP3    H142308   1.650   3.282   8.450
 6915TIP3    H242309   1.609   3.426   8.427
 6916TIP3   OH242310   0.588   1.996   6.946
 6916TIP3    H142311   0.545   1.917   6.978
 6916TIP3    H242312   0.558   2.005   6.855
 6917TIP3   OH242313   5.519   1.083   0.766
 6917TIP3    H142314   5.531   1.000   0.720
 6917TIP3    H242315   5.498   1.146   0.696
 6918TIP3   OH242316   3.572   5.960   1.198
 6918TIP3    H142317   3.557   5.868   1.176
 6918TIP3    H242318   3.664   5.963   1.225
 6919TIP3   OH242319   6.005   1.952   0.001
 6919TIP3    H142320   6.084   1.911  -0.036
 6919TIP3    H242321   6.000   1.917   0.090
 6920TIP3   OH242322   2.995   2.580   7.170
 6920TIP3    H142323   2.921   2.526   7.143
 6920TIP3    H242324   3.001   2.648   7.103
 6921TIP3   OH242325   2.107   1.739   2.380
 6921TIP3    H142326   2.073   1.826   2.359
 6921TIP3    H242327   2.029   1.684   2.386
 6922TIP3   OH242328   6.133   1.139   7.838
 6922TIP3    H142329   6.156   1.208   7.901
 6922TIP3    H242330   6.059   1.175   7.789
 6923TIP3   OH242331   0.728   4.662   6.602
 6923TIP3    H142332   0.646   4.612   6.597
 6923TIP3    H242333   0.749   4.683   6.511
 6924TIP3   OH242334   6.662   1.497   7.678
 6924TIP3    H142335   6.748   1.457   7.676
 6924TIP3    H242336   6.605   1.434   7.634
 6925TIP3   OH242337   3.737   0.084   8.127
 6925TIP3    H142338   3.823   0.122   8.150
 6925TIP3    H242339   3.712   0.034   8.205
 6926TIP3   OH242340   4.591   5.141   7.124
 6926TIP3    H142341   4.640   5.091   7.058
 6926TIP3    H242342   4.505   5.153   7.085
 6927TIP3   OH242343   2.833   0.100   6.729
 6927TIP3    H142344   2.832   0.005   6.714
 6927TIP3    H242345   2.808   0.110   6.821
 6928TIP3   OH242346   4.944   0.655   7.651
 6928TIP3    H142347   5.013   0.661   7.717
 6928TIP3    H242348   4.877   0.601   7.692
 6929TIP3   OH242349   0.521   2.648   6.323
 6929TIP3    H142350   0.568   2.729   6.340
 6929TIP3    H242351   0.431   2.666   6.350
 6930TIP3   OH242352   6.036   3.903   1.278
 6930TIP3    H142353   6.017   3.940   1.364
 6930TIP3    H242354   6.044   3.979   1.220
 6931TIP3   OH242355   5.119   4.564   7.749
 6931TIP3    H142356   5.084   4.646   7.783
 6931TIP3    H242357   5.054   4.498   7.773
 6932TIP3   OH242358   2.075   5.609   7.450
 6932TIP3    H142359   2.126   5.528   7.452
 6932TIP3    H242360   1.994   5.588   7.496
 6933TIP3   OH242361   5.581   0.873   1.780
 6933TIP3    H142362   5.583   0.933   1.854
 6933TIP3    H242363   5.635   0.799   1.807
 6934TIP3   OH242364   1.297   0.269   1.017
 6934TIP3    H142365   1.388   0.244   1.003
 6934TIP3    H242366   1.301   0.354   1.061
 6935TIP3   OH242367   5.455   3.938   5.953
 6935TIP3    H142368   5.367   3.975   5.949
 6935TIP3    H242369   5.443   3.848   5.984
 6936TIP3   OH242370   5.464   1.003   1.070
 6936TIP3    H142371   5.466   1.063   0.995
 6936TIP3    H242372   5.372   0.979   1.079
 6937TIP3   OH242373   1.061   1.953   0.997
 6937TIP3    H142374   0.981   1.940   0.945
 6937TIP3    H242375   1.051   1.894   1.072
 6938TIP3   OH242376   3.500   0.050   0.561
 6938TIP3    H142377   3.555   0.009   0.494
 6938TIP3    H242378   3.451   0.117   0.514
 6939TIP3   OH242379   3.639   6.497   8.251
 6939TIP3    H142380   3.594   6.582   8.257
 6939TIP3    H242381   3.574   6.434   8.282
 6940TIP3   OH242382   1.103   5.639   0.758
 6940TIP3    H142383   1.093   5.556   0.712
 6940TIP3    H242384   1.120   5.703   0.690
 6941TIP3   OH242385   2.066   2.232   1.708
 6941TIP3    H142386   1.972   2.251   1.710
 6941TIP3    H242387   2.103   2.299   1.650
 6942TIP3   OH242388   4.548   2.469   6.853
 6942TIP3    H142389   4.641   2.460   6.829
 6942TIP3    H242390   4.510   2.384   6.830
 6943TIP3   OH242391   5.473   3.546   1.754
 6943TIP3    H142392   5.417   3.552   1.831
 6943TIP3    H242393   5.459   3.629   1.708
 6944TIP3   OH242394   1.026   1.158   7.671
 6944TIP3    H142395   1.047   1.250   7.685
 6944TIP3    H242396   1.044   1.142   7.579
 6945TIP3   OH242397   3.072   5.982   7.050
 6945TIP3    H142398   3.150   5.931   7.025
 6945TIP3    H242399   3.091   6.012   7.138
 6946TIP3   OH242400   6.506   4.781   6.899
 6946TIP3    H142401   6.587   4.776   6.950
 6946TIP3    H242402   6.443   4.731   6.951
 6947TIP3   OH242403   5.403   0.893   8.239
 6947TIP3    H142404   5.443   0.823   8.290
 6947TIP3    H242405   5.340   0.933   8.298
 6948TIP3   OH242406   6.511   4.432   8.385
 6948TIP3    H142407   6.450   4.425   8.458
 6948TIP3    H242408   6.457   4.417   8.307
 6949TIP3   OH242409   6.236   6.664   1.637
 6949TIP3    H142410   6.258   6.676   1.730
 6949TIP3    H242411   6.289   6.589   1.610
 6950TIP3   OH242412   2.969   5.512   7.891
 6950TIP3    H142413   2.896   5.520   7.830
 6950TIP3    H242414   2.953   5.580   7.957
 6951TIP3   OH242415   3.505   5.166   8.035
 6951TIP3    H142416   3.477   5.230   8.101
 6951TIP3    H242417   3.577   5.119   8.077
 6952TIP3   OH242418   1.708   6.761   6.308
 6952TIP3    H142419   1.772   6.698   6.342
 6952TIP3    H242420   1.661   6.713   6.240
 6953TIP3   OH242421   4.105   5.404   7.499
 6953TIP3    H142422   4.082   5.358   7.418
 6953TIP3    H242423   4.078   5.344   7.568
 6954TIP3   OH242424   5.598   6.350   0.415
 6954TIP3    H142425   5.680   6.381   0.455
 6954TIP3    H242426   5.620   6.263   0.382
 6955TIP3   OH242427   3.459   5.426   0.537
 6955TIP3    H142428   3.457   5.333   0.513
 6955TIP3    H242429   3.507   5.468   0.465
 6956TIP3   OH242430   2.495   1.056   7.142
 6956TIP3    H142431   2.505   1.081   7.051
 6956TIP3    H242432   2.538   0.971   7.150
 6957TIP3   OH242433   4.367   5.103   1.662
 6957TIP3    H142434   4.419   5.168   1.709
 6957TIP3    H242435   4.332   5.046   1.731
 6958TIP3   OH242436   2.798   5.919   7.669
 6958TIP3    H142437   2.890   5.895   7.678
 6958TIP3    H242438   2.751   5.836   7.665
 6959TIP3   OH242439   4.956   2.791   7.847
 6959TIP3    H142440   4.973   2.697   7.850
 6959TIP3    H242441   4.869   2.801   7.886
 6960TIP3   OH242442   4.316   0.985   2.485
 6960TIP3    H142443   4.321   1.074   2.520
 6960TIP3    H242444   4.232   0.952   2.515
 6961TIP3   OH242445   4.173   2.438   8.064
 6961TIP3    H142446   4.265   2.432   8.089
 6961TIP3    H242447   4.148   2.348   8.041
 6962TIP3   OH242448   1.252   5.222   2.216
 6962TIP3    H142449   1.174   5.203   2.164
 6962TIP3    H242450   1.304   5.281   2.161
 6963TIP3   OH242451   3.396   5.021   0.084
 6963TIP3    H142452   3.363   5.032  -0.005
 6963TIP3    H242453   3.334   4.960   0.124
 6964TIP3   OH242454   2.633   5.090   0.751
 6964TIP3    H142455   2.634   5.062   0.843
 6964TIP3    H242456   2.694   5.031   0.708
 6965TIP3   OH242457   4.807   4.370   1.136
 6965TIP3    H142458   4.875   4.320   1.091
 6965TIP3    H242459   4.779   4.313   1.207
 6966TIP3   OH242460   3.550   4.581   6.598
 6966TIP3    H142461   3.584   4.654   6.650
 6966TIP3    H242462   3.582   4.597   6.509
 6967TIP3   OH242463   3.639   4.141   1.736
 6967TIP3    H142464   3.635   4.237   1.730
 6967TIP3    H242465   3.576   4.111   1.671
 6968TIP3   OH242466   4.385   0.154   1.866
 6968TIP3    H142467   4.404   0.064   1.841
 6968TIP3    H242468   4.373   0.200   1.783
 6969TIP3   OH242469   2.946   3.958   6.877
 6969TIP3    H142470   3.011   3.890   6.900
 6969TIP3    H242471   2.997   4.024   6.830
 6970TIP3   OH242472   6.635   3.906   1.068
 6970TIP3    H142473   6.549   3.887   1.029
 6970TIP3    H242474   6.679   3.959   1.001
 6971TIP3   OH242475   2.982   4.689   0.290
 6971TIP3    H142476   2.898   4.689   0.243
 6971TIP3    H242477   2.979   4.610   0.344
 6972TIP3   OH242478   6.216   5.518   0.086
 6972TIP3    H142479   6.136   5.529   0.035
 6972TIP3    H242480   6.187   5.509   0.176
 6973TIP3   OH242481   4.423   4.683   7.797
 6973TIP3    H142482   4.352   4.737   7.762
 6973TIP3    H242483   4.427   4.706   7.890
 6974TIP3   OH242484   4.099   0.372   1.610
 6974TIP3    H142485   4.024   0.352   1.553
 6974TIP3    H242486   4.166   0.308   1.585
 6975TIP3   OH242487   3.661   3.206   7.874
 6975TIP3    H142488   3.583   3.188   7.926
 6975TIP3    H242489   3.710   3.124   7.875
 6976TIP3   OH242490   3.271   6.450   0.118
 6976TIP3    H142491   3.191   6.432   0.069
 6976TIP3    H242492   3.282   6.544   0.113
 6977TIP3   OH242493   4.179   5.787   1.186
 6977TIP3    H142494   4.191   5.719   1.119
 6977TIP3    H242495   4.154   5.865   1.138
 6978TIP3   OH242496   2.786   2.593   1.759
 6978TIP3    H142497   2.874   2.569   1.731
 6978TIP3    H242498   2.796   2.680   1.798
 6979TIP3   OH242499   1.915   6.834   1.259
 6979TIP3    H142500   1.991   6.832   1.316
 6979TIP3    H242501   1.842   6.854   1.318
 6980TIP3   OH242502   4.606   1.637   7.792
 6980TIP3    H142503   4.687   1.611   7.747
 6980TIP3    H242504   4.629   1.717   7.839
 6981TIP3   OH242505   5.020   5.047   7.107
 6981TIP3    H142506   5.052   4.957   7.111
 6981TIP3    H242507   5.059   5.090   7.184
 6982TIP3   OH242508   3.912   1.814   0.293
 6982TIP3    H142509   3.908   1.872   0.217
 6982TIP3    H242510   3.839   1.842   0.348
 6983TIP3   OH242511   1.477   3.390   7.451
 6983TIP3    H142512   1.554   3.445   7.463
 6983TIP3    H242513   1.494   3.313   7.505
 6984TIP3   OH242514   3.751   2.712   0.160
 6984TIP3    H142515   3.825   2.702   0.100
 6984TIP3    H242516   3.768   2.650   0.230
 6985TIP3   OH242517   4.254   3.986   6.905
 6985TIP3    H142518   4.235   3.992   6.811
 6985TIP3    H242519   4.342   4.023   6.913
 6986TIP3   OH242520   4.949   2.689   8.394
 6986TIP3    H142521   5.024   2.656   8.344
 6986TIP3    H242522   4.915   2.612   8.440
 6987TIP3   OH242523   1.090   3.016   6.851
 6987TIP3    H142524   1.148   3.048   6.782
 6987TIP3    H242525   1.063   3.095   6.898
 6988TIP3   OH242526   0.292   2.309   6.146
 6988TIP3    H142527   0.266   2.394   6.110
 6988TIP3    H242528   0.358   2.331   6.212
 6989TIP3   OH242529   5.452   5.045   2.363
 6989TIP3    H142530   5.429   4.960   2.326
 6989TIP3    H242531   5.382   5.064   2.425
 6990TIP3   OH242532   6.903   3.900   7.819
 6990TIP3    H142533   6.949   3.827   7.777
 6990TIP3    H242534   6.910   3.972   7.757
 6991TIP3   OH242535   3.942   3.584   6.961
 6991TIP3    H142536   4.036   3.588   6.974
 6991TIP3    H242537   3.930   3.558   6.870
 6992TIP3   OH242538   3.846   2.339   1.732
 6992TIP3    H142539   3.825   2.331   1.639
 6992TIP3    H242540   3.844   2.249   1.765
 6993TIP3   OH242541   0.138   3.649   7.340
 6993TIP3    H142542   0.106   3.572   7.388
 6993TIP3    H242543   0.232   3.650   7.357
 6994TIP3   OH242544   3.790   5.078   7.704
 6994TIP3    H142545   3.755   5.017   7.639
 6994TIP3    H242546   3.761   5.042   7.788
 6995TIP3   OH242547   4.288   5.137   7.732
 6995TIP3    H142548   4.381   5.144   7.713
 6995TIP3    H242549   4.245   5.189   7.663
 6996TIP3   OH242550   6.744   0.477   1.395
 6996TIP3    H142551   6.651   0.479   1.419
 6996TIP3    H242552   6.760   0.562   1.354
 6997TIP3   OH242553   2.491   0.552   1.975
 6997TIP3    H142554   2.536   0.622   2.022
 6997TIP3    H242555   2.398   0.573   1.985
 6998TIP3   OH242556   3.539   4.197   0.177
 6998TIP3    H142557   3.602   4.244   0.231
 6998TIP3    H242558   3.490   4.265   0.131
 6999TIP3   OH242559   0.800   2.760   1.124
 6999TIP3    H142560   0.878   2.794   1.167
 6999TIP3    H242561   0.753   2.714   1.193
 7000TIP3   OH242562   1.698   1.361   0.258
 7000TIP3    H142563   1.766   1.333   0.319
 7000TIP3    H242564   1.637   1.413   0.311
 7001TIP3   OH242565   2.945   4.141   0.321
 7001TIP3    H142566   2.864   4.090   0.318
 7001TIP3    H242567   2.917   4.232   0.311
 7002TIP3   OH242568   0.299   2.132   7.287
 7002TIP3    H142569   0.285   2.045   7.324
 7002TIP3    H242570   0.336   2.182   7.360
 7003TIP3   OH242571   5.469   5.227   0.683
 7003TIP3    H142572   5.472   5.131   0.677
 7003TIP3    H242573   5.557   5.256   0.660
 7004TIP3   OH242574   5.266   2.515   2.264
 7004TIP3    H142575   5.360   2.509   2.249
 7004TIP3    H242576   5.255   2.595   2.316
 7005TIP3   OH242577   3.444   6.495   7.492
 7005TIP3    H142578   3.412   6.436   7.424
 7005TIP3    H242579   3.396   6.471   7.571
 7006TIP3   OH242580   1.715   0.649   0.600
 7006TIP3    H142581   1.637   0.648   0.656
 7006TIP3    H242582   1.704   0.727   0.545
 7007TIP3   OH242583   6.011   3.211   7.154
 7007TIP3    H142584   6.027   3.262   7.075
 7007TIP3    H242585   5.991   3.123   7.122
 7008TIP3   OH242586   2.527   1.114   8.232
 7008TIP3    H142587   2.445   1.147   8.269
 7008TIP3    H242588   2.534   1.025   8.265
 7009TIP3   OH242589   1.360   4.082   0.006
 7009TIP3    H142590   1.276   4.085   0.051
 7009TIP3    H242591   1.346   4.135  -0.073
 7010TIP3   OH242592   2.679   4.071   6.852
 7010TIP3    H142593   2.763   4.041   6.887
 7010TIP3    H242594   2.632   4.104   6.927
 7011TIP3   OH242595   0.748   4.778   7.124
 7011TIP3    H142596   0.838   4.781   7.155
 7011TIP3    H242597   0.748   4.831   7.045
 7012TIP3   OH242598   0.414   2.587   0.552
 7012TIP3    H142599   0.461   2.648   0.609
 7012TIP3    H242600   0.349   2.546   0.609
 7013TIP3   OH242601   6.247   4.916   5.947
 7013TIP3    H142602   6.215   4.830   5.975
 7013TIP3    H242603   6.207   4.929   5.861
 7014TIP3   OH242604   3.428   0.131   6.011
 7014TIP3    H142605   3.473   0.174   6.084
 7014TIP3    H242606   3.488   0.061   5.984
 7015TIP3   OH242607   6.331   5.632   7.077
 7015TIP3    H142608   6.301   5.641   6.987
 7015TIP3    H242609   6.409   5.686   7.082
 7016TIP3   OH242610   1.229   4.691   0.331
 7016TIP3    H142611   1.309   4.647   0.359
 7016TIP3    H242612   1.215   4.660   0.241
 7017TIP3   OH242613   0.158   6.078   7.826
 7017TIP3    H142614   0.165   6.057   7.733
 7017TIP3    H242615   0.079   6.032   7.855
 7018TIP3   OH242616   4.347   6.289   8.112
 7018TIP3    H142617   4.331   6.289   8.018
 7018TIP3    H242618   4.386   6.374   8.130
 7019TIP3   OH242619   0.073   2.134   2.307
 7019TIP3    H142620   0.118   2.063   2.353
 7019TIP3    H242621   0.107   2.213   2.349
 7020TIP3   OH242622   1.440   5.763   0.368
 7020TIP3    H142623   1.403   5.690   0.417
 7020TIP3    H242624   1.533   5.744   0.363
 7021TIP3   OH242625   3.772   4.772   2.060
 7021TIP3    H142626   3.812   4.704   2.114
 7021TIP3    H242627   3.804   4.854   2.097
 7022TIP3   OH242628   4.474   6.830   7.986
 7022TIP3    H142629   4.513   6.917   7.984
 7022TIP3    H242630   4.403   6.836   8.050
 7023TIP3   OH242631   3.434   0.499   0.720
 7023TIP3    H142632   3.503   0.540   0.772
 7023TIP3    H242633   3.418   0.415   0.763
 7024TIP3   OH242634   4.254   0.832   0.577
 7024TIP3    H142635   4.328   0.783   0.614
 7024TIP3    H242636   4.272   0.836   0.484
 7025TIP3   OH242637   2.507   0.599   0.827
 7025TIP3    H142638   2.500   0.654   0.749
 7025TIP3    H242639   2.547   0.656   0.893
 7026TIP3   OH242640   1.767   0.727   7.590
 7026TIP3    H142641   1.815   0.672   7.529
 7026TIP3    H242642   1.798   0.816   7.572
 7027TIP3   OH242643   0.906   6.465   0.331
 7027TIP3    H142644   0.998   6.488   0.342
 7027TIP3    H242645   0.860   6.517   0.397
 7028TIP3   OH242646   5.512   3.062   7.723
 7028TIP3    H142647   5.501   3.054   7.628
 7028TIP3    H242648   5.512   3.157   7.739
 7029TIP3   OH242649   0.890   2.609   0.178
 7029TIP3    H142650   0.817   2.585   0.235
 7029TIP3    H242651   0.874   2.701   0.156
 7030TIP3   OH242652   3.746   2.693   7.375
 7030TIP3    H142653   3.781   2.773   7.415
 7030TIP3    H242654   3.739   2.714   7.282
 7031TIP3   OH242655   3.607   2.657   1.507
 7031TIP3    H142656   3.607   2.570   1.467
 7031TIP3    H242657   3.699   2.682   1.510
 7032TIP3   OH242658   5.082   6.798   8.001
 7032TIP3    H142659   5.075   6.754   8.085
 7032TIP3    H242660   5.049   6.734   7.938
 7033TIP3   OH242661   6.347   6.303   6.719
 7033TIP3    H142662   6.374   6.335   6.633
 7033TIP3    H242663   6.328   6.383   6.769
 7034TIP3   OH242664   3.197   2.880   1.798
 7034TIP3    H142665   3.194   2.961   1.849
 7034TIP3    H242666   3.290   2.868   1.778
 7035TIP3   OH242667   6.902   4.227   8.149
 7035TIP3    H142668   6.848   4.238   8.227
 7035TIP3    H242669   6.983   4.187   8.181
 7036TIP3   OH242670   4.091   0.283   0.330
 7036TIP3    H142671   4.064   0.205   0.377
 7036TIP3    H242672   4.027   0.350   0.355
 7037TIP3   OH242673   0.553   5.473   7.484
 7037TIP3    H142674   0.579   5.565   7.493
 7037TIP3    H242675   0.635   5.427   7.463
 7038TIP3   OH242676   6.629   0.865   8.082
 7038TIP3    H142677   6.610   0.857   8.175
 7038TIP3    H242678   6.664   0.954   8.073
 7039TIP3   OH242679   2.452   0.826   7.408
 7039TIP3    H142680   2.380   0.887   7.423
 7039TIP3    H242681   2.500   0.864   7.334
 7040TIP3   OH242682   1.714   5.518   5.596
 7040TIP3    H142683   1.736   5.427   5.610
 7040TIP3    H242684   1.637   5.533   5.650
 7041TIP3   OH242685   3.656   3.165   8.338
 7041TIP3    H142686   3.624   3.085   8.296
 7041TIP3    H242687   3.657   3.144   8.431
 7042TIP3   OH242688   5.402   4.535   7.841
 7042TIP3    H142689   5.307   4.540   7.842
 7042TIP3    H242690   5.429   4.587   7.918
 7043TIP3   OH242691   0.444   5.201   8.388
 7043TIP3    H142692   0.405   5.287   8.405
 7043TIP3    H242693   0.431   5.152   8.469
 7044TIP3   OH242694   3.931   0.486   1.003
 7044TIP3    H142695   3.887   0.502   1.087
 7044TIP3    H242696   3.995   0.556   0.995
 7045TIP3   OH242697   5.091   2.705   7.175
 7045TIP3    H142698   5.045   2.747   7.103
 7045TIP3    H242699   5.024   2.695   7.243
 7046TIP3   OH242700   4.064   1.978   6.416
 7046TIP3    H142701   3.976   2.005   6.392
 7046TIP3    H242702   4.120   2.052   6.390
 7047TIP3   OH242703   1.962   5.005   7.202
 7047TIP3    H142704   1.934   4.915   7.214
 7047TIP3    H242705   1.924   5.031   7.118
 7048TIP3   OH242706   6.278   2.675   6.922
 7048TIP3    H142707   6.308   2.710   7.005
 7048TIP3    H242708   6.358   2.658   6.872
 7049TIP3   OH242709   5.617   0.127   5.962
 7049TIP3    H142710   5.538   0.148   6.012
 7049TIP3    H242711   5.597   0.157   5.873
 7050TIP3   OH242712   5.641   2.945   0.640
 7050TIP3    H142713   5.697   3.020   0.616
 7050TIP3    H242714   5.555   2.983   0.656
 7051TIP3   OH242715   4.410   6.422   6.971
 7051TIP3    H142716   4.391   6.349   7.030
 7051TIP3    H242717   4.501   6.408   6.944
 7052TIP3   OH242718   0.939   6.546   7.966
 7052TIP3    H142719   0.975   6.596   8.039
 7052TIP3    H242720   0.996   6.470   7.958
 7053TIP3   OH242721   4.752   6.660   8.262
 7053TIP3    H142722   4.829   6.705   8.226
 7053TIP3    H242723   4.740   6.700   8.349
 7054TIP3   OH242724   0.646   4.990   6.411
 7054TIP3    H142725   0.704   4.999   6.336
 7054TIP3    H242726   0.558   4.997   6.375
 7055TIP3   OH242727   4.313   2.405   2.140
 7055TIP3    H142728   4.263   2.328   2.112
 7055TIP3    H242729   4.390   2.405   2.084
 7056TIP3   OH242730   4.140   6.854   1.949
 7056TIP3    H142731   4.089   6.929   1.918
 7056TIP3    H242732   4.183   6.885   2.028
 7057TIP3   OH242733   5.307   3.239   7.258
 7057TIP3    H142734   5.239   3.208   7.317
 7057TIP3    H242735   5.374   3.171   7.260
 7058TIP3   OH242736   2.567   5.428   0.846
 7058TIP3    H142737   2.632   5.361   0.866
 7058TIP3    H242738   2.488   5.379   0.823
 7059TIP3   OH242739   4.314   2.960   1.053
 7059TIP3    H142740   4.315   2.875   1.009
 7059TIP3    H242741   4.406   2.980   1.069
 7060TIP3   OH242742   3.112   3.977   1.204
 7060TIP3    H142743   3.042   4.014   1.258
 7060TIP3    H242744   3.089   3.884   1.197
 7061TIP3   OH242745   3.652   5.387   7.870
 7061TIP3    H142746   3.654   5.292   7.859
 7061TIP3    H242747   3.564   5.406   7.901
 7062TIP3   OH242748   6.744   3.180   7.330
 7062TIP3    H142749   6.783   3.098   7.358
 7062TIP3    H242750   6.738   3.233   7.409
 7063TIP3   OH242751   5.626   5.912   0.804
 7063TIP3    H142752   5.537   5.933   0.833
 7063TIP3    H242753   5.670   5.996   0.798
 7064TIP3   OH242754   2.702   0.190   1.279
 7064TIP3    H142755   2.745   0.105   1.272
 7064TIP3    H242756   2.738   0.229   1.359
 7065TIP3   OH242757   0.769   6.769   7.278
 7065TIP3    H142758   0.826   6.843   7.297
 7065TIP3    H242759   0.768   6.762   7.183
 7066TIP3   OH242760   3.496   6.822   7.652
 7066TIP3    H142761   3.506   6.739   7.698
 7066TIP3    H242762   3.526   6.804   7.563
 7067TIP3   OH242763   0.028   5.897   1.490
 7067TIP3    H142764  -0.061   5.932   1.480
 7067TIP3    H242765   0.018   5.823   1.550
 7068TIP3   OH242766   3.522   6.933   6.267
 7068TIP3    H142767   3.462   6.865   6.298
 7068TIP3    H242768   3.475   7.015   6.284
 7069TIP3   OH242769   4.388   2.621   1.603
 7069TIP3    H142770   4.331   2.683   1.648
 7069TIP3    H242771   4.429   2.672   1.533
 7070TIP3   OH242772   5.213   3.285   7.514
 7070TIP3    H142773   5.134   3.232   7.521
 7070TIP3    H242774   5.275   3.244   7.574
 7071TIP3   OH242775   4.529   6.770   0.870
 7071TIP3    H142776   4.439   6.797   0.851
 7071TIP3    H242777   4.534   6.680   0.839
 7072TIP3   OH242778   3.583   2.293   7.657
 7072TIP3    H142779   3.574   2.264   7.567
 7072TIP3    H242780   3.677   2.307   7.669
 7073TIP3   OH242781   4.456   2.428   6.176
 7073TIP3    H142782   4.452   2.449   6.083
 7073TIP3    H242783   4.381   2.474   6.214
 7074TIP3   OH242784   0.451   3.120   7.924
 7074TIP3    H142785   0.505   3.112   8.003
 7074TIP3    H242786   0.506   3.170   7.863
 7075TIP3   OH242787   5.205   5.959   1.502
 7075TIP3    H142788   5.271   6.012   1.457
 7075TIP3    H242789   5.126   6.013   1.500
 7076TIP3   OH242790   2.953   5.172   1.270
 7076TIP3    H142791   2.991   5.144   1.353
 7076TIP3    H242792   2.984   5.107   1.207
 7077TIP3   OH242793   0.792   1.063   1.667
 7077TIP3    H142794   0.883   1.031   1.668
 7077TIP3    H242795   0.765   1.059   1.759
 7078TIP3   OH242796   2.933   4.760   2.106
 7078TIP3    H142797   2.903   4.717   2.026
 7078TIP3    H242798   2.989   4.696   2.148
 7079TIP3   OH242799   5.658   6.650   7.008
 7079TIP3    H142800   5.679   6.560   7.030
 7079TIP3    H242801   5.672   6.656   6.913
 7080TIP3   OH242802   2.924   1.730   1.379
 7080TIP3    H142803   2.862   1.657   1.389
 7080TIP3    H242804   2.926   1.772   1.465
 7081TIP3   OH242805   5.393   4.789   2.286
 7081TIP3    H142806   5.328   4.723   2.312
 7081TIP3    H242807   5.460   4.738   2.241
 7082TIP3   OH242808   5.018   4.352   6.068
 7082TIP3    H142809   5.084   4.289   6.096
 7082TIP3    H242810   4.936   4.318   6.104
 7083TIP3   OH242811   2.354   6.626   6.095
 7083TIP3    H142812   2.440   6.642   6.057
 7083TIP3    H242813   2.360   6.539   6.135
 7084TIP3   OH242814   2.434   2.322   7.206
 7084TIP3    H142815   2.403   2.250   7.150
 7084TIP3    H242816   2.427   2.288   7.295
 7085TIP3   OH242817   3.381   2.237   1.296
 7085TIP3    H142818   3.291   2.221   1.325
 7085TIP3    H242819   3.371   2.288   1.215
 7086TIP3   OH242820   3.651   1.485   7.019
 7086TIP3    H142821   3.656   1.436   6.936
 7086TIP3    H242822   3.734   1.464   7.063
 7087TIP3   OH242823   4.497   2.207   0.966
 7087TIP3    H142824   4.578   2.201   1.017
 7087TIP3    H242825   4.427   2.196   1.031
 7088TIP3   OH242826   6.320   0.504   7.845
 7088TIP3    H142827   6.384   0.447   7.888
 7088TIP3    H242828   6.267   0.444   7.793
 7089TIP3   OH242829   0.577   6.620   1.786
 7089TIP3    H142830   0.557   6.554   1.720
 7089TIP3    H242831   0.499   6.675   1.790
 7090TIP3   OH242832   4.395   3.161   7.630
 7090TIP3    H142833   4.322   3.191   7.684
 7090TIP3    H242834   4.365   3.173   7.540
 7091TIP3   OH242835   0.944   2.018   1.341
 7091TIP3    H142836   0.948   1.930   1.303
 7091TIP3    H242837   0.949   2.003   1.436
 7092UNL      C42838   3.511   3.444   8.479
 7092UNL      C42839   3.536   3.358   8.602
 7092UNL      C42840   3.678   3.304   8.606
 7092UNL      O42841   3.512   3.435   8.719
 7092UNL      H42842   3.526   3.386   8.387
 7092UNL      H42843   3.577   3.531   8.478
 7092UNL      H42844   3.408   3.482   8.480
 7092UNL      H42845   3.466   3.274   8.604
 7092UNL      H42846   3.751   3.386   8.609
 7092UNL      H42847   3.699   3.242   8.518
 7092UNL      H42848   3.695   3.244   8.696
 7092UNL      H42849   3.575   3.510   8.719
   7.00104   7.00104   8.40781
