Title
42843
    1CHL1    C3    1   3.189   2.153   6.024  0.2012  0.4488  0.3387
    1CHL1    H3    2   3.206   2.044   6.035 -3.3825 -0.1767  0.7780
    1CHL1    O3    3   3.201   2.205   6.153 -0.4444 -0.2287 -0.2378
    1CHL1   H3'    4   3.169   2.296   6.153  0.5255  0.1715  1.6809
    1CHL1    C4    5   3.300   2.216   5.943 -0.1158 -0.3126  0.3584
    1CHL1   H4A    6   3.306   2.325   5.961 -1.6518 -0.5121  2.3713
    1CHL1   H4B    7   3.392   2.172   5.987 -0.3464 -2.6040 -1.2918
    1CHL1    C5    8   3.277   2.177   5.802  0.9874  0.5762  0.6914
    1CHL1    C6    9   3.368   2.096   5.733 -0.5668 -0.3170 -1.0231
    1CHL1    H6   10   3.466   2.075   5.779 -1.9644 -0.4894  2.1375
    1CHL1    C7   11   3.348   2.062   5.592 -0.2047 -0.3300 -0.1521
    1CHL1   H7A   12   3.442   2.089   5.540 -0.7346  1.3971 -0.2547
    1CHL1   H7B   13   3.312   1.958   5.574 -0.0274 -0.5240  0.5918
    1CHL1    C8   14   3.242   2.153   5.511  0.1255  0.0316 -0.5731
    1CHL1    H8   15   3.289   2.253   5.496  0.9576 -0.4876 -1.5093
    1CHL1   C14   16   3.209   2.094   5.379 -0.2935  0.0156  0.3505
    1CHL1   H14   17   3.165   1.996   5.409  0.5040 -0.3899  0.2154
    1CHL1   C15   18   3.317   2.049   5.285  1.6287 -0.3740  0.2534
    1CHL1  H15A   19   3.373   2.145   5.273  0.4481  0.3532  0.4111
    1CHL1  H15B   20   3.388   1.971   5.319  3.4898  1.9121  2.0168
    1CHL1   C16   21   3.240   2.022   5.150  1.2029 -0.4104 -0.5724
    1CHL1  H16A   22   3.294   2.085   5.076 -2.6720  2.0657 -1.5584
    1CHL1  H16B   23   3.241   1.916   5.115  0.6206 -0.6692  0.1662
    1CHL1   C17   24   3.092   2.079   5.175 -0.8061 -0.2203  0.1155
    1CHL1   H17   25   3.035   1.988   5.203  1.7364 -0.9404  3.4308
    1CHL1   C13   26   3.104   2.166   5.301  0.0781 -0.6765 -0.2129
    1CHL1   C18   27   3.153   2.311   5.270 -0.8557 -0.2974  0.1052
    1CHL1  H18A   28   3.245   2.325   5.208 -1.5531  0.7313 -0.7240
    1CHL1  H18B   29   3.075   2.363   5.211 -0.6716 -0.3932 -0.2248
    1CHL1  H18C   30   3.165   2.374   5.361 -0.2791 -1.0676  0.5704
    1CHL1   C12   31   2.970   2.168   5.385  0.0448 -0.5664 -0.2337
    1CHL1  H12A   32   2.892   2.228   5.333  1.6460  1.3732 -0.5375
    1CHL1  H12B   33   2.929   2.065   5.388 -0.6752 -0.3121 -0.9019
    1CHL1   C11   34   2.999   2.231   5.527  0.1355  0.0652  0.6393
    1CHL1  H11A   35   3.009   2.341   5.522 -1.3748  0.1875 -0.1999
    1CHL1  H11B   36   2.911   2.215   5.594 -1.0506  0.9108 -0.6721
    1CHL1    C9   37   3.114   2.161   5.596  0.1401  0.0893  0.0494
    1CHL1    H9   38   3.085   2.056   5.614 -2.7282  0.8175  0.1649
    1CHL1   C10   39   3.146   2.217   5.742  0.3753 -0.3443  0.0135
    1CHL1   C19   40   3.155   2.373   5.736  0.3654  0.5378  0.4559
    1CHL1  H19A   41   3.230   2.409   5.662  0.3523 -1.1113 -0.3984
    1CHL1  H19B   42   3.056   2.410   5.704  0.4932 -1.0862 -2.0809
    1CHL1  H19C   43   3.164   2.416   5.838 -0.5653  0.3866  0.6026
    1CHL1    C1   44   3.032   2.162   5.828 -0.9855  0.6176 -0.1571
    1CHL1   H1A   45   2.937   2.211   5.798 -0.7469  1.6623  0.7248
    1CHL1   H1B   46   3.014   2.056   5.801  2.0985  0.3388 -1.4011
    1CHL1    C2   47   3.046   2.177   5.977  0.2832  0.2098 -0.4425
    1CHL1   H2A   48   2.966   2.119   6.028 -1.4277  0.1051 -3.0469
    1CHL1   H2B   49   3.030   2.287   5.987  1.9120  0.6062 -1.7841
    1CHL1   C20   50   3.022   2.129   5.041  0.5153  0.3921 -0.0291
    1CHL1   H20   51   3.057   2.233   5.026 -0.4466  0.7722  0.2660
    1CHL1   C21   52   2.869   2.138   5.049  0.0788 -0.5897 -0.0272
    1CHL1  H21A   53   2.838   2.225   5.111 -1.2988 -0.4690 -0.8304
    1CHL1  H21B   54   2.821   2.051   5.100 -1.1723  1.0578  1.7664
    1CHL1  H21C   55   2.820   2.164   4.953  1.6461  1.3059 -0.3838
    1CHL1   C22   56   3.063   2.055   4.914  0.6141  0.2914 -0.3793
    1CHL1  H22A   57   3.173   2.048   4.896  1.0767  1.5872  1.5892
    1CHL1  H22B   58   3.021   1.953   4.917 -0.8998  0.9068  0.6897
    1CHL1   C23   59   3.027   2.132   4.787 -0.1520 -0.4626  0.1106
    1CHL1  H23A   60   2.919   2.153   4.772  0.2242  0.4800 -1.5927
    1CHL1  H23B   61   3.075   2.232   4.798 -0.6992 -0.0757 -0.8631
    1CHL1   C24   62   3.075   2.058   4.658  0.4191 -0.6414  0.3349
    1CHL1  H24A   63   3.185   2.062   4.644  0.8842 -3.4046  2.2432
    1CHL1  H24B   64   3.049   1.951   4.677 -2.9183 -0.1186 -0.5732
    1CHL1   C25   65   2.993   2.092   4.526 -0.1264 -0.1602  0.0316
    1CHL1   H25   66   2.884   2.092   4.544 -0.0294  2.1123  0.9995
    1CHL1   C26   67   3.039   2.231   4.484  0.4636 -0.5791 -0.2775
    1CHL1  H26A   68   2.960   2.286   4.429  0.2309  0.1735  0.7649
    1CHL1  H26B   69   3.062   2.292   4.574 -0.2731 -0.8294  0.0903
    1CHL1  H26C   70   3.139   2.236   4.437  1.1011 -0.1835  1.0643
    1CHL1   C27   71   3.017   1.987   4.412  0.3730  0.5009  0.4226
    1CHL1  H27A   72   2.969   1.892   4.442  1.6117  0.8700  4.0385
    1CHL1  H27B   73   2.999   2.026   4.309  0.7259  1.2717  0.6401
    1CHL1  H27C   74   3.124   1.960   4.422  0.1146 -1.9577 -2.2790
    2CHL1    C3   75   3.584   1.211   5.860  0.2448  0.1291  0.2054
    2CHL1    H3   76   3.482   1.170   5.875  0.3577 -0.0710  0.4368
    2CHL1    O3   77   3.634   1.247   5.985  0.5953  0.4012 -0.3778
    2CHL1   H3'   78   3.719   1.288   5.968  0.6847  2.2752  3.5103
    2CHL1    C4   79   3.677   1.112   5.789  0.3495  0.6823  0.1105
    2CHL1   H4A   80   3.783   1.146   5.797  1.1627 -1.9487  2.2043
    2CHL1   H4B   81   3.668   1.017   5.847 -1.9125  0.8005  0.0322
    2CHL1    C5   82   3.634   1.077   5.651  0.2477 -0.1334 -0.7991
    2CHL1    C6   83   3.616   0.945   5.613  0.4514 -0.1863  0.9512
    2CHL1    H6   84   3.632   0.860   5.682  1.3625  0.1592  1.1804
    2CHL1    C7   85   3.575   0.905   5.474  0.8303  0.0653 -0.5671
    2CHL1   H7A   86   3.638   0.821   5.439  0.1193 -0.4717 -0.5693
    2CHL1   H7B   87   3.467   0.879   5.475  1.0539 -1.3553  2.9114
    2CHL1    C8   88   3.609   1.026   5.375  0.9149 -0.5412 -0.0907
    2CHL1    H8   89   3.719   1.039   5.361  1.0795  0.6565  1.8589
    2CHL1   C14   90   3.552   1.019   5.234 -0.3303 -0.1239  0.1732
    2CHL1   H14   91   3.442   1.012   5.246 -0.1496 -0.0498  2.1852
    2CHL1   C15   92   3.607   0.900   5.156  0.3925  0.2146  0.2853
    2CHL1  H15A   93   3.718   0.897   5.159  0.3941 -2.1950  3.3529
    2CHL1  H15B   94   3.579   0.815   5.222 -0.3037 -0.6323 -1.0577
    2CHL1   C16   95   3.545   0.921   5.017 -0.0718 -0.2057  0.4600
    2CHL1  H16A   96   3.616   0.893   4.936  0.7157 -1.1662  1.4395
    2CHL1  H16B   97   3.451   0.863   5.026 -1.1742  1.4355 -0.2732
    2CHL1   C17   98   3.499   1.069   5.011 -0.4303  0.9400 -0.0414
    2CHL1   H17   99   3.392   1.082   5.039 -0.5773  0.1530 -0.2146
    2CHL1   C13  100   3.568   1.129   5.134  0.8026  0.3126  0.7919
    2CHL1   C18  101   3.720   1.160   5.115  0.5410  0.4641  0.1060
    2CHL1  H18A  102   3.772   1.162   5.213 -0.6946  0.2847  0.7752
    2CHL1  H18B  103   3.769   1.081   5.053 -0.6318  0.5541 -0.9584
    2CHL1  H18C  104   3.739   1.258   5.066  2.4864  0.4051  0.6502
    2CHL1   C12  105   3.489   1.255   5.200  0.5353 -0.1762  0.0644
    2CHL1  H12A  106   3.505   1.340   5.131 -0.0411 -1.9987 -2.4744
    2CHL1  H12B  107   3.382   1.228   5.219  0.4762 -1.1522 -1.4497
    2CHL1   C11  108   3.554   1.282   5.335  0.5596 -0.3163 -0.6293
    2CHL1  H11A  109   3.660   1.310   5.315  0.8567 -1.2094 -0.3701
    2CHL1  H11B  110   3.502   1.371   5.376 -0.0017 -0.4454 -1.0608
    2CHL1    C9  111   3.555   1.160   5.432  0.1992 -0.1753  0.0369
    2CHL1    H9  112   3.447   1.148   5.454 -0.1334  1.4422 -0.5775
    2CHL1   C10  113   3.621   1.205   5.569 -0.1923  0.2605  0.5198
    2CHL1   C19  114   3.756   1.265   5.541 -0.4533 -0.0862 -0.9926
    2CHL1  H19A  115   3.762   1.365   5.494 -2.5740 -0.8046 -3.0064
    2CHL1  H19B  116   3.812   1.268   5.636 -0.8251  0.0576 -0.7740
    2CHL1  H19C  117   3.811   1.200   5.470  0.8566  0.4904 -0.5257
    2CHL1    C1  118   3.527   1.309   5.631  0.5493 -0.1244  0.2421
    2CHL1   H1A  119   3.530   1.405   5.575  1.3648 -0.6898 -0.7175
    2CHL1   H1B  120   3.424   1.268   5.625  1.5013 -2.4836 -1.3272
    2CHL1    C2  121   3.567   1.344   5.775  0.5509 -0.3103  0.3214
    2CHL1   H2A  122   3.491   1.408   5.824 -1.4219 -0.4130 -2.3530
    2CHL1   H2B  123   3.665   1.397   5.770 -0.0234  1.0450  2.3129
    2CHL1   C20  124   3.507   1.134   4.872  0.0980  0.5672 -0.1346
    2CHL1   H20  125   3.615   1.147   4.850  0.8696  1.8107  3.6799
    2CHL1   C21  126   3.450   1.273   4.891 -0.8751 -0.6369  0.4671
    2CHL1  H21A  127   3.525   1.338   4.941 -1.4824  0.8815 -0.5521
    2CHL1  H21B  128   3.344   1.278   4.923 -0.8093 -0.0171  0.5845
    2CHL1  H21C  129   3.447   1.327   4.794  0.4460  1.2868  1.4358
    2CHL1   C22  130   3.422   1.051   4.771 -0.8743 -0.0459 -0.2250
    2CHL1  H22A  131   3.469   0.951   4.772  0.8779  0.7120 -1.7719
    2CHL1  H22B  132   3.314   1.045   4.799 -0.3140 -0.1757  2.0995
    2CHL1   C23  133   3.433   1.090   4.624 -0.5819 -1.0001  0.1675
    2CHL1  H23A  134   3.374   1.184   4.609  0.8394  0.1946  1.6645
    2CHL1  H23B  135   3.532   1.099   4.576 -1.5505  1.4494 -1.6092
    2CHL1   C24  136   3.353   0.991   4.528  0.0146 -0.1435 -0.0104
    2CHL1  H24A  137   3.404   0.893   4.535 -2.7208 -1.6771  0.1233
    2CHL1  H24B  138   3.255   0.988   4.582 -1.4985  2.0571 -2.3936
    2CHL1   C25  139   3.313   1.034   4.386  0.1142 -0.0303 -0.0136
    2CHL1   H25  140   3.294   0.941   4.328 -1.1756  1.1648 -1.6542
    2CHL1   C26  141   3.182   1.114   4.378  0.0583 -0.2670  0.5279
    2CHL1  H26A  142   3.197   1.217   4.417 -3.1663  0.3142  0.5334
    2CHL1  H26B  143   3.160   1.118   4.270  0.1402  0.9026  0.5386
    2CHL1  H26C  144   3.098   1.076   4.441  0.8707 -0.9812  1.1938
    2CHL1   C27  145   3.422   1.114   4.303  0.8076  0.4137  0.5264
    2CHL1  H27A  146   3.383   1.123   4.199 -0.6358 -0.6411  0.9295
    2CHL1  H27B  147   3.443   1.215   4.343 -0.3991  0.8099  0.2179
    2CHL1  H27C  148   3.513   1.051   4.302  0.7597  0.3413 -0.9523
    3CHL1    C3  149   3.616   2.824   5.820  0.1836  0.1759  0.0032
    3CHL1    H3  150   3.676   2.914   5.793 -1.2245  0.9083 -0.8190
    3CHL1    O3  151   3.579   2.852   5.953 -0.9561  0.1208 -0.0533
    3CHL1   H3'  152   3.548   2.942   5.960  0.5869  0.5856  1.6704
    3CHL1    C4  153   3.487   2.834   5.732  0.3591 -0.4608 -0.6094
    3CHL1   H4A  154   3.419   2.751   5.762 -0.8816 -0.2870 -2.7142
    3CHL1   H4B  155   3.425   2.925   5.744  0.5442 -0.2971 -0.8946
    3CHL1    C5  156   3.509   2.814   5.585 -0.0870  0.1500  0.5261
    3CHL1    C6  157   3.469   2.905   5.495 -0.5006  0.1557  0.0555
    3CHL1    H6  158   3.430   3.006   5.518 -1.7461 -0.4074  0.5091
    3CHL1    C7  159   3.484   2.880   5.340  0.8492 -0.4993 -0.5298
    3CHL1   H7A  160   3.390   2.903   5.286  0.5983 -0.6314 -0.1498
    3CHL1   H7B  161   3.556   2.956   5.304 -1.1114  2.2336  1.0262
    3CHL1    C8  162   3.529   2.740   5.304 -0.9480 -0.6507  0.4005
    3CHL1    H8  163   3.437   2.677   5.300 -1.0016 -0.5025 -1.8353
    3CHL1   C14  164   3.598   2.750   5.161  0.6508 -1.1545 -0.5021
    3CHL1   H14  165   3.681   2.822   5.170 -1.6738  1.6894 -0.3155
    3CHL1   C15  166   3.509   2.813   5.049  0.0378  0.0882 -0.4214
    3CHL1  H15A  167   3.408   2.772   5.072  1.4921 -3.7686  0.0016
    3CHL1  H15B  168   3.516   2.923   5.050 -0.1451  0.1026  0.6401
    3CHL1   C16  169   3.565   2.752   4.919 -0.5486 -0.2847 -0.1199
    3CHL1  H16A  170   3.490   2.705   4.852 -1.9780 -3.1101  3.1474
    3CHL1  H16B  171   3.607   2.831   4.853  0.5015  1.5949  2.6568
    3CHL1   C17  172   3.682   2.655   4.958 -0.0858 -0.6474  0.0473
    3CHL1   H17  173   3.779   2.708   4.969 -0.0153 -0.7599 -0.0228
    3CHL1   C13  174   3.647   2.619   5.105 -0.3525  0.5741  0.5654
    3CHL1   C18  175   3.530   2.519   5.105  0.8660  0.2397  0.5989
    3CHL1  H18A  176   3.486   2.495   5.205 -0.3794 -0.5900 -0.1236
    3CHL1  H18B  177   3.455   2.569   5.041 -0.3887 -0.4287  1.4964
    3CHL1  H18C  178   3.549   2.420   5.057 -1.9447  1.0928 -2.6310
    3CHL1   C12  179   3.758   2.585   5.199  0.0080 -0.1528 -0.7536
    3CHL1  H12A  180   3.805   2.486   5.181  1.0495  0.3387 -0.8006
    3CHL1  H12B  181   3.843   2.656   5.203  0.8265 -1.0418 -1.6168
    3CHL1   C11  182   3.711   2.570   5.351  0.0016 -0.2044 -0.0560
    3CHL1  H11A  183   3.641   2.484   5.339  0.2247 -0.2194 -1.4276
    3CHL1  H11B  184   3.796   2.549   5.418  0.3787  1.4965  0.0473
    3CHL1    C9  185   3.634   2.696   5.402 -0.0343 -1.2376  0.0069
    3CHL1    H9  186   3.707   2.779   5.392 -1.3378  0.1762  1.6325
    3CHL1   C10  187   3.584   2.686   5.551 -0.0952 -0.3187 -0.3232
    3CHL1   C19  188   3.490   2.566   5.566  0.3635  0.0835 -0.2753
    3CHL1  H19A  189   3.544   2.470   5.553 -0.2772 -0.1514 -1.3779
    3CHL1  H19B  190   3.446   2.558   5.667  0.5855  0.5690 -0.1362
    3CHL1  H19C  191   3.407   2.568   5.491 -1.2416  0.3806  1.4392
    3CHL1    C1  192   3.709   2.671   5.640 -0.7138  0.2791 -0.1851
    3CHL1   H1A  193   3.751   2.570   5.619 -0.0580  0.5811 -0.3645
    3CHL1   H1B  194   3.789   2.746   5.620 -0.3567  0.3967  1.4710
    3CHL1    C2  195   3.689   2.685   5.792 -0.0060 -0.0730  0.3295
    3CHL1   H2A  196   3.782   2.680   5.852  0.8322  0.8077 -0.8518
    3CHL1   H2B  197   3.617   2.614   5.839 -0.5938  1.1319  1.3102
    3CHL1   C20  198   3.695   2.552   4.847 -0.1689 -0.1285  0.0159
    3CHL1   H20  199   3.601   2.497   4.829 -0.4578 -0.0142  1.1213
    3CHL1   C21  200   3.790   2.438   4.894 -0.4641  0.7210  0.5052
    3CHL1  H21A  201   3.752   2.395   4.989 -1.6679 -0.5115 -0.4880
    3CHL1  H21B  202   3.889   2.488   4.906  0.8942 -1.5055 -0.7408
    3CHL1  H21C  203   3.787   2.360   4.815 -0.5937  0.2328  0.9873
    3CHL1   C22  204   3.738   2.618   4.715 -0.1102 -0.8973 -0.1509
    3CHL1  H22A  205   3.673   2.706   4.696  0.2601 -0.7940 -0.9578
    3CHL1  H22B  206   3.847   2.640   4.715  0.3458 -2.8890  1.0726
    3CHL1   C23  207   3.701   2.515   4.603 -0.4593 -0.2746 -0.7426
    3CHL1  H23A  208   3.763   2.424   4.616  0.0855  0.1980 -0.0101
    3CHL1  H23B  209   3.594   2.487   4.591 -0.6977  0.8559 -1.4198
    3CHL1   C24  210   3.746   2.570   4.466  0.0668 -0.0291  0.4039
    3CHL1  H24A  211   3.686   2.658   4.435  0.1176 -0.9475 -2.6714
    3CHL1  H24B  212   3.849   2.601   4.493  0.1531 -0.4043  0.5194
    3CHL1   C25  213   3.747   2.478   4.345  0.3293  0.9061  0.1456
    3CHL1   H25  214   3.825   2.400   4.358 -0.6538 -0.0276  0.5407
    3CHL1   C26  215   3.608   2.398   4.331 -0.5116 -0.1408  0.3110
    3CHL1  H26A  216   3.527   2.472   4.311 -1.5429 -1.6335 -1.3705
    3CHL1  H26B  217   3.603   2.319   4.252 -2.0737  1.5965 -1.4306
    3CHL1  H26C  218   3.589   2.344   4.426 -1.1931 -0.4500  0.0069
    3CHL1   C27  219   3.778   2.555   4.221 -0.0027  0.5742 -0.1271
    3CHL1  H27A  220   3.784   2.474   4.146 -2.3448 -0.8470  1.1071
    3CHL1  H27B  221   3.698   2.624   4.188 -0.6566 -1.0399 -2.0793
    3CHL1  H27C  222   3.871   2.608   4.251 -0.1089  0.5674  0.2245
    4CHL1    C3  223   2.409   1.419   6.472 -0.1241 -0.1244 -0.2587
    4CHL1    H3  224   2.298   1.420   6.471 -0.2381  3.3610  1.2521
    4CHL1    O3  225   2.454   1.413   6.611  0.0537  0.1269  0.2527
    4CHL1   H3'  226   2.542   1.376   6.618 -0.2872 -0.8103 -0.2583
    4CHL1    C4  227   2.458   1.293   6.398  0.4609  0.0748  0.4927
    4CHL1   H4A  228   2.567   1.278   6.414  0.2290 -2.5669 -0.0177
    4CHL1   H4B  229   2.407   1.210   6.451 -2.2095 -0.1506 -2.1680
    4CHL1    C5  230   2.433   1.284   6.246 -0.9150  0.1493 -0.0925
    4CHL1    C6  231   2.372   1.186   6.190  0.4288  0.4415 -0.1114
    4CHL1    H6  232   2.335   1.106   6.255  0.5341 -0.2415 -0.8802
    4CHL1    C7  233   2.335   1.193   6.041  0.0900  0.3077 -0.6450
    4CHL1   H7A  234   2.373   1.104   5.986 -0.3791  1.4637 -2.9592
    4CHL1   H7B  235   2.227   1.206   6.020 -0.0111  0.2821 -0.1414
    4CHL1    C8  236   2.403   1.305   5.956  0.0646 -0.0506  0.5021
    4CHL1    H8  237   2.503   1.266   5.928 -0.7171 -1.5671 -0.3470
    4CHL1   C14  238   2.332   1.334   5.821 -0.3562 -0.4796  0.5935
    4CHL1   H14  239   2.239   1.391   5.842 -1.6295 -2.4762  0.6649
    4CHL1   C15  240   2.293   1.209   5.732  0.5334  1.0770 -0.4179
    4CHL1  H15A  241   2.360   1.120   5.735  2.3176  2.2346 -3.0352
    4CHL1  H15B  242   2.202   1.175   5.786  2.5695  0.1096  2.7177
    4CHL1   C16  243   2.276   1.274   5.597 -0.1677  0.1058  0.2443
    4CHL1  H16A  244   2.352   1.226   5.532 -1.1773 -0.5849 -0.4487
    4CHL1  H16B  245   2.177   1.249   5.553 -0.7337 -1.6476  2.3391
    4CHL1   C17  246   2.315   1.428   5.605 -0.1048  0.2198 -0.2567
    4CHL1   H17  247   2.217   1.475   5.629 -0.8393 -1.6885  0.6785
    4CHL1   C13  248   2.405   1.428   5.732 -0.3920 -0.0607  0.0689
    4CHL1   C18  249   2.542   1.366   5.701 -0.3348  0.2098  0.5220
    4CHL1  H18A  250   2.538   1.275   5.639 -0.0122 -0.1934  1.0815
    4CHL1  H18B  251   2.597   1.435   5.633 -0.1304 -1.3217 -0.9071
    4CHL1  H18C  252   2.614   1.344   5.783  1.0151  1.0904 -0.3862
    4CHL1   C12  253   2.411   1.562   5.810  0.0570 -0.4556  0.3212
    4CHL1  H12A  254   2.469   1.633   5.747 -0.9487 -1.8783 -2.3729
    4CHL1  H12B  255   2.308   1.602   5.814 -0.3431 -1.4730  0.7503
    4CHL1   C11  256   2.478   1.552   5.949 -0.0607 -0.3472 -0.2157
    4CHL1  H11A  257   2.587   1.551   5.928 -0.2856 -1.7400 -1.4726
    4CHL1  H11B  258   2.450   1.645   6.002  0.5060  0.1787 -0.8294
    4CHL1    C9  259   2.413   1.438   6.030  0.2082  0.0442 -0.2066
    4CHL1    H9  260   2.306   1.466   6.041  0.0645  0.1517 -1.6894
    4CHL1   C10  261   2.479   1.423   6.173  0.2756 -0.7936 -0.5572
    4CHL1   C19  262   2.639   1.411   6.159  0.5234  0.5936 -0.2897
    4CHL1  H19A  263   2.663   1.513   6.121  0.7317  0.2795 -1.0276
    4CHL1  H19B  264   2.686   1.405   6.259 -0.9673 -0.3571  0.3886
    4CHL1  H19C  265   2.668   1.327   6.091  0.9504  2.4118 -2.4873
    4CHL1    C1  266   2.445   1.551   6.254 -0.0805  0.1058  0.0367
    4CHL1   H1A  267   2.496   1.636   6.205  0.5804  0.5402  1.4038
    4CHL1   H1B  268   2.338   1.558   6.226  0.3625 -1.2053 -2.2526
    4CHL1    C2  269   2.469   1.546   6.402  0.0750  1.1561 -0.5170
    4CHL1   H2A  270   2.432   1.638   6.452 -3.1221  0.6393 -1.6853
    4CHL1   H2B  271   2.579   1.539   6.417 -0.1352  0.7891  1.0023
    4CHL1   C20  272   2.369   1.491   5.474  0.5739  0.2016 -1.1268
    4CHL1   H20  273   2.461   1.437   5.443  1.9290  0.8870  1.3616
    4CHL1   C21  274   2.403   1.639   5.504  0.7741  0.2031 -0.1365
    4CHL1  H21A  275   2.428   1.702   5.415  2.0280 -0.7084 -0.4508
    4CHL1  H21B  276   2.494   1.647   5.566  1.3662  0.7640 -1.0534
    4CHL1  H21C  277   2.317   1.694   5.549 -0.3021 -0.9644 -0.6947
    4CHL1   C22  278   2.273   1.480   5.361 -0.3007 -0.4169  0.3873
    4CHL1  H22A  279   2.223   1.381   5.353  0.4047 -0.8882  1.5514
    4CHL1  H22B  280   2.209   1.570   5.367  3.1235  2.2263  0.6500
    4CHL1   C23  281   2.334   1.497   5.220  0.0767 -0.0263  0.5169
    4CHL1  H23A  282   2.382   1.596   5.204  0.0599 -0.2537 -1.1405
    4CHL1  H23B  283   2.414   1.421   5.216  0.6770  0.6166  0.0401
    4CHL1   C24  284   2.235   1.463   5.110  0.2960 -0.5062 -0.5744
    4CHL1  H24A  285   2.206   1.356   5.117  2.3221 -1.0370  0.6502
    4CHL1  H24B  286   2.140   1.521   5.118 -0.5070 -1.8577 -0.0306
    4CHL1   C25  287   2.286   1.487   4.972  0.2198 -0.3537 -0.6126
    4CHL1   H25  288   2.307   1.593   4.947 -0.4808  0.0936  0.6007
    4CHL1   C26  289   2.409   1.398   4.943  0.6685 -0.4147 -0.0934
    4CHL1  H26A  290   2.395   1.298   4.990  1.1106  0.2540  1.5113
    4CHL1  H26B  291   2.428   1.400   4.833 -0.7420  0.3914 -0.3399
    4CHL1  H26C  292   2.492   1.439   5.004 -1.7581  2.0234  1.7996
    4CHL1   C27  293   2.178   1.447   4.867 -0.5617  0.1729 -0.3631
    4CHL1  H27A  294   2.156   1.339   4.867 -1.6663  0.3749 -1.3818
    4CHL1  H27B  295   2.083   1.500   4.887 -0.5712  0.3492 -0.8606
    4CHL1  H27C  296   2.206   1.487   4.767 -0.3591  1.0479  0.0308
    5CHL1    C3  297   3.182   1.516   6.074  0.9014  0.9793  0.1567
    5CHL1    H3  298   3.281   1.562   6.094  0.5262  1.7800  0.1865
    5CHL1    O3  299   3.135   1.498   6.209 -0.1541 -0.6386  0.2741
    5CHL1   H3'  300   3.065   1.432   6.208 -0.2329 -0.5536 -0.1775
    5CHL1    C4  301   3.076   1.606   6.001 -0.2116  0.4618  0.4480
    5CHL1   H4A  302   2.972   1.573   6.022 -0.1361  0.3310  0.6217
    5CHL1   H4B  303   3.087   1.706   6.049 -2.6508  0.7344  0.5669
    5CHL1    C5  304   3.089   1.603   5.850  0.1807  0.7359 -0.0397
    5CHL1    C6  305   3.111   1.710   5.777 -0.7572 -0.0158  0.1112
    5CHL1    H6  306   3.131   1.808   5.823 -0.2724  0.8401 -1.7973
    5CHL1    C7  307   3.119   1.712   5.624 -0.1930 -0.4245  0.0656
    5CHL1   H7A  308   3.065   1.793   5.570 -1.5604 -1.7573 -0.6704
    5CHL1   H7B  309   3.225   1.709   5.591 -0.2356 -1.5666 -0.0072
    5CHL1    C8  310   3.055   1.585   5.556  0.7249  0.5570 -0.2171
    5CHL1    H8  311   2.944   1.583   5.555  0.7054 -0.7821  1.3587
    5CHL1   C14  312   3.093   1.571   5.408  0.0722 -0.2577  0.4120
    5CHL1   H14  313   3.201   1.550   5.420 -0.1062 -1.3515  0.2212
    5CHL1   C15  314   3.078   1.688   5.310  0.7342  0.1555  0.4207
    5CHL1  H15A  315   2.996   1.757   5.341  0.0376 -1.0968  1.4400
    5CHL1  H15B  316   3.167   1.749   5.337  0.2978  0.2920  1.6125
    5CHL1   C16  317   3.071   1.631   5.181 -0.2719  0.1645 -0.1811
    5CHL1  H16A  318   2.976   1.660   5.130  1.0254  1.5245 -1.9436
    5CHL1  H16B  319   3.144   1.685   5.117  0.3378  1.1307  1.2764
    5CHL1   C17  320   3.090   1.484   5.192  0.2826  0.5450 -0.2866
    5CHL1   H17  321   3.198   1.457   5.192  0.2827  0.5313 -1.0353
    5CHL1   C13  322   3.031   1.449   5.332 -0.8889  0.1401 -0.2827
    5CHL1   C18  323   2.871   1.448   5.334 -0.6506 -0.1511 -0.3719
    5CHL1  H18A  324   2.835   1.551   5.313  1.0789  0.7585  0.8583
    5CHL1  H18B  325   2.841   1.376   5.255  1.6306 -0.5714 -0.9240
    5CHL1  H18C  326   2.830   1.415   5.432  0.6229 -1.0756 -0.1279
    5CHL1   C12  327   3.090   1.324   5.398 -1.2489  0.4270  0.0773
    5CHL1  H12A  328   3.054   1.230   5.351  0.5847  0.0992 -0.7822
    5CHL1  H12B  329   3.198   1.308   5.378 -1.4378 -0.6962 -0.1198
    5CHL1   C11  330   3.062   1.324   5.553 -0.2971 -0.0282 -0.1583
    5CHL1  H11A  331   2.956   1.296   5.574  0.4571 -3.1492  0.0420
    5CHL1  H11B  332   3.119   1.245   5.608 -1.3412  0.0397  1.0879
    5CHL1    C9  333   3.097   1.453   5.631 -0.3511 -0.5284 -0.2072
    5CHL1    H9  334   3.208   1.463   5.620 -0.2281 -1.7522 -0.1752
    5CHL1   C10  335   3.073   1.460   5.790  0.3558 -0.7642  0.8520
    5CHL1   C19  336   2.931   1.410   5.814  0.2577 -0.2582 -0.4231
    5CHL1  H19A  337   2.859   1.471   5.755  0.4607  1.3261  0.9286
    5CHL1  H19B  338   2.925   1.302   5.789  3.2175 -0.7360  0.5302
    5CHL1  H19C  339   2.900   1.413   5.920 -1.2577 -0.7928 -0.8131
    5CHL1    C1  340   3.181   1.369   5.863 -0.6061 -0.2594  0.2333
    5CHL1   H1A  341   3.158   1.262   5.846  0.0580 -0.1760 -1.3144
    5CHL1   H1B  342   3.282   1.382   5.820 -1.2964 -0.3224 -1.4919
    5CHL1    C2  343   3.190   1.377   6.019  0.5715 -0.1720 -0.0196
    5CHL1   H2A  344   3.278   1.318   6.052 -0.1050  0.0861  2.4785
    5CHL1   H2B  345   3.098   1.327   6.056 -0.3702  1.3259 -0.2499
    5CHL1   C20  346   3.048   1.401   5.070 -0.2911 -0.0085  0.2122
    5CHL1   H20  347   2.939   1.383   5.060 -0.2241 -1.6486  1.8164
    5CHL1   C21  348   3.105   1.261   5.066  0.3103 -0.0651  0.1029
    5CHL1  H21A  349   3.078   1.214   4.969 -1.1874 -0.7706  0.8281
    5CHL1  H21B  350   3.052   1.192   5.136  0.4789 -1.6374 -1.2490
    5CHL1  H21C  351   3.214   1.248   5.085 -0.2303 -1.3461  2.8859
    5CHL1   C22  352   3.085   1.478   4.933 -0.0939 -0.6398 -0.2548
    5CHL1  H22A  353   3.043   1.581   4.935  0.7844 -0.2581  2.3599
    5CHL1  H22B  354   3.196   1.477   4.931 -0.0388 -0.5107  1.1375
    5CHL1   C23  355   3.023   1.417   4.814  0.3296  0.0613 -0.2194
    5CHL1  H23A  356   3.070   1.317   4.799 -2.3577 -1.3993  0.4398
    5CHL1  H23B  357   2.916   1.397   4.835  0.0932  0.1567 -1.2614
    5CHL1   C24  358   3.050   1.490   4.681  0.2424 -0.2605 -1.1452
    5CHL1  H24A  359   3.047   1.596   4.717 -0.7254 -1.3579  2.4175
    5CHL1  H24B  360   3.152   1.463   4.649  0.5520 -1.2582  0.5804
    5CHL1   C25  361   2.932   1.465   4.585  0.2773  0.3930  0.1872
    5CHL1   H25  362   2.904   1.358   4.595  0.0508  0.2497 -1.7279
    5CHL1   C26  363   2.802   1.541   4.624 -0.0117 -0.2792 -0.4660
    5CHL1  H26A  364   2.826   1.645   4.592  0.7874  0.6199  2.7172
    5CHL1  H26B  365   2.721   1.487   4.570 -0.1948 -0.5638  0.0915
    5CHL1  H26C  366   2.787   1.544   4.734  3.0765  1.7071  0.0239
    5CHL1   C27  367   2.962   1.493   4.445 -0.2246 -0.5998  0.6903
    5CHL1  H27A  368   3.064   1.470   4.406 -0.7776 -2.7107  0.3298
    5CHL1  H27B  369   2.888   1.439   4.382  0.3247  0.4473 -0.9097
    5CHL1  H27C  370   2.942   1.599   4.421  0.1218 -1.0503 -1.8483
    6CHL1    C3  371   1.863   5.052   6.071  0.6623  0.1309 -0.3395
    6CHL1    H3  372   1.779   4.979   6.075  0.1506  0.7421  0.3080
    6CHL1    O3  373   1.910   5.066   6.210  0.1757  0.1329 -0.1029
    6CHL1   H3'  374   1.828   5.067   6.259  0.4478  0.6395  0.3516
    6CHL1    C4  375   1.974   5.001   5.993  0.1084  0.3921  0.2064
    6CHL1   H4A  376   2.056   5.076   5.995 -2.8037  3.7908  0.1395
    6CHL1   H4B  377   2.002   4.901   6.033 -1.6003  1.0630  3.3498
    6CHL1    C5  378   1.933   4.974   5.852  0.8951 -0.3229  0.3036
    6CHL1    C6  379   1.936   4.851   5.799  0.5805 -0.1243  0.3178
    6CHL1    H6  380   1.976   4.762   5.850 -1.2581 -1.9301 -1.1973
    6CHL1    C7  381   1.894   4.816   5.656  0.9767  0.2434 -0.9836
    6CHL1   H7A  382   1.970   4.758   5.599 -0.2820  0.1452 -2.6308
    6CHL1   H7B  383   1.805   4.753   5.673  1.5389 -0.6737 -1.3591
    6CHL1    C8  384   1.863   4.941   5.569  1.1213 -0.4084  0.3527
    6CHL1    H8  385   1.960   4.986   5.542 -0.1188  2.3195  0.1320
    6CHL1   C14  386   1.784   4.902   5.440 -0.8239  0.2456 -0.3034
    6CHL1   H14  387   1.690   4.847   5.467  0.9899 -3.0302 -0.1623
    6CHL1   C15  388   1.849   4.800   5.353  0.5703  0.0374 -0.3831
    6CHL1  H15A  389   1.952   4.836   5.330 -0.3791  2.7771 -0.8038
    6CHL1  H15B  390   1.843   4.699   5.399 -2.0247 -0.7647 -2.2444
    6CHL1   C16  391   1.764   4.813   5.228  0.2354 -0.1896 -0.0417
    6CHL1  H16A  392   1.836   4.815   5.143 -0.2649 -1.2305 -0.5107
    6CHL1  H16B  393   1.695   4.729   5.209 -0.3013  0.3438 -0.5328
    6CHL1   C17  394   1.684   4.956   5.226 -0.1230  0.2679 -0.2966
    6CHL1   H17  395   1.576   4.948   5.250  0.4728  1.2585  3.2354
    6CHL1   C13  396   1.749   5.021   5.347 -0.4235 -0.8791 -0.0681
    6CHL1   C18  397   1.878   5.103   5.302  0.1070 -0.1376  0.2436
    6CHL1  H18A  398   1.931   5.069   5.210  2.8886  1.5490  1.1044
    6CHL1  H18B  399   1.843   5.206   5.281  0.3058  0.0310  0.7338
    6CHL1  H18C  400   1.953   5.113   5.382 -0.2056  1.4352  0.3643
    6CHL1   C12  401   1.658   5.109   5.435 -0.0801  0.1581 -0.4656
    6CHL1  H12A  402   1.626   5.195   5.372  0.5539  0.5804 -0.2270
    6CHL1  H12B  403   1.566   5.050   5.453  1.3461 -2.2407 -0.6748
    6CHL1   C11  404   1.721   5.162   5.562  0.0487 -0.3015  0.0837
    6CHL1  H11A  405   1.802   5.230   5.528 -1.3179  0.3932 -1.9861
    6CHL1  H11B  406   1.641   5.215   5.619 -1.8186 -1.3578 -1.4242
    6CHL1    C9  407   1.782   5.046   5.650 -0.2154  0.1621 -0.5557
    6CHL1    H9  408   1.694   4.989   5.688 -0.1095  0.2176 -0.2276
    6CHL1   C10  409   1.861   5.097   5.778 -0.4679 -0.5585 -0.0903
    6CHL1   C19  410   1.987   5.190   5.736  0.2726 -0.5169 -0.1296
    6CHL1  H19A  411   2.043   5.225   5.825  0.1648 -0.5310 -0.0565
    6CHL1  H19B  412   2.059   5.132   5.675 -0.3898 -2.5840  0.9602
    6CHL1  H19C  413   1.961   5.276   5.670 -0.5994 -1.0896 -0.5497
    6CHL1    C1  414   1.764   5.175   5.876  0.7835 -0.3074 -0.2021
    6CHL1   H1A  415   1.748   5.276   5.833 -1.2024 -0.8855 -0.9369
    6CHL1   H1B  416   1.666   5.122   5.880  0.8033 -0.3912 -0.7060
    6CHL1    C2  417   1.811   5.189   6.027  0.3060 -0.1895 -0.3257
    6CHL1   H2A  418   1.725   5.221   6.089  0.5742 -2.2394  1.1862
    6CHL1   H2B  419   1.892   5.264   6.040 -1.6042  1.6469  1.7699
    6CHL1   C20  420   1.684   5.014   5.090  0.5212 -1.0299  0.4213
    6CHL1   H20  421   1.787   5.037   5.055 -0.0795  0.4966 -0.4426
    6CHL1   C21  422   1.607   5.146   5.089 -0.1012 -0.8766 -0.0863
    6CHL1  H21A  423   1.497   5.134   5.099 -0.2715 -0.4533 -1.2369
    6CHL1  H21B  424   1.622   5.202   4.993  0.6093  0.2524  0.6585
    6CHL1  H21C  425   1.636   5.218   5.169  0.5546 -3.2045  1.8576
    6CHL1   C22  426   1.618   4.919   4.981 -0.4246  0.2541  0.8366
    6CHL1  H22A  427   1.692   4.836   4.975 -0.1639  0.5833 -1.6103
    6CHL1  H22B  428   1.519   4.878   5.009 -1.5768  3.9205  2.7390
    6CHL1   C23  429   1.612   5.004   4.849  0.2902  0.2525  0.1014
    6CHL1  H23A  430   1.537   5.086   4.852  2.5586  2.4580  0.1950
    6CHL1  H23B  431   1.707   5.061   4.840  0.0042  0.5103 -1.7666
    6CHL1   C24  432   1.589   4.914   4.720 -0.5217 -0.5849  0.4117
    6CHL1  H24A  433   1.656   4.826   4.735 -1.4800 -1.5507 -0.7967
    6CHL1  H24B  434   1.487   4.871   4.716 -0.0211 -1.7432 -0.5839
    6CHL1   C25  435   1.621   4.973   4.582 -0.5539 -0.4220 -0.9796
    6CHL1   H25  436   1.723   5.015   4.573  0.1906 -1.8278  0.4176
    6CHL1   C26  437   1.625   4.860   4.485 -0.1071  0.0138 -0.3816
    6CHL1  H26A  438   1.632   4.891   4.379 -0.1309 -2.3056 -1.1157
    6CHL1  H26B  439   1.713   4.796   4.501 -0.2081 -0.7020 -2.3849
    6CHL1  H26C  440   1.534   4.796   4.482  1.8214 -2.9702  0.6038
    6CHL1   C27  441   1.505   5.070   4.547 -1.0261 -0.0642  0.0677
    6CHL1  H27A  442   1.486   5.125   4.642  2.7227 -1.5341  1.8820
    6CHL1  H27B  443   1.525   5.125   4.453  0.8296 -1.1763 -0.2428
    6CHL1  H27C  444   1.413   5.009   4.531 -1.6311  1.3080 -2.1216
    7CHL1    C3  445   2.521   6.147   5.930  0.7720  0.0561 -0.2752
    7CHL1    H3  446   2.573   6.236   5.889  0.1120  0.2071 -0.7943
    7CHL1    O3  447   2.516   6.145   6.077  0.1650  0.1140  0.0562
    7CHL1   H3'  448   2.505   6.236   6.106  0.6022  0.3482 -0.4910
    7CHL1    C4  449   2.374   6.146   5.876 -0.2557 -0.3671 -0.2537
    7CHL1   H4A  450   2.332   6.055   5.925 -0.1777 -0.3228 -0.1024
    7CHL1   H4B  451   2.322   6.236   5.916 -1.2153 -0.6849 -0.7594
    7CHL1    C5  452   2.358   6.145   5.728 -0.3664  0.0115  0.0067
    7CHL1    C6  453   2.285   6.240   5.665 -0.9591 -0.2760 -0.2473
    7CHL1    H6  454   2.231   6.317   5.721 -1.7359 -0.1338 -1.1594
    7CHL1    C7  455   2.284   6.241   5.511 -0.0405 -0.4567 -0.0047
    7CHL1   H7A  456   2.186   6.276   5.472 -0.2880 -0.6431  0.4480
    7CHL1   H7B  457   2.345   6.323   5.468 -2.3333  0.3092 -2.0951
    7CHL1    C8  458   2.321   6.106   5.447  0.5606 -0.1913  0.4575
    7CHL1    H8  459   2.242   6.030   5.467 -0.7834  1.0910  0.2318
    7CHL1   C14  460   2.330   6.123   5.297 -0.2013  0.7577 -0.3314
    7CHL1   H14  461   2.415   6.194   5.288 -1.0290  2.3146  2.7298
    7CHL1   C15  462   2.214   6.185   5.219 -0.0548 -0.2979  0.2279
    7CHL1  H15A  463   2.124   6.132   5.258  0.6724 -1.1037  0.8542
    7CHL1  H15B  464   2.211   6.295   5.236 -0.7639 -0.4006  0.8287
    7CHL1   C16  465   2.241   6.135   5.072 -0.2282 -0.4387  0.5663
    7CHL1  H16A  466   2.165   6.061   5.041  1.2850 -2.0433  0.5078
    7CHL1  H16B  467   2.244   6.225   5.006 -0.2069  0.3772  1.6491
    7CHL1   C17  468   2.378   6.059   5.077  0.0017  0.1902 -0.2859
    7CHL1   H17  469   2.458   6.135   5.069  1.0317 -1.0781 -3.1935
    7CHL1   C13  470   2.375   5.994   5.219 -0.1847  0.2375  0.1810
    7CHL1   C18  471   2.270   5.881   5.233  0.2479  0.1156  0.2231
    7CHL1  H18A  472   2.170   5.919   5.203 -0.7436 -1.0871  1.8162
    7CHL1  H18B  473   2.305   5.790   5.180  0.4035  0.0887  0.3708
    7CHL1  H18C  474   2.262   5.845   5.338 -0.1264 -0.8854 -0.1433
    7CHL1   C12  475   2.513   5.959   5.278 -0.7881  0.4736  0.6008
    7CHL1  H12A  476   2.550   5.863   5.236  1.8711  1.3482  0.7513
    7CHL1  H12B  477   2.581   6.042   5.251  0.5656  0.0255  2.4039
    7CHL1   C11  478   2.511   5.940   5.428 -0.1061 -0.5595  0.2083
    7CHL1  H11A  479   2.446   5.852   5.449 -1.2660 -0.0556 -1.1230
    7CHL1  H11B  480   2.612   5.912   5.466  0.0021 -0.9468 -0.3612
    7CHL1    C9  481   2.455   6.066   5.507  0.1653  0.9618 -0.3621
    7CHL1    H9  482   2.527   6.147   5.481 -0.3571  0.9596 -1.9457
    7CHL1   C10  483   2.447   6.036   5.662  0.0947  0.5034 -0.3838
    7CHL1   C19  484   2.374   5.899   5.694  0.5694  0.2416  0.3187
    7CHL1  H19A  485   2.267   5.890   5.665  0.7458 -0.8346 -0.0181
    7CHL1  H19B  486   2.437   5.816   5.657  1.0784  0.0060  1.6684
    7CHL1  H19C  487   2.365   5.884   5.803 -0.0303  0.8926  0.3631
    7CHL1    C1  488   2.590   6.020   5.721  0.1801 -0.2607 -1.0674
    7CHL1   H1A  489   2.633   5.930   5.672 -0.6843 -1.8969  1.0238
    7CHL1   H1B  490   2.649   6.106   5.683  0.1014  1.0009  1.4440
    7CHL1    C2  491   2.596   6.023   5.877 -0.1913  0.6675 -0.3351
    7CHL1   H2A  492   2.703   6.017   5.906 -0.7729  0.6084  1.9653
    7CHL1   H2B  493   2.553   5.929   5.918  2.3155 -0.7649 -0.7226
    7CHL1   C20  494   2.397   5.954   4.962 -0.0027 -0.0411 -0.4176
    7CHL1   H20  495   2.316   5.879   4.973 -1.3774  1.4930  0.3507
    7CHL1   C21  496   2.536   5.885   4.968  0.3633  0.0653 -0.4756
    7CHL1  H21A  497   2.612   5.964   4.984  1.2194 -0.9387  0.5682
    7CHL1  H21B  498   2.549   5.839   4.868 -0.7515 -1.1813 -0.0825
    7CHL1  H21C  499   2.543   5.801   5.041 -0.7676  1.7469  1.7202
    7CHL1   C22  500   2.367   6.015   4.824  0.5308  0.2982 -0.4918
    7CHL1  H22A  501   2.379   5.937   4.746  2.5589 -1.1593  1.1640
    7CHL1  H22B  502   2.258   6.037   4.824  0.2586 -0.7720  1.9002
    7CHL1   C23  503   2.454   6.135   4.777 -0.1830  0.2956  0.1975
    7CHL1  H23A  504   2.475   6.220   4.844  2.0756  0.0975 -0.2016
    7CHL1  H23B  505   2.559   6.100   4.771  0.9853  3.6003 -0.9955
    7CHL1   C24  506   2.400   6.184   4.631 -0.0019  0.3024  0.4918
    7CHL1  H24A  507   2.398   6.087   4.577  0.9945 -0.7379  2.2206
    7CHL1  H24B  508   2.300   6.227   4.652  0.9664  2.0980  1.6726
    7CHL1   C25  509   2.484   6.273   4.551  0.0120 -0.2131 -0.2034
    7CHL1   H25  510   2.450   6.297   4.448  1.9076  3.6400 -0.0998
    7CHL1   C26  511   2.493   6.410   4.627  0.2955 -0.7167 -0.5648
    7CHL1  H26A  512   2.496   6.397   4.738 -0.0792  2.5046 -0.1030
    7CHL1  H26B  513   2.588   6.449   4.587 -0.2091  0.1314 -0.9530
    7CHL1  H26C  514   2.416   6.486   4.600 -0.7388 -1.4792  0.1285
    7CHL1   C27  515   2.621   6.218   4.529 -0.6233  0.2452  0.1468
    7CHL1  H27A  516   2.679   6.205   4.623  1.2504 -0.7331 -1.0872
    7CHL1  H27B  517   2.613   6.117   4.483  1.2220  0.4456 -0.6902
    7CHL1  H27C  518   2.681   6.275   4.454 -2.6197  1.9446 -0.2618
    8CHL1    C3  519   2.747   2.367   6.199  0.2271 -0.3136 -0.2993
    8CHL1    H3  520   2.835   2.319   6.151  0.9515  1.1400 -0.4946
    8CHL1    O3  521   2.765   2.390   6.339 -0.7739  0.3996 -0.1664
    8CHL1   H3'  522   2.680   2.396   6.382 -1.3714 -1.8606 -0.8851
    8CHL1    C4  523   2.732   2.495   6.113 -0.8739 -0.2216 -0.5921
    8CHL1   H4A  524   2.653   2.547   6.171 -1.7388 -3.3161  1.2757
    8CHL1   H4B  525   2.833   2.540   6.125 -0.7012  0.0134 -2.5663
    8CHL1    C5  526   2.703   2.466   5.968  0.5668 -0.3188 -0.0098
    8CHL1    C6  527   2.796   2.504   5.874 -0.1032 -0.2321  0.1195
    8CHL1    H6  528   2.896   2.542   5.902 -0.6949  1.2831  0.3228
    8CHL1    C7  529   2.767   2.482   5.726  0.2670 -0.0136  0.0771
    8CHL1   H7A  530   2.786   2.581   5.680  0.3572 -0.3834 -0.6954
    8CHL1   H7B  531   2.837   2.415   5.671 -0.7255  0.9287 -2.4400
    8CHL1    C8  532   2.622   2.451   5.689 -0.0525  1.0430 -0.5304
    8CHL1    H8  533   2.570   2.547   5.710  0.9255  1.0352  2.3997
    8CHL1   C14  534   2.607   2.407   5.537 -0.4760 -0.0635  0.5519
    8CHL1   H14  535   2.656   2.308   5.531 -1.3155 -0.4057 -1.0159
    8CHL1   C15  536   2.681   2.486   5.427 -0.1429 -0.3896  0.4871
    8CHL1  H15A  537   2.652   2.592   5.443 -2.7665 -1.1247  1.0863
    8CHL1  H15B  538   2.790   2.466   5.427 -0.0304  0.2157  0.1270
    8CHL1   C16  539   2.610   2.441   5.303 -0.4143 -0.8228  0.1319
    8CHL1  H16A  540   2.563   2.530   5.255  0.8517 -0.6006 -0.7451
    8CHL1  H16B  541   2.679   2.402   5.225 -0.6961  0.3660 -0.7569
    8CHL1   C17  542   2.497   2.346   5.341 -0.0390  0.0888 -0.2444
    8CHL1   H17  543   2.540   2.243   5.338 -0.6752 -0.1821 -2.3805
    8CHL1   C13  544   2.469   2.385   5.494  0.1697 -0.8643  0.6183
    8CHL1   C18  545   2.388   2.524   5.495 -0.2016 -0.7857  0.3147
    8CHL1  H18A  546   2.435   2.597   5.426 -0.3113 -1.4966 -0.5281
    8CHL1  H18B  547   2.287   2.508   5.453  0.0280  1.4547 -1.2560
    8CHL1  H18C  548   2.389   2.574   5.594 -0.2740  0.0873 -0.1187
    8CHL1   C12  549   2.402   2.283   5.587  0.4818 -0.1295  0.0079
    8CHL1  H12A  550   2.297   2.264   5.556  0.0372  0.1606  1.2821
    8CHL1  H12B  551   2.451   2.184   5.571 -1.2906 -0.9952 -0.2818
    8CHL1   C11  552   2.410   2.306   5.737 -0.1077  0.6212 -0.3265
    8CHL1  H11A  553   2.353   2.397   5.766 -0.9481  0.0958 -0.3156
    8CHL1  H11B  554   2.384   2.218   5.800  2.0229  0.6923  0.7491
    8CHL1    C9  555   2.558   2.348   5.788 -0.1536 -0.0876 -0.8244
    8CHL1    H9  556   2.618   2.256   5.769  2.1828  1.0364  0.5841
    8CHL1   C10  557   2.571   2.395   5.933  0.1299  0.1296  0.2910
    8CHL1   C19  558   2.458   2.488   5.971  0.0673  0.5096 -0.5501
    8CHL1  H19A  559   2.461   2.510   6.079 -1.4939 -0.9340 -0.1608
    8CHL1  H19B  560   2.460   2.578   5.905  2.7274 -0.1352 -1.4597
    8CHL1  H19C  561   2.362   2.432   5.961  0.4067  0.0932 -1.6778
    8CHL1    C1  562   2.577   2.269   6.030  0.4041 -0.3608 -1.4754
    8CHL1   H1A  563   2.478   2.219   6.024 -0.8188  2.0444 -2.5707
    8CHL1   H1B  564   2.656   2.202   5.987  0.0621 -1.2038 -0.8209
    8CHL1    C2  565   2.611   2.295   6.182 -0.2460  0.3798  0.3655
    8CHL1   H2A  566   2.618   2.193   6.226 -1.4146 -0.0679 -0.4130
    8CHL1   H2B  567   2.530   2.351   6.233 -0.3941  0.7820 -0.2919
    8CHL1   C20  568   2.387   2.341   5.235  0.0063  0.6462  0.1063
    8CHL1   H20  569   2.359   2.446   5.212 -2.6036  0.1140  0.5212
    8CHL1   C21  570   2.262   2.272   5.292 -0.4293 -0.4000 -0.0465
    8CHL1  H21A  571   2.226   2.318   5.387 -0.8469  1.2705 -0.9603
    8CHL1  H21B  572   2.277   2.166   5.320 -0.3401 -1.7106 -4.3315
    8CHL1  H21C  573   2.183   2.275   5.214  1.2734  2.7104 -1.8744
    8CHL1   C22  574   2.425   2.289   5.096 -0.6006 -0.3281 -0.2554
    8CHL1  H22A  575   2.530   2.323   5.084 -0.6800 -0.0273 -0.1068
    8CHL1  H22B  576   2.444   2.179   5.089  1.1708 -0.0576 -0.0441
    8CHL1   C23  577   2.331   2.322   4.978 -0.0298 -0.4435  0.0449
    8CHL1  H23A  578   2.252   2.244   4.985  0.8391 -1.3667 -0.2893
    8CHL1  H23B  579   2.288   2.424   4.988 -1.7547 -1.2536  1.4847
    8CHL1   C24  580   2.404   2.305   4.844  0.6417 -0.2736  0.2113
    8CHL1  H24A  581   2.499   2.360   4.858  2.0462 -2.9267  1.8312
    8CHL1  H24B  582   2.432   2.202   4.815 -1.6573 -0.7766 -0.5016
    8CHL1   C25  583   2.329   2.356   4.718  0.2621 -1.1460 -0.0023
    8CHL1   H25  584   2.298   2.460   4.745 -0.8389 -1.4535 -0.0421
    8CHL1   C26  585   2.433   2.367   4.596  0.2900 -1.0219 -0.0893
    8CHL1  H26A  586   2.496   2.458   4.607 -0.6790 -0.6845  4.2867
    8CHL1  H26B  587   2.508   2.286   4.597  1.2838 -0.1203  1.0079
    8CHL1  H26C  588   2.379   2.371   4.499 -0.3481 -0.3445  0.2850
    8CHL1   C27  589   2.210   2.273   4.692  0.6512 -0.1992 -0.1415
    8CHL1  H27A  590   2.163   2.313   4.600  1.7561  3.3626  0.7217
    8CHL1  H27B  591   2.234   2.165   4.676  0.6181 -0.1471 -0.5523
    8CHL1  H27C  592   2.132   2.279   4.771  0.8425  0.8526 -0.0202
    9CHL1    C3  593   5.300   1.890   5.727  0.6951  0.2153 -0.4689
    9CHL1    H3  594   5.230   1.973   5.703 -0.4493 -0.7889 -0.6802
    9CHL1    O3  595   5.251   1.812   5.838  0.0400 -0.4894 -1.1050
    9CHL1   H3'  596   5.166   1.775   5.812 -1.5296  1.4502  0.9562
    9CHL1    C4  597   5.299   1.799   5.602  0.1920 -0.3601  1.1046
    9CHL1   H4A  598   5.357   1.708   5.630  3.0301  0.9037 -0.2309
    9CHL1   H4B  599   5.195   1.772   5.575  0.5169 -0.1234 -0.4784
    9CHL1    C5  600   5.370   1.853   5.477 -0.1871  0.1211 -0.4909
    9CHL1    C6  601   5.294   1.866   5.365  0.4520  0.2456  0.4684
    9CHL1    H6  602   5.189   1.837   5.357  0.3935  0.1678  1.4355
    9CHL1    C7  603   5.350   1.919   5.239  0.7793  0.8355  0.2128
    9CHL1   H7A  604   5.335   1.845   5.158  0.6089  0.8692  0.2136
    9CHL1   H7B  605   5.308   2.019   5.212  0.6963  1.7240  3.2509
    9CHL1    C8  606   5.501   1.928   5.236 -0.5322  0.5308 -0.2061
    9CHL1    H8  607   5.546   1.827   5.227  0.9637  0.9191  2.2237
    9CHL1   C14  608   5.545   2.024   5.128 -0.3691  0.5130  0.0578
    9CHL1   H14  609   5.505   2.121   5.165 -0.7172 -0.1351  1.4537
    9CHL1   C15  610   5.486   1.999   4.987 -0.2602  0.0230  0.5712
    9CHL1  H15A  611   5.488   1.890   4.964  1.0955  0.3850 -1.2475
    9CHL1  H15B  612   5.382   2.037   4.995 -0.3120 -0.0890  0.4189
    9CHL1   C16  613   5.559   2.081   4.894  0.0557 -0.2818 -0.3460
    9CHL1  H16A  614   5.582   2.010   4.812 -1.7480 -0.0189 -1.1255
    9CHL1  H16B  615   5.513   2.175   4.857  1.2710  0.0834 -0.9901
    9CHL1   C17  616   5.694   2.120   4.970 -0.7505  0.0602  0.0827
    9CHL1   H17  617   5.680   2.222   5.010  3.4116  0.5700  0.7011
    9CHL1   C13  618   5.700   2.037   5.103 -0.1935  0.0137  0.0363
    9CHL1   C18  619   5.765   1.902   5.072  0.2157  0.5652  0.4171
    9CHL1  H18A  620   5.749   1.842   5.165  0.3628  1.3081  0.9331
    9CHL1  H18B  621   5.728   1.850   4.982  1.5060  1.0176 -0.4000
    9CHL1  H18C  622   5.876   1.906   5.073  0.2420  0.5462 -1.1851
    9CHL1   C12  623   5.746   2.108   5.232 -0.6218 -0.6266 -0.3665
    9CHL1  H12A  624   5.851   2.140   5.243 -1.5214  2.0227  1.7123
    9CHL1  H12B  625   5.680   2.198   5.228 -0.6926 -0.6017  0.8925
    9CHL1   C11  626   5.707   2.026   5.364  0.4473 -0.6453 -0.9418
    9CHL1  H11A  627   5.779   1.941   5.364 -0.2725 -1.3029  0.6564
    9CHL1  H11B  628   5.751   2.082   5.449  1.0287  0.1497 -1.7434
    9CHL1    C9  629   5.556   1.983   5.375 -0.3101 -0.5097  0.4400
    9CHL1    H9  630   5.506   2.082   5.382  0.9383  0.0822  1.3698
    9CHL1   C10  631   5.515   1.902   5.496 -0.7370 -0.0989 -0.0720
    9CHL1   C19  632   5.603   1.777   5.513 -0.0300  0.0411  0.8494
    9CHL1  H19A  633   5.560   1.716   5.595  0.0152 -0.3185  0.6082
    9CHL1  H19B  634   5.594   1.720   5.418 -2.1432 -0.6695  1.4259
    9CHL1  H19C  635   5.712   1.794   5.527  0.3370 -1.2683 -0.1595
    9CHL1    C1  636   5.520   1.988   5.631  0.7779 -0.4942 -0.3771
    9CHL1   H1A  637   5.627   2.001   5.658 -0.2313  0.0073  4.1016
    9CHL1   H1B  638   5.489   2.092   5.609  1.4981 -0.2319 -0.1847
    9CHL1    C2  639   5.447   1.930   5.757 -0.2185 -0.1463  0.4924
    9CHL1   H2A  640   5.447   1.998   5.844 -1.1423 -1.9426  1.9558
    9CHL1   H2B  641   5.500   1.840   5.795 -0.3977 -1.1775 -1.5668
    9CHL1   C20  642   5.819   2.126   4.880 -0.5979 -0.1393  0.2788
    9CHL1   H20  643   5.842   2.021   4.850  0.1074 -0.1292  0.7575
    9CHL1   C21  644   5.940   2.182   4.961  0.4180 -0.1464 -0.0383
    9CHL1  H21A  645   6.035   2.186   4.904  0.1306 -0.2692 -0.5254
    9CHL1  H21B  646   5.958   2.125   5.055 -2.5335 -0.2176  0.5994
    9CHL1  H21C  647   5.917   2.281   5.005  1.7649 -0.7866  2.2950
    9CHL1   C22  648   5.786   2.210   4.756  0.3334 -0.0798  0.4113
    9CHL1  H22A  649   5.703   2.163   4.698  0.2517 -0.2636  0.6787
    9CHL1  H22B  650   5.760   2.309   4.799 -0.6455  0.2813 -0.9302
    9CHL1   C23  651   5.889   2.222   4.649 -0.1225 -0.1784  0.5952
    9CHL1  H23A  652   5.981   2.275   4.680  0.4714 -0.3508 -0.7800
    9CHL1  H23B  653   5.925   2.123   4.615  1.7670  0.7836 -0.3939
    9CHL1   C24  654   5.836   2.296   4.525 -0.2008 -0.1102  0.8685
    9CHL1  H24A  655   5.923   2.311   4.457 -0.0434  0.8820  1.2657
    9CHL1  H24B  656   5.754   2.233   4.485  0.9018 -0.7510 -0.4537
    9CHL1   C25  657   5.780   2.434   4.540  0.8317  0.1458  0.3508
    9CHL1   H25  658   5.687   2.429   4.601  0.4134 -0.9512 -0.3393
    9CHL1   C26  659   5.887   2.526   4.599  0.1117  0.6564 -0.3964
    9CHL1  H26A  660   5.917   2.491   4.700  2.5505  0.0954 -1.2337
    9CHL1  H26B  661   5.978   2.521   4.534  0.5921  3.0455  0.0032
    9CHL1  H26C  662   5.861   2.634   4.607 -1.1147  0.2634  1.3703
    9CHL1   C27  663   5.730   2.481   4.402  0.1394 -0.3326  0.4756
    9CHL1  H27A  664   5.814   2.500   4.332  0.8230  0.7046  1.5535
    9CHL1  H27B  665   5.655   2.414   4.354  0.0277 -0.3565  0.6810
    9CHL1  H27C  666   5.683   2.580   4.418  1.8991  0.7760 -0.8743
   10CHL1    C3  667   1.386   1.695   6.349  0.0437 -0.6753 -0.5701
   10CHL1    H3  668   1.397   1.795   6.302  1.3435 -1.0380 -1.0967
   10CHL1    O3  669   1.410   1.699   6.491  0.0871 -0.3074  0.4040
   10CHL1   H3'  670   1.383   1.617   6.533 -2.4586 -0.1237 -0.6792
   10CHL1    C4  671   1.254   1.624   6.327  0.1278  0.2427  0.0534
   10CHL1   H4A  672   1.248   1.525   6.378 -0.4857 -1.2429 -2.6853
   10CHL1   H4B  673   1.162   1.680   6.355 -0.8442 -0.9534 -0.6543
   10CHL1    C5  674   1.232   1.602   6.174 -0.2642 -0.4579  0.1732
   10CHL1    C6  675   1.129   1.662   6.112 -1.0550  0.0056  0.3335
   10CHL1    H6  676   1.063   1.716   6.181 -0.8930 -1.2263  1.4788
   10CHL1    C7  677   1.116   1.660   5.965  0.0742  0.7278  0.6826
   10CHL1   H7A  678   1.010   1.654   5.931  0.4056  0.6928 -0.3692
   10CHL1   H7B  679   1.143   1.758   5.920 -1.1202  0.2308 -1.2210
   10CHL1    C8  680   1.194   1.548   5.895  0.3833 -0.0973 -0.0244
   10CHL1    H8  681   1.158   1.452   5.937  2.2619 -1.0355 -0.4332
   10CHL1   C14  682   1.188   1.544   5.742  0.2481 -0.2613  0.4959
   10CHL1   H14  683   1.230   1.638   5.700  3.0358 -2.3315 -1.7194
   10CHL1   C15  684   1.046   1.527   5.681  0.4603 -0.4387  0.2215
   10CHL1  H15A  685   1.003   1.439   5.735  0.3850  1.2188  3.0618
   10CHL1  H15B  686   0.980   1.616   5.687  1.3321  0.1667  0.9855
   10CHL1   C16  687   1.080   1.495   5.536  0.2700 -0.3418  0.3099
   10CHL1  H16A  688   1.017   1.408   5.506 -1.8650 -0.1307  3.5992
   10CHL1  H16B  689   1.062   1.586   5.476  3.8198  0.6439  0.4865
   10CHL1   C17  690   1.235   1.460   5.522  0.0493 -0.3244 -0.3455
   10CHL1   H17  691   1.289   1.552   5.490  1.3144 -1.1301 -0.5968
   10CHL1   C13  692   1.274   1.435   5.667  0.1086 -0.1295 -0.0165
   10CHL1   C18  693   1.218   1.299   5.720 -0.1815  0.0657  0.9407
   10CHL1  H18A  694   1.297   1.227   5.691 -2.9258 -2.1110 -1.8774
   10CHL1  H18B  695   1.218   1.288   5.831  1.4601 -0.2893  0.9309
   10CHL1  H18C  696   1.119   1.290   5.669  1.4683  0.1832 -2.5710
   10CHL1   C12  697   1.428   1.457   5.711  0.7231 -0.0277  0.2306
   10CHL1  H12A  698   1.496   1.382   5.664 -0.7575 -0.5904 -1.0963
   10CHL1  H12B  699   1.457   1.552   5.660  2.5732 -0.5847  0.1554
   10CHL1   C11  700   1.431   1.448   5.862 -0.5203 -0.3739  0.5616
   10CHL1  H11A  701   1.406   1.347   5.899  0.5848 -0.5193  0.9547
   10CHL1  H11B  702   1.537   1.456   5.893  0.1868  0.2832 -1.8070
   10CHL1    C9  703   1.340   1.548   5.943  0.2451 -0.4470 -1.0088
   10CHL1    H9  704   1.372   1.652   5.920 -0.6700 -0.6156 -3.2921
   10CHL1   C10  705   1.356   1.536   6.098  0.4015  0.6215  1.2506
   10CHL1   C19  706   1.337   1.388   6.137  0.1227  0.2249  0.1556
   10CHL1  H19A  707   1.421   1.328   6.096  0.0602  1.4532 -1.8881
   10CHL1  H19B  708   1.330   1.365   6.246  0.1491 -2.5599 -0.3712
   10CHL1  H19C  709   1.248   1.352   6.081 -1.2712  0.8569  1.8591
   10CHL1    C1  710   1.495   1.592   6.145  0.1040 -0.2741  0.0759
   10CHL1   H1A  711   1.575   1.524   6.110 -0.6976 -0.6177 -1.1560
   10CHL1   H1B  712   1.531   1.682   6.090  2.3996 -1.8697 -1.1960
   10CHL1    C2  713   1.504   1.619   6.296  0.1402 -0.1150  0.2939
   10CHL1   H2A  714   1.595   1.679   6.313  0.8566 -0.0696 -3.0151
   10CHL1   H2B  715   1.513   1.519   6.344 -0.3735  0.0945  0.8398
   10CHL1   C20  716   1.273   1.366   5.413 -0.3525  1.0240  0.0475
   10CHL1   H20  717   1.209   1.275   5.415 -0.2724  0.9581 -0.4923
   10CHL1   C21  718   1.418   1.325   5.411 -0.7825  0.9800 -0.1530
   10CHL1  H21A  719   1.440   1.269   5.505 -0.7951 -0.8267 -1.1894
   10CHL1  H21B  720   1.479   1.416   5.398  1.3943 -0.4922 -0.8582
   10CHL1  H21C  721   1.446   1.255   5.329 -0.0278  1.1525 -0.0424
   10CHL1   C22  722   1.226   1.435   5.278 -0.5098 -0.0401  0.8696
   10CHL1  H22A  723   1.136   1.499   5.289  0.1301  1.7328 -2.6562
   10CHL1  H22B  724   1.300   1.513   5.250 -0.5413 -0.7282 -1.3331
   10CHL1   C23  725   1.205   1.337   5.162 -0.2552  0.3080  0.3488
   10CHL1  H23A  726   1.302   1.285   5.154 -1.2263 -1.6878  0.9637
   10CHL1  H23B  727   1.133   1.258   5.194  0.7473 -0.5756  0.4601
   10CHL1   C24  728   1.147   1.396   5.032  0.7023 -0.3184  0.7454
   10CHL1  H24A  729   1.118   1.315   4.961  2.3308 -0.0685 -0.2433
   10CHL1  H24B  730   1.051   1.445   5.060 -1.0268 -1.4959 -2.5657
   10CHL1   C25  731   1.224   1.505   4.955 -0.6003 -0.4913  0.1960
   10CHL1   H25  732   1.231   1.596   5.017 -1.5050 -0.2942  0.0270
   10CHL1   C26  733   1.368   1.461   4.927  0.1529 -0.1489  0.8037
   10CHL1  H26A  734   1.439   1.544   4.909 -0.9436  0.9437  1.3578
   10CHL1  H26B  735   1.410   1.407   5.015  2.7479 -0.4950 -0.5375
   10CHL1  H26C  736   1.371   1.388   4.843  4.9239 -0.1061  0.6459
   10CHL1   C27  737   1.148   1.540   4.832  0.1851 -0.5781  0.0180
   10CHL1  H27A  738   1.131   1.453   4.764 -0.3849 -0.6676  0.2716
   10CHL1  H27B  739   1.048   1.583   4.852  1.1512  1.0952  1.5346
   10CHL1  H27C  740   1.211   1.614   4.777 -0.0258 -0.9995 -0.8162
   11CHL1    C3  741   5.057   1.493   5.407  0.4051  0.7262  0.4622
   11CHL1    H3  742   4.994   1.583   5.391 -1.1894  0.1188  2.7190
   11CHL1    O3  743   5.070   1.459   5.544 -0.0187  0.3475  0.7373
   11CHL1   H3'  744   4.988   1.420   5.573 -0.1489  1.7999  2.4412
   11CHL1    C4  745   4.987   1.364   5.344 -0.5390  0.0095 -0.7328
   11CHL1   H4A  746   5.060   1.282   5.361 -0.5367  0.1563  0.0040
   11CHL1   H4B  747   4.891   1.348   5.398 -1.3759 -2.6127 -2.7429
   11CHL1    C5  748   4.970   1.399   5.197  0.7753 -0.8362 -0.1909
   11CHL1    C6  749   4.842   1.411   5.149 -0.0299  0.4829  0.1836
   11CHL1    H6  750   4.750   1.400   5.207 -0.2654  0.1019 -0.2551
   11CHL1    C7  751   4.807   1.430   5.000 -0.5803  0.0907  0.0378
   11CHL1   H7A  752   4.741   1.349   4.963  0.9953 -1.3059  0.1787
   11CHL1   H7B  753   4.746   1.523   4.998 -1.0738 -0.1340  2.0415
   11CHL1    C8  754   4.930   1.430   4.903 -0.2485 -0.6510 -0.5276
   11CHL1    H8  755   4.971   1.328   4.886  2.4337  0.2122  0.3188
   11CHL1   C14  756   4.901   1.506   4.774 -0.3103  0.2052  0.1618
   11CHL1   H14  757   4.867   1.606   4.809  1.2929  1.2412 -1.1315
   11CHL1   C15  758   4.787   1.458   4.679 -0.5074  0.5894  0.0801
   11CHL1  H15A  759   4.812   1.351   4.666 -0.7234  0.4776  0.5795
   11CHL1  H15B  760   4.688   1.445   4.728 -0.7793 -3.0367 -1.1771
   11CHL1   C16  761   4.805   1.551   4.563 -0.7382  0.4612 -0.0987
   11CHL1  H16A  762   4.768   1.496   4.474 -3.3188 -0.6788  1.5586
   11CHL1  H16B  763   4.732   1.634   4.568 -0.1101  1.0641 -0.7185
   11CHL1   C17  764   4.953   1.603   4.571 -0.3396 -0.2120 -1.2423
   11CHL1   H17  765   4.949   1.707   4.607  1.5843 -0.1172 -1.2096
   11CHL1   C13  766   5.021   1.527   4.688  0.5405  0.1820 -0.3103
   11CHL1   C18  767   5.079   1.384   4.641 -0.1664 -0.4956 -0.1311
   11CHL1  H18A  768   5.086   1.301   4.715  1.3990 -0.1843  0.1105
   11CHL1  H18B  769   5.015   1.330   4.568  0.5665 -1.3915 -0.1335
   11CHL1  H18C  770   5.181   1.406   4.603 -0.4498 -1.9649 -1.8757
   11CHL1   C12  771   5.133   1.609   4.767 -0.3246 -0.2176  0.6120
   11CHL1  H12A  772   5.222   1.618   4.701 -1.3547 -2.2151 -1.1892
   11CHL1  H12B  773   5.092   1.709   4.791 -0.6836 -0.2238  0.0236
   11CHL1   C11  774   5.179   1.521   4.888  0.1630  0.6818  0.2491
   11CHL1  H11A  775   5.222   1.430   4.842 -1.4962 -0.6604  1.2675
   11CHL1  H11B  776   5.263   1.571   4.941  1.4344 -1.3640  0.2507
   11CHL1    C9  777   5.058   1.496   4.979 -0.1100 -0.0293  0.4332
   11CHL1    H9  778   5.032   1.601   5.003  1.5345  0.4857  0.1307
   11CHL1   C10  779   5.096   1.429   5.115  0.1499  0.9316  0.0313
   11CHL1   C19  780   5.170   1.298   5.092 -0.6148  0.0743 -0.5797
   11CHL1  H19A  781   5.266   1.317   5.038  1.7044 -5.3705  0.9366
   11CHL1  H19B  782   5.189   1.248   5.189 -2.8148 -0.0553 -0.1809
   11CHL1  H19C  783   5.106   1.231   5.030 -0.9437 -0.6191  0.4835
   11CHL1    C1  784   5.189   1.531   5.196 -0.0617 -0.5177 -0.2410
   11CHL1   H1A  785   5.290   1.525   5.149  0.7061  0.6653  1.1740
   11CHL1   H1B  786   5.157   1.635   5.173  0.2869 -0.5554 -0.9291
   11CHL1    C2  787   5.196   1.489   5.344 -0.3263 -0.5469  0.0381
   11CHL1   H2A  788   5.266   1.547   5.406  0.5705 -1.1184 -0.4113
   11CHL1   H2B  789   5.242   1.389   5.360 -0.6013 -0.5368  0.9010
   11CHL1   C20  790   5.018   1.607   4.432  0.6665 -0.1259  0.7732
   11CHL1   H20  791   5.003   1.506   4.387  0.3455  0.6123 -0.8533
   11CHL1   C21  792   5.162   1.649   4.437 -0.7352 -0.3169  0.2087
   11CHL1  H21A  793   5.177   1.750   4.482  0.6154  0.7955 -2.4367
   11CHL1  H21B  794   5.201   1.674   4.336 -0.2944  3.2478  1.0999
   11CHL1  H21C  795   5.230   1.576   4.485  0.5283 -0.1296 -1.1938
   11CHL1   C22  796   4.930   1.703   4.339  0.2276  0.1393 -0.6103
   11CHL1  H22A  797   4.824   1.682   4.365  0.1560 -0.2045 -1.1540
   11CHL1  H22B  798   4.950   1.806   4.375 -1.4226 -0.2095  1.4787
   11CHL1   C23  799   4.950   1.687   4.188 -0.1489  0.5191 -1.1076
   11CHL1  H23A  800   5.052   1.727   4.168  0.4159 -0.3612 -0.0656
   11CHL1  H23B  801   4.959   1.578   4.171  2.0790  0.3262  0.8839
   11CHL1   C24  802   4.848   1.754   4.095  0.6002 -0.0062  0.1246
   11CHL1  H24A  803   4.850   1.707   3.994 -1.6608  0.2709 -0.0976
   11CHL1  H24B  804   4.750   1.736   4.143  0.3706  1.5503  0.2832
   11CHL1   C25  805   4.853   1.903   4.069 -0.2486 -0.3557 -1.1156
   11CHL1   H25  806   4.869   1.947   4.170  0.6591 -0.2829 -1.2911
   11CHL1   C26  807   4.978   1.954   3.999 -0.0485  1.2036 -0.5820
   11CHL1  H26A  808   4.994   2.063   4.013  0.2500  0.8140  3.3341
   11CHL1  H26B  809   5.058   1.900   4.055 -3.0430 -1.1062  1.9197
   11CHL1  H26C  810   4.991   1.921   3.894  2.7047 -1.8265  0.5401
   11CHL1   C27  811   4.727   1.962   4.000  0.0907 -0.6087  0.2564
   11CHL1  H27A  812   4.743   2.071   3.984 -2.6554 -0.4737 -2.3279
   11CHL1  H27B  813   4.707   1.915   3.901  1.8937 -0.6319 -0.1304
   11CHL1  H27C  814   4.645   1.952   4.074 -0.0777  0.8446  0.2826
   12CHL1    C3  815   3.994   1.657   5.511  0.1050  0.2348 -0.2054
   12CHL1    H3  816   3.885   1.636   5.510  0.1629 -0.1976 -2.5670
   12CHL1    O3  817   4.047   1.655   5.646 -0.5108 -0.7312 -0.2910
   12CHL1   H3'  818   4.140   1.676   5.636 -0.6416  0.2688  0.4101
   12CHL1    C4  819   4.056   1.540   5.433  0.6994  0.4646  0.4935
   12CHL1   H4A  820   4.166   1.552   5.446  0.6555  0.8283  0.5284
   12CHL1   H4B  821   4.031   1.443   5.482  1.8860  0.0540  0.3213
   12CHL1    C5  822   4.019   1.548   5.288  0.9388 -0.3371  0.0923
   12CHL1    C6  823   3.968   1.449   5.218  0.8081 -0.4885 -0.3186
   12CHL1    H6  824   3.961   1.349   5.263  1.2562  0.1214  1.1544
   12CHL1    C7  825   3.935   1.445   5.074 -0.4911 -0.3182  0.6905
   12CHL1   H7A  826   3.975   1.351   5.029 -3.6044 -1.0316 -0.8356
   12CHL1   H7B  827   3.828   1.433   5.047  0.4032 -0.1527 -3.7212
   12CHL1    C8  828   4.000   1.571   4.996  0.0512  0.0553  0.0958
   12CHL1    H8  829   4.105   1.537   4.980  0.6048  1.6334  0.2014
   12CHL1   C14  830   3.942   1.586   4.854 -0.2709 -0.3306 -0.1427
   12CHL1   H14  831   3.838   1.614   4.880 -0.8695  1.9713 -4.1099
   12CHL1   C15  832   3.933   1.466   4.764 -0.3395  0.6638  0.2505
   12CHL1  H15A  833   4.018   1.394   4.768 -0.9173  0.0020  0.8524
   12CHL1  H15B  834   3.848   1.400   4.791  1.2658 -1.9833 -0.7128
   12CHL1   C16  835   3.924   1.518   4.618 -1.0190  0.5006 -0.3296
   12CHL1  H16A  836   4.013   1.479   4.563  0.9929 -1.9917  4.1569
   12CHL1  H16B  837   3.832   1.494   4.561 -0.5172  1.2149 -1.4788
   12CHL1   C17  838   3.928   1.675   4.638  0.2507  0.3266 -0.6052
   12CHL1   H17  839   3.822   1.702   4.658  0.7856  3.2292 -1.2114
   12CHL1   C13  840   4.006   1.699   4.774  0.0112  0.7339  0.5951
   12CHL1   C18  841   4.154   1.678   4.730  0.0728  0.5727  0.1881
   12CHL1  H18A  842   4.188   1.762   4.665  0.9789 -0.1911 -0.3504
   12CHL1  H18B  843   4.216   1.680   4.822  0.6473 -0.0442 -0.1754
   12CHL1  H18C  844   4.172   1.583   4.676  0.2452 -0.3797  1.8592
   12CHL1   C12  845   3.989   1.832   4.841  0.6992  0.3184 -0.8047
   12CHL1  H12A  846   4.040   1.916   4.790 -1.0077  2.3783  0.6762
   12CHL1  H12B  847   3.879   1.848   4.847  0.6565  0.0323 -0.8481
   12CHL1   C11  848   4.046   1.826   4.986  0.3487 -0.1006  0.2588
   12CHL1  H11A  849   4.157   1.823   4.976  0.4768 -1.9870  1.6439
   12CHL1  H11B  850   4.024   1.917   5.046  0.1684  0.6190 -0.8664
   12CHL1    C9  851   3.993   1.700   5.069  0.5195  0.6886 -0.7994
   12CHL1    H9  852   3.885   1.726   5.067 -0.0163 -1.0109  1.5467
   12CHL1   C10  853   4.036   1.685   5.219 -0.6564 -0.3010  1.1056
   12CHL1   C19  854   4.187   1.718   5.211  0.5349  0.2973  0.1372
   12CHL1  H19A  855   4.232   1.687   5.307  0.5925  1.0995  0.3780
   12CHL1  H19B  856   4.237   1.658   5.132  0.6819  0.7458 -0.1160
   12CHL1  H19C  857   4.210   1.826   5.201 -3.2635  1.1652 -1.0195
   12CHL1    C1  858   3.970   1.795   5.304  0.0328 -0.2319 -0.8178
   12CHL1   H1A  859   3.991   1.895   5.260 -2.2289  0.1043 -1.2969
   12CHL1   H1B  860   3.859   1.794   5.311  0.0951  1.9297  1.6677
   12CHL1    C2  861   4.022   1.792   5.448 -0.5310  0.1870 -0.2207
   12CHL1   H2A  862   3.975   1.873   5.508  0.7400  1.2531 -0.6041
   12CHL1   H2B  863   4.132   1.811   5.447 -0.6549  1.5048  2.2408
   12CHL1   C20  864   3.951   1.746   4.508  0.5880 -0.7723  0.4743
   12CHL1   H20  865   4.062   1.751   4.497  0.4174 -0.1209 -1.2169
   12CHL1   C21  866   3.908   1.895   4.523  1.0009  0.4267  0.0899
   12CHL1  H21A  867   3.946   1.958   4.440  1.0875  0.9661  0.5300
   12CHL1  H21B  868   3.961   1.943   4.609  0.3719  1.9215 -0.3134
   12CHL1  H21C  869   3.802   1.900   4.556  0.6193 -1.1964 -0.8204
   12CHL1   C22  870   3.890   1.683   4.373  0.2321  0.0653  0.3638
   12CHL1  H22A  871   3.952   1.594   4.348  0.8339  0.9316 -1.4042
   12CHL1  H22B  872   3.785   1.653   4.391  0.7087 -0.2504  3.0197
   12CHL1   C23  873   3.880   1.784   4.259 -0.0018  0.0725 -0.3200
   12CHL1  H23A  874   3.826   1.878   4.282 -0.7410 -0.3712 -0.2195
   12CHL1  H23B  875   3.984   1.804   4.224 -0.1619 -0.1199 -0.9189
   12CHL1   C24  876   3.795   1.736   4.135  0.6745  0.0024  0.2602
   12CHL1  H24A  877   3.854   1.656   4.085 -0.5270  0.0818 -1.3888
   12CHL1  H24B  878   3.702   1.695   4.178  0.6424  0.0900  0.2740
   12CHL1   C25  879   3.771   1.834   4.021  0.0074 -0.3799 -1.0656
   12CHL1   H25  880   3.743   1.933   4.063 -0.6824 -0.1609 -1.9855
   12CHL1   C26  881   3.889   1.865   3.931  0.4687  0.2560  0.2597
   12CHL1  H26A  882   3.975   1.899   3.992 -1.0496  2.4485  1.3166
   12CHL1  H26B  883   3.916   1.772   3.876 -1.0452 -0.6171  0.9261
   12CHL1  H26C  884   3.863   1.946   3.859  2.1163 -0.0054 -0.6725
   12CHL1   C27  885   3.659   1.781   3.924 -0.3328  0.3896 -0.2489
   12CHL1  H27A  886   3.634   1.859   3.848  0.6643  1.0133  0.0450
   12CHL1  H27B  887   3.691   1.688   3.872 -0.1847  0.2894  0.0189
   12CHL1  H27C  888   3.564   1.753   3.973 -1.1602 -0.4793 -2.2602
   13CHL1    C3  889   0.633   0.814   6.399  0.2422  0.2575 -0.5982
   13CHL1    H3  890   0.547   0.881   6.374 -2.2506 -1.4191  2.7262
   13CHL1    O3  891   0.627   0.775   6.538  0.6776 -0.0173  0.0465
   13CHL1   H3'  892   0.654   0.848   6.595  1.7640 -0.0395 -0.4178
   13CHL1    C4  893   0.627   0.680   6.328  0.0957  0.3760  0.7205
   13CHL1   H4A  894   0.704   0.612   6.371  0.1377  0.0700  0.1773
   13CHL1   H4B  895   0.533   0.631   6.362 -0.1415  1.3404  1.5055
   13CHL1    C5  896   0.651   0.690   6.176  0.4730  0.0985 -0.0605
   13CHL1    C6  897   0.556   0.650   6.084  0.4027  0.6711  0.0896
   13CHL1    H6  898   0.469   0.603   6.130 -0.2549  2.0607  0.3194
   13CHL1    C7  899   0.575   0.656   5.934  0.5710  0.2737  0.9079
   13CHL1   H7A  900   0.560   0.561   5.877  3.8251 -0.8619  1.7291
   13CHL1   H7B  901   0.511   0.736   5.891 -0.9385 -2.1258 -1.6162
   13CHL1    C8  902   0.727   0.698   5.899  0.9804  0.0813  0.3820
   13CHL1    H8  903   0.782   0.602   5.905 -1.5974 -1.4993  0.4374
   13CHL1   C14  904   0.714   0.767   5.760 -0.0214  0.4032  0.6593
   13CHL1   H14  905   0.641   0.851   5.766 -1.5179 -0.7510 -0.6298
   13CHL1   C15  906   0.631   0.690   5.656  0.5292  0.3703 -0.3596
   13CHL1  H15A  907   0.653   0.582   5.668 -0.9490 -0.0520 -1.1703
   13CHL1  H15B  908   0.520   0.694   5.664  0.3378  0.9117 -2.5709
   13CHL1   C16  909   0.676   0.758   5.529 -0.8151  0.1446 -0.7656
   13CHL1  H16A  910   0.720   0.685   5.458 -0.6463 -2.1988  1.5786
   13CHL1  H16B  911   0.593   0.814   5.481 -2.6351 -2.1417 -0.4566
   13CHL1   C17  912   0.787   0.870   5.570  0.3911  0.0462  0.5780
   13CHL1   H17  913   0.735   0.966   5.589 -4.6499 -1.8248 -1.9608
   13CHL1   C13  914   0.843   0.823   5.706 -1.0850  0.1472  0.3300
   13CHL1   C18  915   0.939   0.704   5.676  0.6944 -0.1487  0.5465
   13CHL1  H18A  916   0.966   0.664   5.776 -0.7332 -0.2484  0.9128
   13CHL1  H18B  917   0.892   0.614   5.631 -1.2408  0.8943  0.3940
   13CHL1  H18C  918   1.032   0.724   5.619 -1.2542  3.5784 -1.6444
   13CHL1   C12  919   0.891   0.929   5.802 -0.1531 -0.4012  0.4543
   13CHL1  H12A  920   0.985   0.980   5.772  0.4218 -1.3922  0.5333
   13CHL1  H12B  921   0.821   1.011   5.829  1.5105  0.2075  3.3966
   13CHL1   C11  922   0.911   0.867   5.942 -0.2733 -0.4811 -0.4731
   13CHL1  H11A  923   0.985   0.785   5.932  1.1416  0.8576 -1.3875
   13CHL1  H11B  924   0.934   0.939   6.023  2.3281 -3.9002  2.1320
   13CHL1    C9  925   0.773   0.813   5.994 -0.5249 -0.2278  0.0814
   13CHL1    H9  926   0.693   0.890   5.988 -1.1866 -0.9823 -1.3333
   13CHL1   C10  927   0.773   0.774   6.141  0.1512  0.6083 -0.7786
   13CHL1   C19  928   0.897   0.685   6.162 -0.4868  0.7005 -0.3739
   13CHL1  H19A  929   0.990   0.746   6.158 -0.2344  0.3862  0.4715
   13CHL1  H19B  930   0.899   0.641   6.264 -0.3554 -0.7025 -0.9593
   13CHL1  H19C  931   0.896   0.606   6.084 -0.1685  0.3863 -0.0601
   13CHL1    C1  932   0.778   0.902   6.229  0.1252 -0.1927  0.5201
   13CHL1   H1A  933   0.874   0.953   6.212 -0.2495 -0.1166 -1.6143
   13CHL1   H1B  934   0.701   0.976   6.198  1.8721  1.7464  0.6779
   13CHL1    C2  935   0.766   0.886   6.377  0.3079  0.3607 -0.3858
   13CHL1   H2A  936   0.757   0.987   6.424  0.6870 -1.3864  3.9004
   13CHL1   H2B  937   0.851   0.834   6.426  0.1612  0.5916  0.1314
   13CHL1   C20  938   0.889   0.896   5.455 -0.1089  0.1828 -0.5224
   13CHL1   H20  939   0.943   0.800   5.437 -0.8611 -0.0243 -1.7531
   13CHL1   C21  940   0.994   0.998   5.505  0.0024 -0.0516 -0.5906
   13CHL1  H21A  941   1.067   0.941   5.567 -1.2142 -2.6780 -1.4012
   13CHL1  H21B  942   0.946   1.088   5.548 -0.3687 -1.3795  1.9253
   13CHL1  H21C  943   1.058   1.034   5.421 -0.6768  2.2162 -0.2026
   13CHL1   C22  944   0.822   0.936   5.326  0.5056  0.1773  0.0821
   13CHL1  H22A  945   0.745   0.860   5.302  1.5870 -0.3150 -2.0805
   13CHL1  H22B  946   0.769   1.032   5.347  1.9317  0.3888  3.2084
   13CHL1   C23  947   0.912   0.947   5.199 -0.8372 -0.2730 -0.7056
   13CHL1  H23A  948   1.002   1.008   5.223 -0.9827  0.2067 -1.3638
   13CHL1  H23B  949   0.949   0.845   5.178 -0.6882  0.0213 -1.9171
   13CHL1   C24  950   0.841   0.993   5.069 -1.2482 -0.0045  0.1018
   13CHL1  H24A  951   0.742   0.943   5.059 -1.8932  1.3250 -0.5114
   13CHL1  H24B  952   0.825   1.101   5.091  1.2384  0.3369  0.4796
   13CHL1   C25  953   0.924   0.956   4.946  0.5718  0.2283  0.4293
   13CHL1   H25  954   0.937   0.846   4.947 -0.4041  0.0235 -1.8148
   13CHL1   C26  955   0.830   0.986   4.825 -0.5907 -0.3271  0.4011
   13CHL1  H26A  956   0.880   0.943   4.735  0.9479 -0.4613  1.2807
   13CHL1  H26B  957   0.723   0.959   4.837 -0.8423 -0.5683 -1.9001
   13CHL1  H26C  958   0.836   1.097   4.814 -0.2667 -0.2952  0.8661
   13CHL1   C27  959   1.058   1.026   4.944  0.1126  0.6265 -0.5663
   13CHL1  H27A  960   1.049   1.124   4.995 -2.0618 -0.3238  1.0573
   13CHL1  H27B  961   1.121   0.953   4.999 -2.6730 -0.4516  1.4165
   13CHL1  H27C  962   1.101   1.032   4.841  0.9048  1.8135 -0.1844
   14CHL1    C3  963   1.911   0.256   6.397 -0.5583 -0.4480 -0.1585
   14CHL1    H3  964   1.897   0.367   6.399 -0.7109 -0.4487 -0.8576
   14CHL1    O3  965   1.938   0.228   6.533  0.0056  0.6997 -0.6912
   14CHL1   H3'  966   1.848   0.222   6.565 -1.1760  0.3796 -3.7371
   14CHL1    C4  967   1.793   0.186   6.347 -0.5237 -0.3032 -0.5042
   14CHL1   H4A  968   1.799   0.077   6.368 -1.4704 -0.0351  1.4052
   14CHL1   H4B  969   1.707   0.229   6.403  0.6455 -0.8826  1.8608
   14CHL1    C5  970   1.774   0.184   6.200  0.5919  0.0866  0.4369
   14CHL1    C6  971   1.656   0.227   6.145  0.3844  0.5019  0.0437
   14CHL1    H6  972   1.572   0.254   6.212 -0.9518 -2.6493 -0.1834
   14CHL1    C7  973   1.634   0.247   6.000  0.3948 -0.2024  0.0413
   14CHL1   H7A  974   1.531   0.221   5.969  0.5380  1.1679 -1.7535
   14CHL1   H7B  975   1.644   0.357   5.989  0.6889 -0.1764  0.5471
   14CHL1    C8  976   1.745   0.180   5.908 -0.2883 -0.1275 -0.2123
   14CHL1    H8  977   1.737   0.069   5.908  3.4816 -0.5231 -0.1313
   14CHL1   C14  978   1.732   0.233   5.768  0.2891  0.1034  0.0418
   14CHL1   H14  979   1.754   0.341   5.782  0.4214 -0.0577  1.1372
   14CHL1   C15  980   1.600   0.235   5.705  0.1120  0.1240  1.0680
   14CHL1  H15A  981   1.557   0.134   5.719  0.7953 -0.3750 -0.2426
   14CHL1  H15B  982   1.530   0.317   5.732 -0.7824  0.0163 -0.7875
   14CHL1   C16  983   1.623   0.240   5.553  0.5885 -0.4169  0.2542
   14CHL1  H16A  984   1.580   0.147   5.510 -1.1530  1.4237 -2.3141
   14CHL1  H16B  985   1.581   0.329   5.501 -1.0663 -1.0745  0.4119
   14CHL1   C17  986   1.776   0.236   5.543 -0.8028 -0.3721 -0.0276
   14CHL1   H17  987   1.804   0.343   5.537 -1.4471 -0.2664 -1.7796
   14CHL1   C13  988   1.831   0.171   5.673 -0.5120 -0.1700 -0.7867
   14CHL1   C18  989   1.811   0.014   5.671 -0.4399 -0.7639  0.5511
   14CHL1  H18A  990   1.884  -0.015   5.592  0.3131  2.7604 -0.2219
   14CHL1  H18B  991   1.827  -0.040   5.767  1.3860  0.7638  1.1834
   14CHL1  H18C  992   1.708  -0.004   5.635 -0.7840  0.7448  0.7071
   14CHL1   C12  993   1.975   0.207   5.715  0.1729 -0.3489  0.3720
   14CHL1  H12A  994   2.051   0.159   5.651  1.7239 -0.8413  2.4619
   14CHL1  H12B  995   1.996   0.315   5.703  0.1385 -0.0892  2.2330
   14CHL1   C11  996   1.997   0.179   5.865 -0.6340  0.2516 -0.4063
   14CHL1  H11A  997   2.006   0.069   5.874  0.8877  0.4137  0.2111
   14CHL1  H11B  998   2.095   0.220   5.896 -0.9321  0.8908 -0.2924
   14CHL1    C9  999   1.879   0.215   5.962  0.2207  0.4890 -0.1115
   14CHL1    H9 1000   1.882   0.325   5.980  1.4997  0.2342  1.3651
   14CHL1   C10 1001   1.900   0.166   6.111  0.3155  0.5166 -0.5960
   14CHL1   C19 1002   1.937   0.014   6.115 -0.3844  0.9500 -0.8750
   14CHL1  H19A 1003   1.855  -0.047   6.070 -0.4026 -1.4612  2.0509
   14CHL1  H19B 1004   2.031  -0.020   6.068 -0.2122 -0.1067  0.1754
   14CHL1  H19C 1005   1.941  -0.016   6.222 -1.1266  2.7826 -0.2902
   14CHL1    C1 1006   2.014   0.258   6.162 -0.3968  0.0510 -0.3283
   14CHL1   H1A 1007   2.115   0.247   6.118 -0.3524 -0.0968 -0.1890
   14CHL1   H1B 1008   1.991   0.364   6.138 -0.0766 -0.2712 -2.2608
   14CHL1    C2 1009   2.036   0.244   6.314 -0.4550  0.7728 -0.2015
   14CHL1   H2A 1010   2.115   0.317   6.340 -0.8392  1.8552 -1.9363
   14CHL1   H2B 1011   2.070   0.142   6.343 -2.1154  0.8154  2.2274
   14CHL1   C20 1012   1.817   0.174   5.406  0.6740 -0.4207 -0.3660
   14CHL1   H20 1013   1.788   0.067   5.406  2.0061 -0.8046 -0.2046
   14CHL1   C21 1014   1.969   0.182   5.394  0.1055  0.6136  0.9236
   14CHL1  H21A 1015   2.011   0.157   5.294  4.0279 -1.8292  2.9586
   14CHL1  H21B 1016   2.019   0.105   5.456 -1.3110 -1.7052 -0.6277
   14CHL1  H21C 1017   2.021   0.277   5.418  1.7798  0.1735 -0.7507
   14CHL1   C22 1018   1.754   0.256   5.281 -0.8041 -0.5624  0.0068
   14CHL1  H22A 1019   1.647   0.286   5.291 -0.5052  1.4186 -1.8999
   14CHL1  H22B 1020   1.819   0.346   5.273 -1.0859 -0.4175 -0.7750
   14CHL1   C23 1021   1.775   0.174   5.148  0.0026 -0.1012  0.1712
   14CHL1  H23A 1022   1.884   0.171   5.130 -0.3419  1.0366 -2.5680
   14CHL1  H23B 1023   1.754   0.068   5.173  0.6639 -0.1871  0.3649
   14CHL1   C24 1024   1.692   0.218   5.026 -0.2577 -0.3480 -0.3859
   14CHL1  H24A 1025   1.584   0.231   5.050 -0.2645 -0.5069 -0.3232
   14CHL1  H24B 1026   1.729   0.313   4.982 -0.3967 -0.4354 -0.6911
   14CHL1   C25 1027   1.704   0.122   4.902  0.1563 -0.5214  0.4171
   14CHL1   H25 1028   1.670   0.017   4.919  0.0967 -0.9249 -1.8659
   14CHL1   C26 1029   1.619   0.173   4.787 -0.2926  0.4971  0.8500
   14CHL1  H26A 1030   1.623   0.102   4.702  0.7256  0.6517  0.7596
   14CHL1  H26B 1031   1.513   0.181   4.818 -0.4013  2.8539  0.1033
   14CHL1  H26C 1032   1.654   0.275   4.759  0.4308 -0.1339 -0.6502
   14CHL1   C27 1033   1.851   0.108   4.860 -0.2348  0.1631  0.6644
   14CHL1  H27A 1034   1.851   0.054   4.763 -0.1159  0.2858  0.5948
   14CHL1  H27B 1035   1.888   0.212   4.842  0.0124 -0.0328 -0.0049
   14CHL1  H27C 1036   1.928   0.059   4.922 -1.0426 -0.4332  1.2108
   15CHL1    C3 1037   3.772   3.706   5.662 -0.4051  0.0053  0.0450
   15CHL1    H3 1038   3.770   3.817   5.667 -1.4933  0.0595 -1.0707
   15CHL1    O3 1039   3.831   3.649   5.778 -0.1686 -0.3341 -0.6559
   15CHL1   H3' 1040   3.913   3.698   5.785 -0.7635  0.6996 -0.8417
   15CHL1    C4 1041   3.632   3.657   5.635  0.4509  0.6589 -0.1720
   15CHL1   H4A 1042   3.631   3.546   5.640 -0.4565  0.6915  0.6967
   15CHL1   H4B 1043   3.574   3.686   5.725  0.0047 -0.4315 -0.0947
   15CHL1    C5 1044   3.565   3.692   5.511 -0.8015  0.5627  0.0116
   15CHL1    C6 1045   3.460   3.773   5.507 -0.2102  0.6197  0.7935
   15CHL1    H6 1046   3.428   3.819   5.602 -0.4345  0.7628  0.6483
   15CHL1    C7 1047   3.401   3.828   5.378  0.0986  0.1333  0.6279
   15CHL1   H7A 1048   3.292   3.811   5.365  0.2024  0.3479 -0.5990
   15CHL1   H7B 1049   3.420   3.938   5.372 -0.2817  0.1748  0.1583
   15CHL1    C8 1050   3.457   3.756   5.251 -0.9703  0.1364 -0.4485
   15CHL1    H8 1051   3.408   3.657   5.236  0.3956 -0.5571 -0.4958
   15CHL1   C14 1052   3.418   3.827   5.125 -0.0194 -0.2946  0.4020
   15CHL1   H14 1053   3.472   3.925   5.130 -2.1747  0.9372  0.6380
   15CHL1   C15 1054   3.275   3.873   5.110  0.2670  0.7688  0.2873
   15CHL1  H15A 1055   3.211   3.785   5.131  0.2349  0.8690  0.6134
   15CHL1  H15B 1056   3.269   3.956   5.184  3.8159  0.4918  1.0641
   15CHL1   C16 1057   3.263   3.907   4.965  0.6825  0.4285  0.9837
   15CHL1  H16A 1058   3.190   3.832   4.927 -1.8357  2.6010  1.3076
   15CHL1  H16B 1059   3.225   4.008   4.941  0.8203 -0.2176 -2.4904
   15CHL1   C17 1060   3.400   3.864   4.904  0.5758 -0.4650  1.0661
   15CHL1   H17 1061   3.461   3.957   4.895 -1.9499  1.1578 -0.5495
   15CHL1   C13 1062   3.464   3.759   4.995 -0.0497 -0.2921  0.1379
   15CHL1   C18 1063   3.406   3.615   4.981 -0.3436 -0.9727  0.1051
   15CHL1  H18A 1064   3.297   3.603   4.964 -0.2468 -1.1591 -0.4171
   15CHL1  H18B 1065   3.447   3.563   4.891 -2.7865 -1.3238 -0.8845
   15CHL1  H18C 1066   3.434   3.551   5.067 -1.0141 -2.7779 -0.9723
   15CHL1   C12 1067   3.618   3.774   5.004  0.0525 -0.0461 -0.4067
   15CHL1  H12A 1068   3.674   3.741   4.913  0.8448  0.1958 -0.0184
   15CHL1  H12B 1069   3.640   3.882   5.018  1.4650 -0.3956  0.3506
   15CHL1   C11 1070   3.670   3.699   5.125 -0.7624  0.0970  0.4926
   15CHL1  H11A 1071   3.653   3.591   5.106 -0.4526  0.3359 -1.3553
   15CHL1  H11B 1072   3.780   3.716   5.134 -0.4893 -0.6168 -1.0899
   15CHL1    C9 1073   3.608   3.746   5.257  0.3874 -0.1119  0.2290
   15CHL1    H9 1074   3.646   3.849   5.275  1.0782 -0.4118  0.5061
   15CHL1   C10 1075   3.658   3.667   5.383  0.0268 -0.3141 -0.3324
   15CHL1   C19 1076   3.656   3.517   5.340  0.5682 -0.3291 -0.8615
   15CHL1  H19A 1077   3.569   3.508   5.271  1.5262  1.5604 -2.4046
   15CHL1  H19B 1078   3.754   3.506   5.290  0.8394  1.0692 -0.6767
   15CHL1  H19C 1079   3.633   3.454   5.429 -0.3315  1.3209  0.1400
   15CHL1    C1 1080   3.803   3.717   5.411 -0.4423 -1.0139 -0.0442
   15CHL1   H1A 1081   3.880   3.688   5.337 -1.4301 -1.2792 -0.9891
   15CHL1   H1B 1082   3.810   3.828   5.407  3.6655 -1.1200  0.3844
   15CHL1    C2 1083   3.861   3.663   5.545  0.6474  0.6721 -0.0425
   15CHL1   H2A 1084   3.964   3.703   5.559  1.5388 -0.6796 -2.1735
   15CHL1   H2B 1085   3.860   3.552   5.542 -1.5638  0.6420  0.5719
   15CHL1   C20 1086   3.378   3.821   4.753 -0.1675  0.4710 -0.6578
   15CHL1   H20 1087   3.332   3.720   4.756 -0.3091  0.5495  0.0829
   15CHL1   C21 1088   3.513   3.806   4.678  0.8761  0.0839 -0.2047
   15CHL1  H21A 1089   3.492   3.788   4.570  1.9526 -1.1624 -0.2259
   15CHL1  H21B 1090   3.554   3.706   4.703 -1.2308 -1.2016 -1.5308
   15CHL1  H21C 1091   3.586   3.888   4.694  1.0142 -0.1629  0.4322
   15CHL1   C22 1092   3.287   3.903   4.665  0.4164  0.1062  1.0611
   15CHL1  H22A 1093   3.298   3.867   4.560 -0.1235 -0.6218  1.2486
   15CHL1  H22B 1094   3.180   3.897   4.691 -0.5109 -1.3140 -2.4505
   15CHL1   C23 1095   3.316   4.052   4.644  0.6430 -0.2884  0.0319
   15CHL1  H23A 1096   3.299   4.109   4.738  0.9452 -0.5590  0.2501
   15CHL1  H23B 1097   3.423   4.058   4.615  0.0119  1.7008 -2.2207
   15CHL1   C24 1098   3.253   4.123   4.522  0.5273 -0.6498  0.0083
   15CHL1  H24A 1099   3.317   4.106   4.434 -1.0216  1.6251 -1.6855
   15CHL1  H24B 1100   3.152   4.082   4.500 -0.8170  2.1301  0.5526
   15CHL1   C25 1101   3.230   4.275   4.530  0.5105 -0.1576 -0.1586
   15CHL1   H25 1102   3.173   4.294   4.623 -2.7717 -1.0897 -1.8034
   15CHL1   C26 1103   3.359   4.351   4.527 -0.1835  0.0800 -0.0505
   15CHL1  H26A 1104   3.423   4.328   4.440  2.9154  0.5098  1.9764
   15CHL1  H26B 1105   3.349   4.461   4.542  3.2776  0.3926  0.7063
   15CHL1  H26C 1106   3.420   4.314   4.612  0.2841  1.4397  0.2305
   15CHL1   C27 1107   3.143   4.319   4.415  0.5384 -0.1990 -0.5312
   15CHL1  H27A 1108   3.044   4.279   4.444  0.9932 -0.3756  0.8319
   15CHL1  H27B 1109   3.137   4.429   4.423  2.0010  0.1147 -2.7898
   15CHL1  H27C 1110   3.185   4.286   4.317  0.9488  1.4099 -0.9333
   16CHL1    C3 1111   4.142   3.143   5.761  0.4329 -0.1099  0.5974
   16CHL1    H3 1112   4.243   3.131   5.716 -0.4969  0.0529 -1.6793
   16CHL1    O3 1113   4.169   3.158   5.899  0.2493  0.0916  0.3335
   16CHL1   H3' 1114   4.083   3.149   5.941 -0.0252  3.3230  0.7287
   16CHL1    C4 1115   4.065   3.270   5.710 -0.2190  0.0968  0.2319
   16CHL1   H4A 1116   3.972   3.272   5.771 -1.2936 -0.3617 -1.3316
   16CHL1   H4B 1117   4.136   3.352   5.735 -0.9481  0.8474 -0.1138
   16CHL1    C5 1118   4.045   3.267   5.560 -0.0617  0.3299  0.6576
   16CHL1    C6 1119   4.092   3.369   5.481 -0.1426  0.1117 -0.7096
   16CHL1    H6 1120   4.143   3.454   5.529  0.1131  1.0132 -2.4945
   16CHL1    C7 1121   4.092   3.366   5.331 -0.8040  0.2452 -0.6563
   16CHL1   H7A 1122   4.082   3.470   5.292 -0.6709  0.1293 -0.9994
   16CHL1   H7B 1123   4.196   3.346   5.298 -0.7311 -1.1561  0.3073
   16CHL1    C8 1124   3.989   3.266   5.276 -0.1291  0.2861  0.1824
   16CHL1    H8 1125   3.887   3.308   5.284 -1.1102 -2.0773  0.9150
   16CHL1   C14 1126   4.026   3.234   5.131  0.0144 -0.6222 -0.0207
   16CHL1   H14 1127   4.123   3.179   5.131 -0.0656 -0.7649 -0.1063
   16CHL1   C15 1128   4.052   3.345   5.037  0.5553 -1.0650  0.7071
   16CHL1  H15A 1129   4.003   3.435   5.079  1.9234 -1.6560  3.8289
   16CHL1  H15B 1130   4.160   3.369   5.035  0.3818 -0.2522  0.6277
   16CHL1   C16 1131   4.000   3.296   4.896 -0.6359  0.0490 -0.2727
   16CHL1  H16A 1132   3.908   3.338   4.851  0.5643  2.4251 -0.6886
   16CHL1  H16B 1133   4.077   3.320   4.819 -0.1832  3.1358  0.9778
   16CHL1   C17 1134   3.965   3.145   4.923  0.2812  0.2744 -0.3937
   16CHL1   H17 1135   4.058   3.085   4.927 -0.9834 -1.8170 -0.9981
   16CHL1   C13 1136   3.914   3.150   5.066 -0.8090 -0.1655  0.4496
   16CHL1   C18 1137   3.781   3.227   5.076  0.2992 -0.4235  0.0434
   16CHL1  H18A 1138   3.693   3.184   5.023 -1.4327  1.5794  1.1262
   16CHL1  H18B 1139   3.738   3.243   5.178  1.1597  1.3062  0.1725
   16CHL1  H18C 1140   3.793   3.330   5.037  0.6735  0.2962  1.9120
   16CHL1   C12 1141   3.901   3.016   5.137 -0.5431  0.2760 -0.1403
   16CHL1  H12A 1142   3.810   2.966   5.095  0.9216 -1.6685 -1.1627
   16CHL1  H12B 1143   3.978   2.944   5.103 -0.2103  1.6258 -2.5188
   16CHL1   C11 1144   3.883   3.034   5.291  0.5017 -0.3817 -0.6352
   16CHL1  H11A 1145   3.787   3.088   5.302 -0.2160 -1.9098  1.2493
   16CHL1  H11B 1146   3.880   2.939   5.348 -0.0537  0.7912  1.3701
   16CHL1    C9 1147   3.993   3.129   5.355 -0.4404  0.2537 -0.1571
   16CHL1    H9 1148   4.093   3.090   5.330 -0.2955  0.2740  0.3789
   16CHL1   C10 1149   3.983   3.137   5.513  0.4483 -0.1655 -0.4555
   16CHL1   C19 1150   3.834   3.157   5.554 -0.1053 -0.1741 -0.4432
   16CHL1  H19A 1151   3.814   3.177   5.662 -2.2135  1.2160 -1.0370
   16CHL1  H19B 1152   3.781   3.239   5.501 -0.7755 -1.6754 -2.1862
   16CHL1  H19C 1153   3.784   3.061   5.530  2.1283 -1.6324  0.4075
   16CHL1    C1 1154   4.038   3.000   5.578 -0.5358  0.4458  0.8979
   16CHL1   H1A 1155   3.975   2.913   5.552  0.4033  0.4373 -1.6547
   16CHL1   H1B 1156   4.134   2.967   5.532 -1.3511 -1.8869  0.7636
   16CHL1    C2 1157   4.059   3.010   5.733  0.4636  0.5266  0.3860
   16CHL1   H2A 1158   4.108   2.913   5.752 -1.9369 -0.7862  0.2840
   16CHL1   H2B 1159   3.956   3.003   5.776  0.4149  0.2030  0.2172
   16CHL1   C20 1160   3.885   3.079   4.805  0.9178 -0.1839 -0.5231
   16CHL1   H20 1161   3.777   3.104   4.817  1.9637  4.3566  1.2668
   16CHL1   C21 1162   3.915   2.927   4.814 -0.0541 -0.2431 -0.4961
   16CHL1  H21A 1163   3.861   2.877   4.731 -0.8833 -1.1633  0.5655
   16CHL1  H21B 1164   3.873   2.896   4.912 -1.0858 -1.7232 -1.3558
   16CHL1  H21C 1165   4.024   2.910   4.796  0.0915  0.4945 -0.3510
   16CHL1   C22 1166   3.920   3.135   4.663 -0.8262 -0.1265  0.1838
   16CHL1  H22A 1167   3.857   3.085   4.588 -2.1828  0.3559  0.9702
   16CHL1  H22B 1168   3.891   3.240   4.644  1.3716  0.7805  1.3678
   16CHL1   C23 1169   4.062   3.117   4.623  0.1425  0.2496  0.3184
   16CHL1  H23A 1170   4.127   3.125   4.713 -0.9137  1.5683  1.0000
   16CHL1  H23B 1171   4.071   3.013   4.583  0.8566 -0.5322  2.3601
   16CHL1   C24 1172   4.091   3.227   4.521 -0.0236 -0.1186  0.0828
   16CHL1  H24A 1173   4.017   3.216   4.439 -3.3125  2.0375  2.5067
   16CHL1  H24B 1174   4.084   3.322   4.577  0.3719  1.1090 -1.8787
   16CHL1   C25 1175   4.240   3.229   4.474 -0.8282 -0.6367 -0.0002
   16CHL1   H25 1176   4.256   3.137   4.414  0.7713  0.7559 -1.8618
   16CHL1   C26 1177   4.253   3.343   4.372  0.0454 -0.9468  0.0528
   16CHL1  H26A 1178   4.177   3.324   4.292 -1.6632 -1.4128  1.7114
   16CHL1  H26B 1179   4.218   3.441   4.411 -0.6134 -0.1317 -2.3605
   16CHL1  H26C 1180   4.353   3.345   4.324  1.1384 -1.1983  2.2399
   16CHL1   C27 1181   4.347   3.231   4.589 -0.2182 -0.1823 -0.0408
   16CHL1  H27A 1182   4.450   3.226   4.548 -0.6495 -0.1620 -1.1665
   16CHL1  H27B 1183   4.329   3.323   4.649 -0.7455 -1.3004  1.5793
   16CHL1  H27C 1184   4.324   3.151   4.662 -1.0454  0.5963  0.5791
   17CHL1    C3 1185   6.231   0.063   5.916  0.0106 -0.1677  0.1987
   17CHL1    H3 1186   6.270  -0.032   5.874  0.5967  1.0884 -2.2754
   17CHL1    O3 1187   6.264   0.084   6.051 -0.0972 -0.7129  0.2715
   17CHL1   H3' 1188   6.201   0.026   6.095 -0.5993 -1.5224 -1.4239
   17CHL1    C4 1189   6.281   0.182   5.843  0.2657  0.1977 -0.3999
   17CHL1   H4A 1190   6.232   0.271   5.889 -1.1799 -0.6182 -0.2963
   17CHL1   H4B 1191   6.390   0.194   5.855  0.1914  0.3226  0.1849
   17CHL1    C5 1192   6.259   0.168   5.694  0.0808 -0.2861 -0.4595
   17CHL1    C6 1193   6.363   0.166   5.609  0.4740  0.0195  0.1612
   17CHL1    H6 1194   6.462   0.176   5.657  0.1659  1.7722  0.4969
   17CHL1    C7 1195   6.349   0.164   5.459  0.6344  0.6012 -0.1245
   17CHL1   H7A 1196   6.421   0.234   5.410 -0.6015  1.4960 -0.7062
   17CHL1   H7B 1197   6.372   0.060   5.427 -0.0067  0.5248 -0.3440
   17CHL1    C8 1198   6.205   0.182   5.415 -0.1509  0.5662  0.4146
   17CHL1    H8 1199   6.183   0.291   5.422  0.0380  0.6289  0.0622
   17CHL1   C14 1200   6.190   0.140   5.271 -0.2386 -0.8034 -0.0809
   17CHL1   H14 1201   6.208   0.031   5.262  1.6950 -0.5331  0.1768
   17CHL1   C15 1202   6.287   0.218   5.181 -0.2090  0.2339  0.1918
   17CHL1  H15A 1203   6.301   0.325   5.210 -1.2853  0.1601  1.0509
   17CHL1  H15B 1204   6.389   0.173   5.187  0.5125  1.7636 -0.0147
   17CHL1   C16 1205   6.227   0.204   5.042 -0.4344 -0.0307  0.2216
   17CHL1  H16A 1206   6.215   0.310   5.012 -0.3529 -0.0843  0.0007
   17CHL1  H16B 1207   6.290   0.151   4.968  0.8074  2.4694 -0.6019
   17CHL1   C17 1208   6.089   0.150   5.061 -0.2096  0.0160  0.1019
   17CHL1   H17 1209   6.079   0.040   5.054 -3.9732  0.1546  1.4838
   17CHL1   C13 1210   6.053   0.175   5.213 -0.3072 -0.1210  0.1088
   17CHL1   C18 1211   6.007   0.318   5.239  0.3200  0.6915  0.8010
   17CHL1  H18A 1212   6.063   0.388   5.174 -1.6348 -0.4496 -2.3253
   17CHL1  H18B 1213   5.902   0.335   5.207  0.0111 -0.4423  1.1623
   17CHL1  H18C 1214   6.006   0.353   5.345  0.3258  0.8753  0.7398
   17CHL1   C12 1215   5.953   0.082   5.284  0.1452 -0.2667 -0.9817
   17CHL1  H12A 1216   5.851   0.114   5.254  0.4680  1.2634 -0.5225
   17CHL1  H12B 1217   5.969  -0.028   5.275  0.0300 -0.3162 -0.5998
   17CHL1   C11 1218   5.958   0.114   5.438 -0.0103 -0.5807 -0.2240
   17CHL1  H11A 1219   5.910   0.214   5.449 -1.5755 -1.3634  0.3227
   17CHL1  H11B 1220   5.885   0.051   5.491 -1.4479  1.4327  0.3242
   17CHL1    C9 1221   6.096   0.111   5.505 -0.8937 -0.4560  0.5284
   17CHL1    H9 1222   6.125   0.003   5.500 -0.4920 -0.3052 -1.3072
   17CHL1   C10 1223   6.116   0.156   5.650  0.3935  0.3228 -0.8314
   17CHL1   C19 1224   6.048   0.295   5.669 -0.1291 -0.5046 -0.5659
   17CHL1  H19A 1225   6.050   0.337   5.772 -2.5295 -1.3856 -0.0930
   17CHL1  H19B 1226   6.089   0.368   5.597 -1.2958  1.3944  0.6192
   17CHL1  H19C 1227   5.939   0.275   5.660 -0.2361 -0.2909  0.1712
   17CHL1    C1 1228   6.052   0.046   5.746  1.6156 -0.5211 -0.3742
   17CHL1   H1A 1229   5.941   0.041   5.740  1.4919 -1.1030  1.7185
   17CHL1   H1B 1230   6.096  -0.049   5.709 -0.2896 -1.2148 -1.0018
   17CHL1    C2 1231   6.081   0.058   5.896 -0.1100  0.3613 -0.1747
   17CHL1   H2A 1232   6.036  -0.033   5.942  2.6305 -0.9715  0.0252
   17CHL1   H2B 1233   6.038   0.149   5.943 -0.0550 -0.8973  2.5021
   17CHL1   C20 1234   5.979   0.198   4.957  0.3463  1.0145 -0.2958
   17CHL1   H20 1235   5.947   0.302   4.978 -0.4044  1.2717 -2.4495
   17CHL1   C21 1236   5.871   0.092   4.946  0.6028  0.5662 -0.3622
   17CHL1  H21A 1237   5.836   0.061   5.047  0.1919 -0.1174 -0.7052
   17CHL1  H21B 1238   5.903   0.007   4.883  0.1718  0.6641 -0.7149
   17CHL1  H21C 1239   5.777   0.133   4.902 -0.6168 -1.1920  0.4767
   17CHL1   C22 1240   6.043   0.215   4.813  0.3778 -0.6318  0.0160
   17CHL1  H22A 1241   6.113   0.301   4.815  2.5312 -2.3197  0.9447
   17CHL1  H22B 1242   6.098   0.120   4.794 -1.4624 -1.9114  0.8220
   17CHL1   C23 1243   5.945   0.238   4.697 -0.1852 -0.4670 -0.0592
   17CHL1  H23A 1244   5.877   0.152   4.684  0.2983 -0.9919  0.8222
   17CHL1  H23B 1245   5.883   0.326   4.723 -0.5897 -0.1621 -1.8809
   17CHL1   C24 1246   6.023   0.276   4.569 -0.7748  0.1456  0.2981
   17CHL1  H24A 1247   6.076   0.373   4.575 -1.0369  0.5029 -2.0992
   17CHL1  H24B 1248   6.101   0.198   4.552 -1.9965 -0.8438 -1.0092
   17CHL1   C25 1249   5.930   0.281   4.450 -0.1153 -0.2970 -0.5850
   17CHL1   H25 1250   5.867   0.190   4.457 -1.5267  0.7954  2.4097
   17CHL1   C26 1251   5.839   0.408   4.461  0.6008  0.3441 -0.4090
   17CHL1  H26A 1252   5.892   0.501   4.492 -2.7100  1.8254  1.3672
   17CHL1  H26B 1253   5.797   0.417   4.358 -0.1060 -2.3994 -0.4453
   17CHL1  H26C 1254   5.752   0.390   4.528  2.1262  0.9260  1.8648
   17CHL1   C27 1255   5.990   0.268   4.313 -0.7591 -0.0089  0.3190
   17CHL1  H27A 1256   6.062   0.350   4.293 -0.0660 -1.1160 -2.1157
   17CHL1  H27B 1257   6.044   0.171   4.301 -1.1718 -0.3153  0.8854
   17CHL1  H27C 1258   5.911   0.282   4.237  1.1329  0.1764 -1.7207
   18CHL1    C3 1259   6.731   3.678   5.871  0.6555  0.2233  0.3643
   18CHL1    H3 1260   6.640   3.630   5.913  0.4445  0.4479  0.1582
   18CHL1    O3 1261   6.810   3.727   5.978 -0.2019  0.0322 -0.0497
   18CHL1   H3' 1262   6.808   3.659   6.046  2.3495 -0.2145 -0.1222
   18CHL1    C4 1263   6.820   3.593   5.783 -0.2933 -0.1206  0.1076
   18CHL1   H4A 1264   6.914   3.651   5.770  0.7919 -1.5938  0.9913
   18CHL1   H4B 1265   6.844   3.504   5.845 -1.9933 -1.0722 -0.5183
   18CHL1    C5 1266   6.758   3.537   5.654 -0.5880 -0.9090  0.1813
   18CHL1    C6 1267   6.742   3.404   5.625 -0.6438 -0.0976 -0.1200
   18CHL1    H6 1268   6.782   3.333   5.699 -1.2644 -0.2984  0.0339
   18CHL1    C7 1269   6.693   3.358   5.496 -0.1149 -0.5899 -0.2676
   18CHL1   H7A 1270   6.757   3.282   5.445  0.4138 -1.2182  1.2909
   18CHL1   H7B 1271   6.589   3.321   5.508  0.1212 -1.1335  0.1602
   18CHL1    C8 1272   6.675   3.475   5.386 -0.1281  0.7588  0.0663
   18CHL1    H8 1273   6.774   3.491   5.340 -1.3013  0.7471 -2.6819
   18CHL1   C14 1274   6.573   3.435   5.275 -0.5332  0.2227  0.0262
   18CHL1   H14 1275   6.474   3.440   5.323 -1.3915  2.4631 -1.7656
   18CHL1   C15 1276   6.584   3.291   5.213 -0.3489 -0.1594  0.2032
   18CHL1  H15A 1277   6.694   3.274   5.213 -0.3919 -0.6820 -2.0012
   18CHL1  H15B 1278   6.544   3.204   5.269 -0.1749 -1.2872 -1.3752
   18CHL1   C16 1279   6.512   3.311   5.084 -0.7166  0.1777 -0.4807
   18CHL1  H16A 1280   6.588   3.309   5.002  1.0402 -1.0460  1.1110
   18CHL1  H16B 1281   6.431   3.237   5.070 -0.9351 -0.1445  2.0385
   18CHL1   C17 1282   6.455   3.458   5.078  0.0141 -0.4310  0.0768
   18CHL1   H17 1283   6.362   3.463   5.139  0.2578 -0.7224  0.4789
   18CHL1   C13 1284   6.552   3.537   5.166 -0.8707  0.1568  0.6442
   18CHL1   C18 1285   6.683   3.562   5.090  0.3523  0.4378  1.4480
   18CHL1  H18A 1286   6.665   3.630   5.004  0.5045 -0.4777  0.6830
   18CHL1  H18B 1287   6.759   3.608   5.157  2.7421 -1.3275  0.0946
   18CHL1  H18C 1288   6.728   3.467   5.055  1.2794  1.0996  0.8127
   18CHL1   C12 1289   6.505   3.670   5.224  0.1860  0.1234  0.1678
   18CHL1  H12A 1290   6.491   3.749   5.147 -0.1706 -0.6820 -0.6234
   18CHL1  H12B 1291   6.411   3.658   5.281  0.4173  1.7033  0.9339
   18CHL1   C11 1292   6.596   3.722   5.337  0.5487  0.8012 -0.8458
   18CHL1  H11A 1293   6.691   3.761   5.293  1.0194 -1.6584 -2.1787
   18CHL1  H11B 1294   6.541   3.805   5.388 -0.1093 -1.8049  3.1398
   18CHL1    C9 1295   6.619   3.607   5.446  0.3007  0.3369  0.0257
   18CHL1    H9 1296   6.523   3.577   5.493  0.3245  0.4626  0.1562
   18CHL1   C10 1297   6.709   3.658   5.562 -0.0033 -0.2135 -0.2582
   18CHL1   C19 1298   6.832   3.737   5.506 -0.3393  0.1418 -0.1928
   18CHL1  H19A 1299   6.905   3.759   5.587  2.0979  1.2315 -2.5181
   18CHL1  H19B 1300   6.880   3.674   5.428 -0.1306  1.2958 -1.0141
   18CHL1  H19C 1301   6.795   3.836   5.471  0.9787  0.0853 -1.8809
   18CHL1    C1 1302   6.615   3.739   5.657 -0.2636 -0.1626  0.1550
   18CHL1   H1A 1303   6.592   3.827   5.594 -0.3121  1.6133  2.5004
   18CHL1   H1B 1304   6.527   3.688   5.701  0.2382  1.2405  3.0813
   18CHL1    C2 1305   6.689   3.792   5.785  0.0019  0.5740 -0.2769
   18CHL1   H2A 1306   6.629   3.863   5.845 -1.2813  0.8773 -1.8431
   18CHL1   H2B 1307   6.771   3.852   5.742  1.6928 -1.2176  0.2647
   18CHL1   C20 1308   6.434   3.506   4.937 -0.2522  1.3810 -0.6293
   18CHL1   H20 1309   6.535   3.518   4.892 -0.1020 -1.6232 -1.2798
   18CHL1   C21 1310   6.363   3.635   4.942 -0.3541 -0.6305  0.0365
   18CHL1  H21A 1311   6.435   3.715   4.970 -1.0380  0.1973 -0.4862
   18CHL1  H21B 1312   6.283   3.623   5.018  0.3119 -3.4151  0.3899
   18CHL1  H21C 1313   6.319   3.668   4.845  0.3985  0.6891  0.1246
   18CHL1   C22 1314   6.348   3.407   4.845  0.2413 -0.6281 -0.5534
   18CHL1  H22A 1315   6.342   3.459   4.747 -0.4538  1.3317  0.4693
   18CHL1  H22B 1316   6.402   3.312   4.829 -0.0689 -0.7874 -0.6597
   18CHL1   C23 1317   6.206   3.369   4.897  0.3157 -0.4454 -0.7513
   18CHL1  H23A 1318   6.225   3.336   5.001 -0.2371  2.0807  0.2050
   18CHL1  H23B 1319   6.145   3.462   4.893  2.4898  1.1938  1.4310
   18CHL1   C24 1320   6.126   3.261   4.826  0.1944 -0.0692 -0.2144
   18CHL1  H24A 1321   6.110   3.300   4.723 -0.1588 -0.5367 -0.3370
   18CHL1  H24B 1322   6.183   3.167   4.810  1.4776  0.8611 -1.4189
   18CHL1   C25 1323   5.986   3.230   4.880  0.4108 -0.6127  0.1801
   18CHL1   H25 1324   5.924   3.322   4.869  2.7439  0.7304 -4.5415
   18CHL1   C26 1325   5.910   3.120   4.810 -0.2229  0.7648  0.0192
   18CHL1  H26A 1326   5.967   3.025   4.807 -2.0558 -0.4114  0.4086
   18CHL1  H26B 1327   5.812   3.110   4.862 -1.5967  1.2622 -2.2821
   18CHL1  H26C 1328   5.882   3.147   4.706  0.1676  0.1716 -0.2454
   18CHL1   C27 1329   5.994   3.194   5.020  0.5449 -0.0936 -0.7042
   18CHL1  H27A 1330   6.041   3.270   5.087  2.3524 -2.3662  0.7827
   18CHL1  H27B 1331   5.896   3.170   5.066 -0.3694  0.4434 -2.3367
   18CHL1  H27C 1332   6.060   3.107   5.043  2.3504  1.6567  1.2416
   19CHL1    C3 1333   1.802   4.465   6.127  0.4237 -0.3512 -0.1395
   19CHL1    H3 1334   1.693   4.476   6.113  0.6081 -0.0483 -1.4838
   19CHL1    O3 1335   1.836   4.524   6.246  0.1365 -0.2786 -0.2145
   19CHL1   H3' 1336   1.928   4.498   6.260 -0.5019 -2.8001 -0.2353
   19CHL1    C4 1337   1.851   4.326   6.105 -0.2786  0.1145 -0.5589
   19CHL1   H4A 1338   1.957   4.325   6.138 -0.5249  0.3751  0.2696
   19CHL1   H4B 1339   1.811   4.269   6.191  1.2362  0.7105  0.5952
   19CHL1    C5 1340   1.824   4.264   5.971  0.7386  0.2683 -0.0303
   19CHL1    C6 1341   1.762   4.146   5.951  0.8165 -0.1764 -0.2029
   19CHL1    H6 1342   1.728   4.095   6.042  0.7839 -1.7528 -1.0615
   19CHL1    C7 1343   1.750   4.079   5.813  0.9397  0.0522  0.3932
   19CHL1   H7A 1344   1.793   3.977   5.823  1.6424  0.0825 -1.7279
   19CHL1   H7B 1345   1.642   4.077   5.786  0.8307  3.4723  0.1316
   19CHL1    C8 1346   1.814   4.152   5.698  0.3757  0.3825  0.4951
   19CHL1    H8 1347   1.921   4.124   5.689 -0.3765 -3.4344  1.4661
   19CHL1   C14 1348   1.745   4.114   5.569 -1.2228  0.0541 -0.2590
   19CHL1   H14 1349   1.647   4.167   5.566 -1.1171  0.2180 -1.5623
   19CHL1   C15 1350   1.725   3.968   5.539 -0.5676  0.6434 -0.6919
   19CHL1  H15A 1351   1.808   3.908   5.583 -1.6111  0.2906  0.8768
   19CHL1  H15B 1352   1.627   3.931   5.577 -0.7027  1.5276 -0.1605
   19CHL1   C16 1353   1.720   3.961   5.389 -0.9202 -0.2807  0.3800
   19CHL1  H16A 1354   1.792   3.897   5.335  2.4965  1.9959  1.9203
   19CHL1  H16B 1355   1.624   3.928   5.342 -1.1814  0.9963 -0.0212
   19CHL1   C17 1356   1.740   4.103   5.336 -0.2316 -0.3609  0.4121
   19CHL1   H17 1357   1.638   4.148   5.334  0.3521  0.9861 -1.2880
   19CHL1   C13 1358   1.815   4.177   5.448 -0.5289  0.8605 -0.3057
   19CHL1   C18 1359   1.968   4.139   5.432 -0.1904  0.5175 -0.1018
   19CHL1  H18A 1360   2.032   4.155   5.521  0.5916 -2.0231 -0.1269
   19CHL1  H18B 1361   1.974   4.030   5.409  1.4917  0.6179 -0.2287
   19CHL1  H18C 1362   2.008   4.185   5.339 -1.6019 -1.5455 -1.8233
   19CHL1   C12 1363   1.791   4.324   5.465 -0.3355 -0.4743  0.1250
   19CHL1  H12A 1364   1.847   4.383   5.390  1.1494  0.4719  1.8852
   19CHL1  H12B 1365   1.684   4.353   5.459 -0.5600 -1.3315 -0.1719
   19CHL1   C11 1366   1.858   4.377   5.595 -0.1114  0.0807  0.7700
   19CHL1  H11A 1367   1.968   4.371   5.582 -0.3003  0.0595 -1.0566
   19CHL1  H11B 1368   1.833   4.485   5.605 -0.1137  0.0307  1.3897
   19CHL1    C9 1369   1.814   4.301   5.724  0.2020  0.5192 -0.0597
   19CHL1    H9 1370   1.706   4.329   5.730 -0.1111 -0.7443  0.4558
   19CHL1   C10 1371   1.877   4.346   5.853  0.7725  0.3948 -0.1371
   19CHL1   C19 1372   2.037   4.331   5.848 -0.4384 -0.2304 -0.3259
   19CHL1  H19A 1373   2.077   4.348   5.951 -0.8161 -2.5691  0.2601
   19CHL1  H19B 1374   2.067   4.226   5.826  0.4991 -0.2480  0.9465
   19CHL1  H19C 1375   2.082   4.402   5.775  0.8299 -1.9487 -1.2823
   19CHL1    C1 1376   1.833   4.496   5.884  0.2223 -0.0351 -0.1984
   19CHL1   H1A 1377   1.882   4.559   5.806  0.9324 -0.4380 -0.0906
   19CHL1   H1B 1378   1.723   4.509   5.873  0.2908  0.1534 -0.7415
   19CHL1    C2 1379   1.870   4.554   6.020  0.0210 -0.1545  0.1938
   19CHL1   H2A 1380   1.822   4.654   6.027 -2.7467 -1.4167  0.4725
   19CHL1   H2B 1381   1.980   4.551   6.035 -0.0540  0.0762  0.8297
   19CHL1   C20 1382   1.791   4.093   5.185 -0.4910  0.2642 -0.3293
   19CHL1   H20 1383   1.893   4.048   5.184 -0.6599 -0.1268 -0.1584
   19CHL1   C21 1384   1.795   4.239   5.139 -0.4470  0.7919  0.0809
   19CHL1  H21A 1385   1.873   4.295   5.195  1.8695 -1.1711 -0.9841
   19CHL1  H21B 1386   1.698   4.293   5.145 -0.0450  1.7290 -1.2164
   19CHL1  H21C 1387   1.837   4.243   5.036  2.5831 -2.0540  1.0267
   19CHL1   C22 1388   1.697   4.010   5.096  0.8567 -0.1208  0.8966
   19CHL1  H22A 1389   1.697   3.908   5.141  2.3225 -1.8601 -2.6316
   19CHL1  H22B 1390   1.595   4.052   5.103  1.7573  2.1129  1.3801
   19CHL1   C23 1391   1.730   4.019   4.947 -0.2262 -0.1243 -0.8807
   19CHL1  H23A 1392   1.705   4.118   4.902 -0.3564 -0.8405 -2.4274
   19CHL1  H23B 1393   1.838   3.997   4.932  0.1370  1.7471 -1.3679
   19CHL1   C24 1394   1.644   3.924   4.865 -0.9970 -0.1545  0.2104
   19CHL1  H24A 1395   1.651   3.825   4.916  0.0701  0.3055  0.9958
   19CHL1  H24B 1396   1.538   3.955   4.865 -2.3063 -3.9760  1.7722
   19CHL1   C25 1397   1.703   3.912   4.719  0.0741  0.4830  0.1733
   19CHL1   H25 1398   1.812   3.898   4.736  0.4358  1.0337 -1.5095
   19CHL1   C26 1399   1.639   3.792   4.647  0.2274  0.3350  0.4933
   19CHL1  H26A 1400   1.687   3.758   4.553  0.4607 -1.1604  1.1141
   19CHL1  H26B 1401   1.655   3.696   4.702 -0.6061 -1.1499 -1.7013
   19CHL1  H26C 1402   1.531   3.800   4.624  0.6231 -1.0723 -2.2761
   19CHL1   C27 1403   1.691   4.034   4.632 -0.1281 -0.0661 -0.0205
   19CHL1  H27A 1404   1.737   4.009   4.534  0.6356 -0.6814  0.4759
   19CHL1  H27B 1405   1.586   4.054   4.605 -0.4631 -1.0264  0.4835
   19CHL1  H27C 1406   1.746   4.121   4.674 -1.3962  0.5348  0.4517
   20CHL1    C3 1407   5.261   2.907   5.698  0.4274  0.3413  0.5363
   20CHL1    H3 1408   5.240   3.010   5.735 -2.1730  0.7315 -1.6468
   20CHL1    O3 1409   5.323   2.841   5.805  0.1498 -0.1292 -0.0088
   20CHL1   H3' 1410   5.303   2.749   5.789  0.5597 -0.6199  2.0178
   20CHL1    C4 1411   5.138   2.822   5.655 -0.6248 -0.7301 -0.5080
   20CHL1   H4A 1412   5.174   2.717   5.649 -0.0793 -0.7025  1.4330
   20CHL1   H4B 1413   5.059   2.829   5.733 -1.2241 -0.8011 -1.1016
   20CHL1    C5 1414   5.079   2.858   5.520 -0.4468  0.0549  0.1011
   20CHL1    C6 1415   4.951   2.898   5.509 -0.0932  0.0538 -0.5666
   20CHL1    H6 1416   4.880   2.895   5.593 -3.6254 -1.3254 -3.3470
   20CHL1    C7 1417   4.889   2.937   5.380  0.1402 -0.6704 -0.1484
   20CHL1   H7A 1418   4.784   2.903   5.377  0.1604 -0.9824  1.5938
   20CHL1   H7B 1419   4.894   3.048   5.379  3.0365 -0.6882  1.1052
   20CHL1    C8 1420   4.958   2.900   5.251  0.1317  0.3096 -0.1639
   20CHL1    H8 1421   4.949   2.790   5.242  2.6330 -0.0459  0.8284
   20CHL1   C14 1422   4.918   2.977   5.132  0.4667 -0.5091  0.1194
   20CHL1   H14 1423   4.948   3.084   5.142  0.7376 -0.6957  1.3520
   20CHL1   C15 1424   4.768   2.999   5.103 -0.1715  0.3502 -0.2255
   20CHL1  H15A 1425   4.711   2.905   5.116 -0.0170  0.3539  0.5581
   20CHL1  H15B 1426   4.717   3.076   5.165  0.3388 -0.7965  1.6805
   20CHL1   C16 1427   4.763   3.036   4.955  0.4494  0.6566  0.5394
   20CHL1  H16A 1428   4.682   2.976   4.910 -0.0695  1.9018 -0.2440
   20CHL1  H16B 1429   4.738   3.144   4.946 -2.0729  0.0987  0.0061
   20CHL1   C17 1430   4.906   3.007   4.893  0.0541 -0.0019 -0.7028
   20CHL1   H17 1431   4.958   3.103   4.873 -0.6444 -0.0160 -2.8169
   20CHL1   C13 1432   4.981   2.931   5.000  0.4327 -0.2753  0.0311
   20CHL1   C18 1433   4.945   2.783   4.983  0.0393  0.4304 -0.1925
   20CHL1  H18A 1434   4.834   2.776   4.972 -0.2842  0.3150  2.5025
   20CHL1  H18B 1435   4.988   2.733   4.894  0.5260  0.4721  0.0181
   20CHL1  H18C 1436   4.969   2.713   5.066 -1.4634 -0.3822 -0.4092
   20CHL1   C12 1437   5.137   2.948   5.008 -0.1403  0.4497 -0.0653
   20CHL1  H12A 1438   5.191   2.910   4.918 -0.3909  1.8964 -0.8622
   20CHL1  H12B 1439   5.155   3.056   5.027 -0.3898  0.4637  0.0867
   20CHL1   C11 1440   5.197   2.876   5.135  0.7102 -0.0193  0.6802
   20CHL1  H11A 1441   5.195   2.765   5.122  1.0703  0.1222 -0.7426
   20CHL1  H11B 1442   5.304   2.906   5.140  0.5759  0.4730  0.5709
   20CHL1    C9 1443   5.112   2.911   5.265 -0.6701  0.5384 -0.5584
   20CHL1    H9 1444   5.124   3.021   5.274 -1.5841  0.7844 -2.0330
   20CHL1   C10 1445   5.172   2.861   5.398  0.9369  0.5789 -0.7532
   20CHL1   C19 1446   5.224   2.713   5.376 -0.3287 -0.3219  0.4054
   20CHL1  H19A 1447   5.140   2.648   5.345 -1.5347  0.8299  1.1589
   20CHL1  H19B 1448   5.309   2.725   5.305 -1.2941 -2.1837 -1.1648
   20CHL1  H19C 1449   5.271   2.673   5.468 -0.0490  1.6885  1.1924
   20CHL1    C1 1450   5.293   2.948   5.442 -0.0751  0.0753 -0.1121
   20CHL1   H1A 1451   5.376   2.944   5.367  2.3798  0.6225  2.4038
   20CHL1   H1B 1452   5.255   3.052   5.440  0.2177  0.1796 -0.3945
   20CHL1    C2 1453   5.361   2.909   5.576  0.4155  0.7443  0.2577
   20CHL1   H2A 1454   5.445   2.982   5.583  0.5977  1.1243 -3.8402
   20CHL1   H2B 1455   5.412   2.810   5.576  2.3075  1.6697 -0.1593
   20CHL1   C20 1456   4.894   2.946   4.746 -0.2449 -0.2358 -0.6524
   20CHL1   H20 1457   4.838   2.850   4.752  0.0472 -0.3287  2.7524
   20CHL1   C21 1458   5.031   2.927   4.690 -0.1663  0.1875  0.5586
   20CHL1  H21A 1459   5.098   2.865   4.753 -0.2349 -0.2675  0.1867
   20CHL1  H21B 1460   5.074   3.029   4.679 -0.1170  0.1709  0.5989
   20CHL1  H21C 1461   5.021   2.882   4.589 -0.0201 -1.1579  1.1205
   20CHL1   C22 1462   4.822   3.040   4.646  0.5805 -0.3275 -0.0666
   20CHL1  H22A 1463   4.726   3.061   4.698  0.9118 -0.7471  0.7330
   20CHL1  H22B 1464   4.875   3.137   4.639  3.1545 -1.5823  0.9625
   20CHL1   C23 1465   4.814   2.986   4.504 -0.3552 -0.4433  0.3318
   20CHL1  H23A 1466   4.913   3.016   4.463 -0.9060  2.6936  1.0182
   20CHL1  H23B 1467   4.778   2.882   4.494 -3.4370  0.3795  1.6858
   20CHL1   C24 1468   4.725   3.074   4.415  0.0595  0.8586 -0.1725
   20CHL1  H24A 1469   4.635   3.080   4.479 -0.7439 -1.3836 -0.9800
   20CHL1  H24B 1470   4.773   3.174   4.402  0.5790  0.7784  0.9588
   20CHL1   C25 1471   4.684   3.020   4.282 -0.0413 -0.2322  0.0977
   20CHL1   H25 1472   4.625   2.927   4.295  0.5539 -0.3539  2.3270
   20CHL1   C26 1473   4.588   3.112   4.211  0.0446  0.1235  0.1662
   20CHL1  H26A 1474   4.549   3.078   4.113 -0.1679 -0.2862  0.3920
   20CHL1  H26B 1475   4.502   3.147   4.273  0.1214  0.2799  0.1852
   20CHL1  H26C 1476   4.641   3.205   4.183  0.1420 -0.2524 -0.9522
   20CHL1   C27 1477   4.811   2.981   4.195 -0.5460 -0.6574 -0.6816
   20CHL1  H27A 1478   4.879   2.910   4.245 -0.3656  0.4753  0.7409
   20CHL1  H27B 1479   4.767   2.922   4.111  0.5622 -0.2853 -1.5448
   20CHL1  H27C 1480   4.869   3.067   4.153  2.1723 -0.9242  2.1849
   21CHL1    C3 1481   1.090   3.448   6.152 -0.5588  0.5731  0.5360
   21CHL1    H3 1482   1.196   3.482   6.152  0.0011 -1.0567  1.4008
   21CHL1    O3 1483   1.084   3.350   6.245 -0.1848  0.3480  0.1016
   21CHL1   H3' 1484   1.169   3.309   6.229  1.8311  3.4975  1.6617
   21CHL1    C4 1485   0.996   3.559   6.178  0.2833  0.8116 -0.0643
   21CHL1   H4A 1486   0.898   3.510   6.198  0.8268 -0.0931  0.4840
   21CHL1   H4B 1487   1.031   3.607   6.272  2.6122 -2.0598  0.6928
   21CHL1    C5 1488   1.001   3.658   6.065  0.5336 -0.0887  0.4169
   21CHL1    C6 1489   1.043   3.783   6.079  0.6802  0.4503 -0.3141
   21CHL1    H6 1490   1.075   3.824   6.177 -0.9136  0.9873  0.0105
   21CHL1    C7 1491   1.012   3.890   5.975  0.1788 -0.5901 -0.3576
   21CHL1   H7A 1492   0.955   3.973   6.022  0.0866 -0.5992 -0.4533
   21CHL1   H7B 1493   1.095   3.951   5.933 -0.5966  0.6015 -0.2186
   21CHL1    C8 1494   0.927   3.836   5.856 -0.1574  0.2624 -0.1287
   21CHL1    H8 1495   0.823   3.827   5.894  0.0259  1.7124  0.8078
   21CHL1   C14 1496   0.943   3.943   5.741  0.3992  0.5627 -0.2806
   21CHL1   H14 1497   1.053   3.938   5.728  0.6467  1.9463  1.0184
   21CHL1   C15 1498   0.896   4.084   5.768 -0.6971  0.2107 -0.3394
   21CHL1  H15A 1499   0.802   4.061   5.824  1.8970 -0.3402  4.3291
   21CHL1  H15B 1500   0.959   4.130   5.847  0.0172 -1.7567  0.3086
   21CHL1   C16 1501   0.886   4.148   5.631 -0.2222 -0.0447 -0.8224
   21CHL1  H16A 1502   0.790   4.202   5.621 -1.3327 -2.0336 -1.3602
   21CHL1  H16B 1503   0.977   4.211   5.620  2.2166 -2.9635  1.0330
   21CHL1   C17 1504   0.887   4.031   5.525  0.1060  0.4154 -0.1894
   21CHL1   H17 1505   0.991   4.037   5.487 -0.4990  0.8805 -1.8351
   21CHL1   C13 1506   0.877   3.904   5.615  0.0444 -1.4158  0.5353
   21CHL1   C18 1507   0.726   3.878   5.640 -0.3560  0.6612 -0.4818
   21CHL1  H18A 1508   0.670   3.967   5.675 -0.9107 -0.7158  2.4844
   21CHL1  H18B 1509   0.676   3.842   5.547 -1.9063 -0.0016  0.5689
   21CHL1  H18C 1510   0.709   3.809   5.726 -0.0996 -0.8040 -1.5669
   21CHL1   C12 1511   0.956   3.778   5.568  0.2399 -0.3162 -0.4131
   21CHL1  H12A 1512   0.927   3.747   5.466 -0.0866 -0.1891 -0.3584
   21CHL1  H12B 1513   1.062   3.812   5.571  0.0831  0.2530 -1.2241
   21CHL1   C11 1514   0.934   3.663   5.668 -0.3186 -0.2459 -0.2478
   21CHL1  H11A 1515   0.830   3.625   5.670 -0.2210 -0.8450 -2.5824
   21CHL1  H11B 1516   0.991   3.573   5.636 -0.1572 -0.6327  1.0830
   21CHL1    C9 1517   0.984   3.707   5.811  0.6711  0.0314 -0.2462
   21CHL1    H9 1518   1.094   3.713   5.808  0.6934 -0.4464 -0.6379
   21CHL1   C10 1519   0.960   3.599   5.926 -0.3261  0.0092 -0.3344
   21CHL1   C19 1520   0.821   3.555   5.927  0.1976 -0.8151 -0.0377
   21CHL1  H19A 1521   0.752   3.642   5.918 -0.0576 -0.9880  0.2416
   21CHL1  H19B 1522   0.803   3.500   5.832 -2.5846 -0.6680  0.3118
   21CHL1  H19C 1523   0.801   3.492   6.017 -0.9252 -2.1953 -1.1880
   21CHL1    C1 1524   1.054   3.478   5.902 -0.3816 -0.9766  0.0160
   21CHL1   H1A 1525   1.032   3.417   5.812  2.9733 -2.9123  0.3032
   21CHL1   H1B 1526   1.161   3.503   5.885 -0.2022 -0.4220  1.7423
   21CHL1    C2 1527   1.060   3.379   6.014  0.3923  0.1785  0.2547
   21CHL1   H2A 1528   1.141   3.304   5.998 -1.3939 -2.0318  0.9647
   21CHL1   H2B 1529   0.966   3.320   6.008  0.7935 -0.3227 -2.6269
   21CHL1   C20 1530   0.790   4.058   5.411  0.0591  0.2708 -0.1074
   21CHL1   H20 1531   0.692   4.071   5.462 -0.6202  3.1840 -1.9548
   21CHL1   C21 1532   0.784   3.952   5.297  0.3103  0.6160  0.0544
   21CHL1  H21A 1533   0.764   3.847   5.327  0.7254  0.4203 -0.3347
   21CHL1  H21B 1534   0.876   3.940   5.235  1.3670  0.9430  1.4852
   21CHL1  H21C 1535   0.695   3.985   5.239 -1.3113 -1.8185  0.9985
   21CHL1   C22 1536   0.809   4.197   5.348  0.8211 -0.1258  0.0778
   21CHL1  H22A 1537   0.730   4.205   5.270  0.1881  0.6876  0.7852
   21CHL1  H22B 1538   0.798   4.279   5.422 -2.0024  1.5101 -1.9469
   21CHL1   C23 1539   0.950   4.229   5.289  0.2173  0.5139 -0.4992
   21CHL1  H23A 1540   1.020   4.232   5.375 -1.3734  2.0281  0.8113
   21CHL1  H23B 1541   0.990   4.138   5.239  2.4158  1.8271 -1.2972
   21CHL1   C24 1542   0.963   4.354   5.202 -0.0611 -0.5420 -0.2251
   21CHL1  H24A 1543   0.920   4.440   5.258  0.7601 -1.0421  1.2132
   21CHL1  H24B 1544   1.068   4.382   5.178 -0.4249  0.0749 -1.1857
   21CHL1   C25 1545   0.875   4.344   5.072  0.1766  0.1607 -0.3403
   21CHL1   H25 1546   0.766   4.347   5.095 -0.0773 -0.1418 -1.4490
   21CHL1   C26 1547   0.899   4.476   4.993  0.5726  0.5049 -0.4098
   21CHL1  H26A 1548   0.883   4.571   5.049 -0.3977  0.7845 -1.1501
   21CHL1  H26B 1549   1.002   4.480   4.952 -0.1408 -1.2336 -2.5475
   21CHL1  H26C 1550   0.830   4.482   4.907 -3.0088 -0.1630  2.1681
   21CHL1   C27 1551   0.900   4.214   4.991  0.5818  0.2825 -0.1207
   21CHL1  H27A 1552   1.008   4.196   4.972  0.3576 -0.4186 -0.7482
   21CHL1  H27B 1553   0.854   4.122   5.031 -0.8136  0.9606 -0.0771
   21CHL1  H27C 1554   0.854   4.205   4.890 -1.7288 -3.4435  1.0882
   22CHL1    C3 1555   6.528   5.414   6.058  0.0293 -0.3497  0.4163
   22CHL1    H3 1556   6.630   5.382   6.031  0.6395  1.5363  0.3360
   22CHL1    O3 1557   6.513   5.406   6.198 -0.0840 -0.3490  0.2477
   22CHL1   H3' 1558   6.519   5.497   6.227 -1.2932 -0.7249  1.8288
   22CHL1    C4 1559   6.489   5.560   5.999 -0.4375 -0.3530 -0.2623
   22CHL1   H4A 1560   6.396   5.602   6.044 -0.4424  0.8209 -1.3057
   22CHL1   H4B 1561   6.572   5.629   6.028 -0.6697  0.6101 -1.7702
   22CHL1    C5 1562   6.469   5.565   5.850 -0.8775 -0.3418 -0.6931
   22CHL1    C6 1563   6.529   5.661   5.776 -0.3894 -0.4148 -1.1695
   22CHL1    H6 1564   6.579   5.736   5.839 -2.6310 -1.9500  2.8537
   22CHL1    C7 1565   6.514   5.674   5.632 -0.1782  0.7201 -0.5771
   22CHL1   H7A 1566   6.511   5.781   5.602 -1.7827  1.3115  1.4701
   22CHL1   H7B 1567   6.601   5.622   5.586  0.5373  0.0040  1.4932
   22CHL1    C8 1568   6.391   5.591   5.576 -0.3610  0.1220  0.0188
   22CHL1    H8 1569   6.298   5.636   5.617 -1.3088  1.1571 -2.9934
   22CHL1   C14 1570   6.400   5.597   5.422  0.5310  0.3721 -0.5209
   22CHL1   H14 1571   6.496   5.551   5.391  1.8635  2.4171  0.3976
   22CHL1   C15 1572   6.394   5.732   5.356  0.1027 -0.5014 -0.5100
   22CHL1  H15A 1573   6.326   5.801   5.411  0.7587 -0.4432  0.2345
   22CHL1  H15B 1574   6.496   5.773   5.365 -0.1628  0.2144 -0.6837
   22CHL1   C16 1575   6.353   5.695   5.215 -0.7745 -0.1106 -0.1687
   22CHL1  H16A 1576   6.264   5.759   5.194 -0.7857  0.1238  0.5711
   22CHL1  H16B 1577   6.437   5.720   5.146 -0.9518  1.3906  0.1323
   22CHL1   C17 1578   6.308   5.546   5.205 -0.6266 -0.2984  0.1999
   22CHL1   H17 1579   6.394   5.481   5.175 -1.6615 -1.7955  0.3394
   22CHL1   C13 1580   6.289   5.509   5.355  0.3621 -0.2066  0.2833
   22CHL1   C18 1581   6.145   5.555   5.387  0.1310 -0.0062 -0.1819
   22CHL1  H18A 1582   6.138   5.549   5.497  2.3627  0.1475  0.0238
   22CHL1  H18B 1583   6.139   5.663   5.359  1.6382  0.2153  0.2200
   22CHL1  H18C 1584   6.079   5.481   5.337  2.6746 -1.9757 -0.8537
   22CHL1   C12 1585   6.311   5.362   5.403  0.6275  0.4498 -0.1559
   22CHL1  H12A 1586   6.242   5.288   5.358  3.1664 -1.7235 -0.7728
   22CHL1  H12B 1587   6.411   5.321   5.374  0.3232  0.1524 -0.8149
   22CHL1   C11 1588   6.299   5.346   5.553  0.2842  0.6038  0.2733
   22CHL1  H11A 1589   6.190   5.357   5.571  0.1630 -0.9929  0.6417
   22CHL1  H11B 1590   6.322   5.243   5.589  1.2195  0.2687 -1.1902
   22CHL1    C9 1591   6.392   5.446   5.627 -0.0133  0.2115 -0.7319
   22CHL1    H9 1592   6.496   5.414   5.601  0.0163 -1.7900  1.4194
   22CHL1   C10 1593   6.393   5.449   5.788  0.0058  0.1021 -0.1299
   22CHL1   C19 1594   6.247   5.467   5.831 -0.1105 -0.8925  0.0159
   22CHL1  H19A 1595   6.192   5.371   5.828  0.1631 -1.1073  1.3572
   22CHL1  H19B 1596   6.229   5.490   5.938 -0.5573 -4.0532  0.7096
   22CHL1  H19C 1597   6.190   5.547   5.777  0.7362  0.1119  0.5818
   22CHL1    C1 1598   6.441   5.318   5.842 -0.3988  0.9306  0.1111
   22CHL1   H1A 1599   6.372   5.240   5.803  0.2067  1.5225 -2.3053
   22CHL1   H1B 1600   6.548   5.300   5.815  0.3260 -0.9332  3.5324
   22CHL1    C2 1601   6.440   5.312   5.999  0.3938  0.2726  0.3461
   22CHL1   H2A 1602   6.485   5.213   6.020  1.1588  0.8246  1.3729
   22CHL1   H2B 1603   6.335   5.309   6.035  0.2464 -1.2822 -0.1371
   22CHL1   C20 1604   6.204   5.523   5.090  0.1752  0.4930 -0.1611
   22CHL1   H20 1605   6.111   5.575   5.124 -1.3819 -1.7501 -0.7652
   22CHL1   C21 1606   6.167   5.370   5.085 -0.8575 -0.5837 -0.2312
   22CHL1  H21A 1607   6.087   5.337   5.015  0.9051 -1.1665 -2.0631
   22CHL1  H21B 1608   6.138   5.326   5.183 -1.2719 -0.0214 -0.0938
   22CHL1  H21C 1609   6.250   5.322   5.029  0.7646 -0.1899  1.7244
   22CHL1   C22 1610   6.246   5.576   4.943 -0.5616 -0.0865  0.1195
   22CHL1  H22A 1611   6.274   5.683   4.942  3.2692 -0.9419 -1.5003
   22CHL1  H22B 1612   6.337   5.518   4.915 -0.2236  0.9829 -1.0348
   22CHL1   C23 1613   6.138   5.558   4.832  0.3611 -0.6079  0.1914
   22CHL1  H23A 1614   6.120   5.449   4.826  1.6150 -0.7570 -1.4859
   22CHL1  H23B 1615   6.037   5.598   4.859  0.5685 -0.1355  0.2866
   22CHL1   C24 1616   6.192   5.613   4.692  0.3248  0.3488  0.0463
   22CHL1  H24A 1617   6.260   5.700   4.699  0.2980  0.2848  1.3536
   22CHL1  H24B 1618   6.257   5.534   4.649  0.0409  0.3829 -0.4586
   22CHL1   C25 1619   6.074   5.627   4.595  0.9666 -0.5174 -0.0318
   22CHL1   H25 1620   5.984   5.668   4.646 -0.1161 -2.1729 -0.5179
   22CHL1   C26 1621   6.103   5.718   4.479  0.3415 -0.1896 -0.4978
   22CHL1  H26A 1622   6.013   5.729   4.415  0.0442  0.7416  0.0635
   22CHL1  H26B 1623   6.136   5.822   4.499  0.6872 -0.5715  1.0209
   22CHL1  H26C 1624   6.180   5.668   4.417 -0.9363 -1.6814 -0.9470
   22CHL1   C27 1625   6.032   5.494   4.532 -0.8841  0.0750  0.4446
   22CHL1  H27A 1626   5.942   5.507   4.467 -0.3206 -1.6717 -0.7839
   22CHL1  H27B 1627   6.111   5.467   4.458 -1.3336  1.9308 -0.7942
   22CHL1  H27C 1628   6.027   5.421   4.615 -1.0079  0.3635  0.6930
   23CHL1    C3 1629   4.384   3.843   5.492 -0.1843 -0.0360  0.2002
   23CHL1    H3 1630   4.462   3.769   5.465 -0.2305  0.0760 -0.2531
   23CHL1    O3 1631   4.390   3.877   5.626  0.2942  0.0182  0.6515
   23CHL1   H3' 1632   4.468   3.834   5.661  0.9527  0.9956  0.4604
   23CHL1    C4 1633   4.389   3.966   5.405 -0.7088 -0.2286 -0.2261
   23CHL1   H4A 1634   4.321   4.046   5.442  0.4416  0.4906  0.4239
   23CHL1   H4B 1635   4.493   4.007   5.407 -0.2607 -1.3466  1.3030
   23CHL1    C5 1636   4.350   3.930   5.259  0.7635 -0.3411  0.4227
   23CHL1    C6 1637   4.431   3.957   5.160  0.7552 -0.5808  0.8536
   23CHL1    H6 1638   4.525   4.013   5.165  0.4367 -0.0025  0.3740
   23CHL1    C7 1639   4.391   3.927   5.021 -0.3189  0.7657  0.2112
   23CHL1   H7A 1640   4.421   4.002   4.945 -1.4124  1.5319  0.5093
   23CHL1   H7B 1641   4.443   3.831   5.004 -0.1466  1.1194 -1.3741
   23CHL1    C8 1642   4.238   3.901   5.003 -0.0843 -0.2949  0.3646
   23CHL1    H8 1643   4.192   4.000   5.026 -0.9655 -1.0312  1.9466
   23CHL1   C14 1644   4.207   3.850   4.854  0.1125 -0.7551  0.4185
   23CHL1   H14 1645   4.270   3.759   4.845  2.2557  0.2982  3.3143
   23CHL1   C15 1646   4.247   3.941   4.738 -0.3106  0.1643  0.2446
   23CHL1  H15A 1647   4.217   4.045   4.765 -4.1329 -0.3181 -1.4789
   23CHL1  H15B 1648   4.355   3.942   4.712 -0.3204  1.1981  0.1908
   23CHL1   C16 1649   4.165   3.901   4.625 -0.5290  0.2214  0.3056
   23CHL1  H16A 1650   4.110   3.991   4.590 -1.4439  0.2329  1.6449
   23CHL1  H16B 1651   4.223   3.860   4.540  0.5577 -0.3620  1.2970
   23CHL1   C17 1652   4.055   3.797   4.681 -1.2060 -0.1624  0.0584
   23CHL1   H17 1653   4.098   3.697   4.659 -0.9609  0.2679 -1.5592
   23CHL1   C13 1654   4.062   3.810   4.836  0.7950  0.2387 -0.2616
   23CHL1   C18 1655   3.965   3.931   4.873  0.9076  0.3461 -0.0068
   23CHL1  H18A 1656   3.857   3.906   4.872 -0.3510  4.6887  2.6122
   23CHL1  H18B 1657   3.996   3.976   4.969  2.4698  0.6071 -0.5984
   23CHL1  H18C 1658   3.967   4.008   4.793 -0.2494 -0.5144 -0.9052
   23CHL1   C12 1659   4.037   3.688   4.930 -0.2594  0.0224 -0.4482
   23CHL1  H12A 1660   3.932   3.660   4.907  0.7871 -1.8368 -3.6048
   23CHL1  H12B 1661   4.102   3.603   4.900  2.3396  1.7243  0.0142
   23CHL1   C11 1662   4.048   3.729   5.081  0.1736 -0.4067  0.8151
   23CHL1  H11A 1663   3.970   3.803   5.108 -0.3342 -0.6451  0.0287
   23CHL1  H11B 1664   4.041   3.641   5.149  1.6984  0.5533  2.3051
   23CHL1    C9 1665   4.191   3.796   5.101 -0.1806 -0.2525 -0.2341
   23CHL1    H9 1666   4.271   3.720   5.091  3.7924  3.3363  1.1924
   23CHL1   C10 1667   4.219   3.858   5.239  0.3111  0.1228  0.8351
   23CHL1   C19 1668   4.106   3.968   5.276 -0.9334 -0.5076  0.4243
   23CHL1  H19A 1669   4.010   3.914   5.286  0.5679 -3.6813 -0.8268
   23CHL1  H19B 1670   4.133   4.001   5.379  1.1826  1.1887 -0.5849
   23CHL1  H19C 1671   4.093   4.055   5.208 -0.4987 -1.1473 -0.5141
   23CHL1    C1 1672   4.213   3.740   5.338 -0.0344  0.3027 -1.2462
   23CHL1   H1A 1673   4.122   3.677   5.342  1.3500 -1.8822  3.5177
   23CHL1   H1B 1674   4.295   3.671   5.308 -0.1906 -0.9655  1.0172
   23CHL1    C2 1675   4.252   3.767   5.482 -0.4427  0.7790  0.9667
   23CHL1   H2A 1676   4.256   3.665   5.528  3.0831 -0.3847 -1.4632
   23CHL1   H2B 1677   4.173   3.828   5.528  0.7464  2.1933  1.1959
   23CHL1   C20 1678   3.917   3.799   4.604 -0.2720  0.5282 -0.6334
   23CHL1   H20 1679   3.854   3.882   4.642 -1.8215 -0.7251 -0.3367
   23CHL1   C21 1680   3.840   3.671   4.647  0.8212 -0.0487  1.0301
   23CHL1  H21A 1681   3.912   3.587   4.641 -0.3727 -1.1472  1.4431
   23CHL1  H21B 1682   3.752   3.644   4.584  1.4179 -2.1202  1.0200
   23CHL1  H21C 1683   3.806   3.683   4.752  4.3750  0.4491  2.2402
   23CHL1   C22 1684   3.922   3.805   4.455 -0.2288  0.1447 -0.1744
   23CHL1  H22A 1685   3.822   3.820   4.409 -0.4625  1.1693  0.6167
   23CHL1  H22B 1686   3.972   3.899   4.426  1.2530 -1.2020 -2.2446
   23CHL1   C23 1687   3.997   3.686   4.384  0.1360 -0.3748 -0.8637
   23CHL1  H23A 1688   4.102   3.670   4.415 -0.7036 -0.1595  2.4377
   23CHL1  H23B 1689   3.945   3.590   4.406  0.1374 -0.3398 -0.7059
   23CHL1   C24 1690   4.008   3.707   4.231  0.4523  0.2838 -0.1989
   23CHL1  H24A 1691   3.962   3.808   4.225  1.3152  0.7362  0.5246
   23CHL1  H24B 1692   4.115   3.716   4.206  1.0383  1.6347  2.4091
   23CHL1   C25 1693   3.925   3.624   4.129 -0.3932 -0.3973  0.5018
   23CHL1   H25 1694   3.957   3.518   4.137  1.7780 -0.3140 -4.1676
   23CHL1   C26 1695   3.772   3.633   4.154  0.3312 -0.5180 -0.3588
   23CHL1  H26A 1696   3.717   3.568   4.083 -2.4001  1.7445 -0.4714
   23CHL1  H26B 1697   3.746   3.599   4.257 -2.0702  0.9876 -0.4063
   23CHL1  H26C 1698   3.735   3.735   4.131  2.1208 -0.0201 -1.2153
   23CHL1   C27 1699   3.963   3.668   3.985 -0.5029 -0.1264  0.0763
   23CHL1  H27A 1700   4.066   3.656   3.944 -0.5020  1.9748 -0.6888
   23CHL1  H27B 1701   3.892   3.634   3.906 -0.1319  0.3596 -0.4723
   23CHL1  H27C 1702   3.941   3.777   3.983  0.1587  0.0647  1.7662
   24CHL1    C3 1703   4.731   1.879   5.552  0.4483 -0.7140 -0.1941
   24CHL1    H3 1704   4.625   1.910   5.550  0.2768 -1.3105 -0.3859
   24CHL1    O3 1705   4.759   1.853   5.686  0.0307  0.1099 -0.2162
   24CHL1   H3' 1706   4.846   1.815   5.686 -0.2948 -0.7268 -1.9036
   24CHL1    C4 1707   4.741   1.748   5.465  0.0810 -0.3907  0.0552
   24CHL1   H4A 1708   4.845   1.708   5.470 -0.0763 -1.2115 -2.0699
   24CHL1   H4B 1709   4.676   1.672   5.513 -0.8047 -1.7880 -3.1220
   24CHL1    C5 1710   4.703   1.786   5.321 -0.2486 -0.5259  0.4526
   24CHL1    C6 1711   4.609   1.711   5.261 -0.5508 -0.3800 -0.3930
   24CHL1    H6 1712   4.559   1.631   5.318 -2.2284  0.4340 -0.6452
   24CHL1    C7 1713   4.563   1.718   5.115  0.2602 -0.1919 -0.4058
   24CHL1   H7A 1714   4.560   1.615   5.073 -2.0800  0.0531 -0.9830
   24CHL1   H7B 1715   4.455   1.744   5.116  0.5920  1.3520 -1.9215
   24CHL1    C8 1716   4.656   1.811   5.039 -0.0624 -0.3348 -0.7133
   24CHL1    H8 1717   4.749   1.755   5.016  0.0509 -0.3191 -0.2981
   24CHL1   C14 1718   4.590   1.844   4.912 -0.1310 -0.1932  0.0889
   24CHL1   H14 1719   4.492   1.888   4.940 -0.7604 -0.8153 -1.0569
   24CHL1   C15 1720   4.545   1.726   4.810 -0.5106 -0.1287  0.4230
   24CHL1  H15A 1721   4.637   1.663   4.801 -1.1217 -0.8073 -1.5211
   24CHL1  H15B 1722   4.458   1.666   4.842 -0.7892 -0.6523 -1.2036
   24CHL1   C16 1723   4.527   1.803   4.682 -0.5317  0.2256  0.1614
   24CHL1  H16A 1724   4.590   1.761   4.602  0.8948  1.1745  0.7571
   24CHL1  H16B 1725   4.420   1.787   4.658 -0.4101  0.1112 -0.2968
   24CHL1   C17 1726   4.562   1.953   4.703 -0.2092  0.6324 -0.4586
   24CHL1   H17 1727   4.475   2.011   4.738  1.8120  3.7233 -0.1805
   24CHL1   C13 1728   4.660   1.951   4.823 -0.1201 -0.3837 -0.6752
   24CHL1   C18 1729   4.802   1.903   4.777  0.3396 -0.1466 -0.0443
   24CHL1  H18A 1730   4.852   1.981   4.716 -0.0258  0.1262  0.0015
   24CHL1  H18B 1731   4.791   1.819   4.704  2.7354  0.5430 -1.2932
   24CHL1  H18C 1732   4.874   1.869   4.854  0.3451 -0.8160 -0.3387
   24CHL1   C12 1733   4.673   2.078   4.905  0.1173 -0.3764  0.1367
   24CHL1  H12A 1734   4.727   2.155   4.846 -1.5722 -1.9036 -3.7811
   24CHL1  H12B 1735   4.578   2.127   4.936  0.3494 -0.4072  0.9368
   24CHL1   C11 1736   4.749   2.058   5.043  0.2224 -0.1544  0.4913
   24CHL1  H11A 1737   4.853   2.032   5.014 -0.2375 -3.1428  1.2559
   24CHL1  H11B 1738   4.748   2.149   5.107  3.5114  0.5238 -0.2280
   24CHL1    C9 1739   4.687   1.934   5.120  0.4501 -0.3702  0.3399
   24CHL1    H9 1740   4.583   1.969   5.135  0.0540  0.4943 -3.4437
   24CHL1   C10 1741   4.767   1.897   5.247  0.0529  0.3161  0.2543
   24CHL1   C19 1742   4.908   1.850   5.203 -0.2889  0.6280  0.2934
   24CHL1  H19A 1743   4.886   1.764   5.135 -3.3725  0.2944  1.5344
   24CHL1  H19B 1744   4.965   1.930   5.152  1.9480  0.2742  2.0956
   24CHL1  H19C 1745   4.970   1.815   5.288 -2.1223 -0.8555  1.1105
   24CHL1    C1 1746   4.767   2.011   5.352 -0.0144 -0.2761  0.5306
   24CHL1   H1A 1747   4.828   2.092   5.307 -1.1960 -0.0922 -0.8324
   24CHL1   H1B 1748   4.665   2.053   5.362 -0.4507 -1.5609  1.6637
   24CHL1    C2 1749   4.814   1.989   5.496 -0.2277 -0.5147 -0.0200
   24CHL1   H2A 1750   4.803   2.080   5.560  2.3440 -1.0014  1.2745
   24CHL1   H2B 1751   4.919   1.955   5.507 -0.7976 -1.6015  3.0344
   24CHL1   C20 1752   4.605   2.020   4.565 -0.8499 -0.1146 -0.7529
   24CHL1   H20 1753   4.695   1.968   4.522 -0.4105 -0.5876  0.6900
   24CHL1   C21 1754   4.637   2.168   4.599 -0.0754 -0.6583  0.4135
   24CHL1  H21A 1755   4.736   2.171   4.648  0.0118 -0.1617  0.2171
   24CHL1  H21B 1756   4.560   2.211   4.666  0.1570 -1.1915  1.0372
   24CHL1  H21C 1757   4.639   2.230   4.507 -0.3782 -2.8317 -1.1353
   24CHL1   C22 1758   4.500   2.016   4.446  0.6000  0.1696  0.2947
   24CHL1  H22A 1759   4.407   2.056   4.492 -0.1698 -0.5284 -0.6056
   24CHL1  H22B 1760   4.539   2.082   4.365  1.0505  0.0736  0.4311
   24CHL1   C23 1761   4.467   1.885   4.377  0.7340  0.0864  0.2161
   24CHL1  H23A 1762   4.566   1.834   4.374  2.7694  3.7715 -0.1704
   24CHL1  H23B 1763   4.395   1.822   4.435  2.5258 -3.0551 -0.7193
   24CHL1   C24 1764   4.401   1.906   4.240 -0.1740  0.7006  0.2980
   24CHL1  H24A 1765   4.302   1.955   4.234 -0.2627  0.4245 -0.5073
   24CHL1  H24B 1766   4.465   1.964   4.171 -1.6383  2.1361  0.1093
   24CHL1   C25 1767   4.386   1.770   4.164 -0.3476 -0.2381  0.5736
   24CHL1   H25 1768   4.488   1.727   4.162 -0.3489 -0.2535  0.8089
   24CHL1   C26 1769   4.292   1.671   4.234 -0.2625  0.0149 -0.3679
   24CHL1  H26A 1770   4.329   1.620   4.325 -1.6834  0.5259  0.5330
   24CHL1  H26B 1771   4.192   1.714   4.255 -0.7501  0.1015 -2.6391
   24CHL1  H26C 1772   4.274   1.591   4.159  1.6248  0.2159 -1.0993
   24CHL1   C27 1773   4.324   1.797   4.028  0.6807  0.2162  0.6033
   24CHL1  H27A 1774   4.393   1.863   3.972 -1.2428 -0.0818 -2.3287
   24CHL1  H27B 1775   4.305   1.705   3.970  2.6777  0.9120 -1.2817
   24CHL1  H27C 1776   4.223   1.844   4.034  0.2561 -0.2979 -1.6182
   25CHL1    C3 1777   0.161   5.535   6.048 -0.2056 -0.6806 -0.2316
   25CHL1    H3 1778   0.052   5.536   6.071  0.1770 -0.6848  1.7941
   25CHL1    O3 1779   0.221   5.530   6.182  0.4404 -0.2413  0.3637
   25CHL1   H3' 1780   0.279   5.604   6.200 -0.6800  1.1563 -1.4533
   25CHL1    C4 1781   0.200   5.412   5.969  0.1736 -0.5689 -0.3077
   25CHL1   H4A 1782   0.310   5.401   5.968  0.1480 -0.8563  0.1179
   25CHL1   H4B 1783   0.163   5.329   6.033 -0.2434  0.8410  1.3525
   25CHL1    C5 1784   0.147   5.411   5.828 -0.1526 -0.0660  0.3089
   25CHL1    C6 1785   0.079   5.305   5.779 -0.1510  0.4945 -0.1925
   25CHL1    H6 1786   0.058   5.217   5.841 -0.8228  0.9788  0.2793
   25CHL1    C7 1787   0.035   5.295   5.638 -0.3662  0.7324  0.2457
   25CHL1   H7A 1788   0.079   5.202   5.596 -0.0827  0.5423  0.9389
   25CHL1   H7B 1789  -0.075   5.287   5.636 -0.2938 -0.2126 -1.3119
   25CHL1    C8 1790   0.076   5.413   5.537  0.2987 -0.2080  0.7078
   25CHL1    H8 1791   0.178   5.390   5.499  0.2368  0.9622 -0.2217
   25CHL1   C14 1792  -0.024   5.428   5.422  0.1507  0.1558  0.3472
   25CHL1   H14 1793  -0.126   5.460   5.453 -0.3413  0.3474 -1.3569
   25CHL1   C15 1794  -0.064   5.308   5.340 -0.2301  0.1268  0.0602
   25CHL1  H15A 1795   0.029   5.253   5.312 -0.0302  1.4136 -1.9937
   25CHL1  H15B 1796  -0.132   5.231   5.382 -0.7724  0.9672  0.7575
   25CHL1   C16 1797  -0.131   5.376   5.217  0.0257 -0.3224  0.5905
   25CHL1  H16A 1798  -0.099   5.327   5.123  0.1077 -2.3448  1.6186
   25CHL1  H16B 1799  -0.240   5.371   5.233  0.0711 -0.5314  0.8512
   25CHL1   C17 1800  -0.083   5.528   5.214 -0.2901  0.0805  0.4969
   25CHL1   H17 1801  -0.167   5.595   5.240 -0.1298  1.1439 -1.5216
   25CHL1   C13 1802   0.019   5.536   5.319 -0.5750  0.8206 -0.7831
   25CHL1   C18 1803   0.157   5.502   5.264 -0.2728 -0.5439 -0.0993
   25CHL1  H18A 1804   0.239   5.491   5.339 -1.9364 -0.3489  1.8528
   25CHL1  H18B 1805   0.158   5.418   5.192 -0.8514  0.4262 -1.2652
   25CHL1  H18C 1806   0.184   5.598   5.216  1.5448 -0.7312  0.4616
   25CHL1   C12 1807   0.016   5.665   5.400 -0.4000  0.0249 -0.4291
   25CHL1  H12A 1808   0.035   5.758   5.342 -2.4611  1.5089  1.1181
   25CHL1  H12B 1809  -0.089   5.673   5.434 -0.0166  2.4528  0.3703
   25CHL1   C11 1810   0.118   5.662   5.515 -0.1307  0.4450  0.2951
   25CHL1  H11A 1811   0.223   5.651   5.480  0.6155  0.5058  2.3691
   25CHL1  H11B 1812   0.111   5.762   5.562 -1.1877  0.7807 -0.5374
   25CHL1    C9 1813   0.086   5.548   5.612  0.2512  0.5569  0.1046
   25CHL1    H9 1814  -0.020   5.563   5.639  0.2997  2.0794 -0.4462
   25CHL1   C10 1815   0.172   5.539   5.749 -0.2681  0.0656  0.0373
   25CHL1   C19 1816   0.324   5.555   5.720 -1.2391 -0.5685 -0.0069
   25CHL1  H19A 1817   0.335   5.652   5.667  0.4222 -0.0744  1.1381
   25CHL1  H19B 1818   0.389   5.573   5.808 -2.5238 -1.4686  1.1930
   25CHL1  H19C 1819   0.368   5.481   5.651  0.2772  1.9217 -1.8484
   25CHL1    C1 1820   0.137   5.658   5.839  0.1771 -0.1401 -0.8065
   25CHL1   H1A 1821   0.157   5.754   5.786 -0.3514 -0.8320 -2.3152
   25CHL1   H1B 1822   0.027   5.647   5.846  0.3080 -0.8882  0.2832
   25CHL1    C2 1823   0.205   5.663   5.981  1.5586 -0.1857  0.1018
   25CHL1   H2A 1824   0.168   5.752   6.035  0.9314  0.1586 -0.8711
   25CHL1   H2B 1825   0.315   5.679   5.976  1.6403 -0.9736 -1.3535
   25CHL1   C20 1826  -0.047   5.584   5.077  0.2199 -0.6510  0.3251
   25CHL1   H20 1827   0.047   5.533   5.047  1.2341  0.1921  1.9596
   25CHL1   C21 1828  -0.011   5.732   5.078  0.5920 -0.1027 -0.2423
   25CHL1  H21A 1829   0.027   5.770   4.981  1.5743  0.6261  0.4075
   25CHL1  H21B 1830   0.072   5.750   5.151 -0.9225  3.0765  0.8700
   25CHL1  H21C 1831  -0.099   5.792   5.108 -0.5543 -0.1303 -3.2347
   25CHL1   C22 1832  -0.164   5.558   4.981  0.0167 -0.1532  0.0850
   25CHL1  H22A 1833  -0.188   5.450   4.988  0.5995 -0.2237  1.3964
   25CHL1  H22B 1834  -0.247   5.624   5.016 -0.0822  0.1598 -0.7231
   25CHL1   C23 1835  -0.135   5.589   4.830  0.7414 -0.2000  0.7159
   25CHL1  H23A 1836  -0.165   5.691   4.796  1.6548 -0.2905 -0.3982
   25CHL1  H23B 1837  -0.030   5.566   4.804  0.0253 -2.6748 -0.1901
   25CHL1   C24 1838  -0.222   5.503   4.735  0.4885  0.3053  0.4455
   25CHL1  H24A 1839  -0.230   5.403   4.783  0.3169  0.8214  1.5416
   25CHL1  H24B 1840  -0.322   5.550   4.726  0.5479  0.6948  1.5879
   25CHL1   C25 1841  -0.169   5.497   4.581  0.3150 -0.3904  0.4065
   25CHL1   H25 1842  -0.074   5.440   4.575  0.5096  0.0743 -2.2896
   25CHL1   C26 1843  -0.253   5.405   4.492 -0.2073 -0.0609  0.0282
   25CHL1  H26A 1844  -0.268   5.315   4.555 -1.6447 -0.5763 -0.9773
   25CHL1  H26B 1845  -0.347   5.451   4.454  0.3347  1.2572  0.2277
   25CHL1  H26C 1846  -0.190   5.387   4.402 -0.4503  1.9390 -0.5996
   25CHL1   C27 1847  -0.149   5.630   4.512 -0.1425 -0.1885  0.2581
   25CHL1  H27A 1848  -0.236   5.683   4.466 -1.7165 -1.3006  1.8022
   25CHL1  H27B 1849  -0.094   5.698   4.580 -1.2773  3.4585 -2.1479
   25CHL1  H27C 1850  -0.089   5.605   4.422  1.5493  1.6095  0.8118
   26CHL1    C3 1851   0.504   6.036   5.946  0.8458 -0.3811  0.1298
   26CHL1    H3 1852   0.422   6.110   5.945  2.9632  2.2280  2.1159
   26CHL1    O3 1853   0.527   5.975   6.071  0.2394  0.0190  0.0011
   26CHL1   H3' 1854   0.604   6.021   6.104 -0.1858 -0.3872  1.6666
   26CHL1    C4 1855   0.478   5.924   5.836 -0.1137  0.6517  0.4253
   26CHL1   H4A 1856   0.556   5.846   5.849  0.9493  1.6735  0.3519
   26CHL1   H4B 1857   0.384   5.872   5.862  0.6169 -0.8066  0.2372
   26CHL1    C5 1858   0.464   5.968   5.693  0.0327 -0.3345  0.3848
   26CHL1    C6 1859   0.347   5.953   5.622 -0.0500 -0.6074  0.0655
   26CHL1    H6 1860   0.255   5.913   5.668 -1.3812  0.3229 -1.6622
   26CHL1    C7 1861   0.342   5.992   5.475  0.5866 -0.2907  0.5658
   26CHL1   H7A 1862   0.298   5.912   5.412 -1.3546  0.5985  0.7175
   26CHL1   H7B 1863   0.292   6.091   5.478 -0.3955 -0.7338 -0.5428
   26CHL1    C8 1864   0.478   6.031   5.412  1.0803  0.0872 -0.3727
   26CHL1    H8 1865   0.534   5.935   5.413  2.2488  0.7060 -1.7640
   26CHL1   C14 1866   0.448   6.106   5.286 -0.9940 -0.9337  0.5737
   26CHL1   H14 1867   0.385   6.194   5.311 -2.2691 -1.0400 -1.9748
   26CHL1   C15 1868   0.356   6.038   5.187 -0.2800 -0.3156 -0.1213
   26CHL1  H15A 1869   0.405   5.942   5.160 -0.5499 -0.4194 -0.2459
   26CHL1  H15B 1870   0.253   6.010   5.218 -0.1190  1.1166  1.9329
   26CHL1   C16 1871   0.369   6.120   5.058  0.2247  0.6393  0.0903
   26CHL1  H16A 1872   0.392   6.061   4.966  1.5042  0.3643  0.5738
   26CHL1  H16B 1873   0.284   6.186   5.030 -1.1751 -1.4082 -0.8020
   26CHL1   C17 1874   0.489   6.219   5.082  0.5128  0.1220 -0.0507
   26CHL1   H17 1875   0.439   6.312   5.118 -1.9893 -0.1720 -2.4501
   26CHL1   C13 1876   0.566   6.158   5.207  0.5529  1.3816  1.0663
   26CHL1   C18 1877   0.662   6.042   5.163  0.0965 -0.2787 -0.5123
   26CHL1  H18A 1878   0.617   5.972   5.091 -0.4648  0.0777 -0.5193
   26CHL1  H18B 1879   0.758   6.082   5.125  0.9549 -2.8455 -1.1660
   26CHL1  H18C 1880   0.685   5.985   5.256  3.5655  0.7792 -0.5671
   26CHL1   C12 1881   0.638   6.255   5.304 -0.6983 -0.1027 -0.0983
   26CHL1  H12A 1882   0.736   6.276   5.255 -0.6832 -0.6040 -0.2879
   26CHL1  H12B 1883   0.577   6.347   5.315  0.7718  0.7434  1.4966
   26CHL1   C11 1884   0.679   6.187   5.443 -0.1758 -0.1477 -0.1691
   26CHL1  H11A 1885   0.764   6.117   5.426 -0.2524 -0.7396  1.6790
   26CHL1  H11B 1886   0.711   6.275   5.503  2.0035 -0.1102 -1.3028
   26CHL1    C9 1887   0.554   6.119   5.513 -0.0202  0.1761 -0.2969
   26CHL1    H9 1888   0.483   6.202   5.534  0.9011  0.3742  2.4797
   26CHL1   C10 1889   0.588   6.051   5.645  0.0597  0.4406  0.1559
   26CHL1   C19 1890   0.711   5.951   5.634 -0.8895  0.0873 -0.5349
   26CHL1  H19A 1891   0.803   6.005   5.602 -0.9870 -0.6192 -2.0868
   26CHL1  H19B 1892   0.743   5.911   5.733 -1.5515 -0.0800 -0.3811
   26CHL1  H19C 1893   0.702   5.861   5.570 -1.0049 -0.7409  0.6188
   26CHL1    C1 1894   0.611   6.164   5.755 -0.4986  0.4058 -0.9457
   26CHL1   H1A 1895   0.702   6.219   5.724  1.2479 -2.5443 -1.4340
   26CHL1   H1B 1896   0.517   6.222   5.767  0.0582  1.1601 -0.0949
   26CHL1    C2 1897   0.629   6.110   5.903 -1.1164 -0.0032 -0.7701
   26CHL1   H2A 1898   0.650   6.192   5.975  1.9979  0.0205 -1.5653
   26CHL1   H2B 1899   0.721   6.048   5.911 -1.6382 -0.7349 -0.3382
   26CHL1   C20 1900   0.580   6.258   4.954 -0.1832  0.2276 -0.1774
   26CHL1   H20 1901   0.637   6.168   4.924 -1.1857 -1.3215  2.2429
   26CHL1   C21 1902   0.674   6.372   4.988 -0.4229 -0.9318 -0.2846
   26CHL1  H21A 1903   0.718   6.426   4.902 -0.9401 -0.5520 -0.3163
   26CHL1  H21B 1904   0.753   6.335   5.058  0.2017  0.9718  0.0803
   26CHL1  H21C 1905   0.623   6.458   5.037  0.2724  0.1209 -1.3483
   26CHL1   C22 1906   0.498   6.284   4.828  0.5796 -0.0065 -0.1081
   26CHL1  H22A 1907   0.568   6.308   4.745  0.3480  1.0546 -0.0152
   26CHL1  H22B 1908   0.440   6.195   4.795  0.6924  0.4942 -1.7523
   26CHL1   C23 1909   0.396   6.401   4.838  0.1394  0.0593 -0.5434
   26CHL1  H23A 1910   0.322   6.373   4.916  1.4638  0.8708  1.0614
   26CHL1  H23B 1911   0.450   6.497   4.855 -1.1224  1.5128 -3.8243
   26CHL1   C24 1912   0.311   6.418   4.715  0.1683 -0.2939  0.2667
   26CHL1  H24A 1913   0.369   6.468   4.635  1.0796  1.0120  1.6711
   26CHL1  H24B 1914   0.275   6.319   4.682 -2.7257  0.3410  1.2486
   26CHL1   C25 1915   0.181   6.502   4.737  0.1416  0.0605 -0.1694
   26CHL1   H25 1916   0.139   6.455   4.829  1.1076 -2.5579 -0.9706
   26CHL1   C26 1917   0.212   6.650   4.761 -1.1251  0.4114 -0.3651
   26CHL1  H26A 1918   0.251   6.646   4.865  0.0754 -3.0282 -0.8076
   26CHL1  H26B 1919   0.300   6.667   4.695 -0.5474 -2.6829 -0.5750
   26CHL1  H26C 1920   0.144   6.737   4.765 -1.4301  0.1411  0.7557
   26CHL1   C27 1921   0.076   6.476   4.619 -0.2939 -0.1103  0.6067
   26CHL1  H27A 1922  -0.030   6.503   4.637 -0.8838 -0.3612 -2.0495
   26CHL1  H27B 1923   0.113   6.541   4.537  2.0958 -0.9224  0.9636
   26CHL1  H27C 1924   0.082   6.372   4.581 -1.2769 -0.5394  1.5682
   27CHL1    C3 1925   1.065   6.296   6.136  0.1264 -0.0502  0.2885
   27CHL1    H3 1926   1.071   6.185   6.139  1.1052 -0.1076 -1.7771
   27CHL1    O3 1927   1.036   6.341   6.266  0.2667 -0.8995  0.0938
   27CHL1   H3' 1928   1.054   6.435   6.261 -0.8547 -0.5666  1.4820
   27CHL1    C4 1929   1.197   6.357   6.086 -0.0785  0.2407 -0.0129
   27CHL1   H4A 1930   1.186   6.467   6.092 -2.5199 -0.0168  1.7946
   27CHL1   H4B 1931   1.284   6.326   6.147  1.3975 -0.4510 -2.3154
   27CHL1    C5 1932   1.220   6.315   5.940  0.2000  0.2059  0.4305
   27CHL1    C6 1933   1.332   6.255   5.903  0.4610 -0.8472 -0.2529
   27CHL1    H6 1934   1.413   6.247   5.976 -1.0133 -1.7976  1.3633
   27CHL1    C7 1935   1.352   6.210   5.763  0.0200  0.3200 -0.5716
   27CHL1   H7A 1936   1.455   6.231   5.729  0.4105 -3.3460 -2.0677
   27CHL1   H7B 1937   1.338   6.100   5.756 -0.4416  0.0419  2.8678
   27CHL1    C8 1938   1.250   6.271   5.664 -0.0715  0.4655 -1.2027
   27CHL1    H8 1939   1.274   6.376   5.637 -0.6043  0.5132 -1.5211
   27CHL1   C14 1940   1.262   6.193   5.534  0.3441 -0.3443 -0.1657
   27CHL1   H14 1941   1.226   6.090   5.554 -2.9950  0.8665  0.7121
   27CHL1   C15 1942   1.401   6.186   5.467 -0.7085 -0.3323  0.3360
   27CHL1  H15A 1943   1.440   6.290   5.476  0.9839 -0.9223  0.0871
   27CHL1  H15B 1944   1.466   6.104   5.505 -1.5594 -1.6386 -0.9141
   27CHL1   C16 1945   1.365   6.163   5.320 -0.1406  0.1638 -0.2273
   27CHL1  H16A 1946   1.405   6.239   5.249 -2.3173  1.9835  0.3801
   27CHL1  H16B 1947   1.402   6.064   5.287  1.8198  1.1531 -1.1615
   27CHL1   C17 1948   1.211   6.168   5.307  0.5074  0.9362  0.3750
   27CHL1   H17 1949   1.170   6.066   5.321  3.3719 -0.3452  0.1407
   27CHL1   C13 1950   1.166   6.247   5.427 -0.5712 -0.0694  0.6265
   27CHL1   C18 1951   1.187   6.400   5.391  0.5427 -0.1100 -0.2145
   27CHL1  H18A 1952   1.114   6.434   5.314 -0.3364  0.3850  0.8272
   27CHL1  H18B 1953   1.188   6.467   5.479  1.7016 -1.9949  1.2845
   27CHL1  H18C 1954   1.289   6.399   5.346  1.0366 -0.5376  0.8924
   27CHL1   C12 1955   1.018   6.218   5.481  0.1997 -0.7421  0.2015
   27CHL1  H12A 1956   0.941   6.251   5.407  0.6656  0.3367  0.1829
   27CHL1  H12B 1957   1.002   6.108   5.479 -1.7536 -0.4965 -1.7560
   27CHL1   C11 1958   0.996   6.274   5.617  0.7213 -0.5321  0.3793
   27CHL1  H11A 1959   0.976   6.383   5.616 -1.4448 -0.8581  1.9462
   27CHL1  H11B 1960   0.903   6.227   5.657 -0.7286  1.3559 -0.6364
   27CHL1    C9 1961   1.108   6.258   5.718 -1.0308 -0.3453 -0.1996
   27CHL1    H9 1962   1.101   6.152   5.750  1.3475 -0.5802 -0.3317
   27CHL1   C10 1963   1.101   6.337   5.849  0.0136  0.4002  0.1332
   27CHL1   C19 1964   1.103   6.491   5.824 -0.5394  0.5911 -0.1802
   27CHL1  H19A 1965   1.019   6.516   5.756 -0.7450 -1.9923 -0.9909
   27CHL1  H19B 1966   1.090   6.553   5.915 -1.4789 -1.0394  0.8372
   27CHL1  H19C 1967   1.199   6.513   5.771 -0.6282 -0.8846 -0.9979
   27CHL1    C1 1968   0.963   6.303   5.913 -0.0219 -0.4533  0.2299
   27CHL1   H1A 1969   0.891   6.355   5.846 -0.8409 -0.5487  1.0186
   27CHL1   H1B 1970   0.947   6.193   5.912 -0.3197 -0.4639 -2.8984
   27CHL1    C2 1971   0.946   6.344   6.052  0.6546 -0.6703  0.0948
   27CHL1   H2A 1972   0.847   6.305   6.085  0.3074  0.3131  0.2534
   27CHL1   H2B 1973   0.943   6.455   6.057 -0.4958 -0.7152  0.7757
   27CHL1   C20 1974   1.168   6.215   5.168 -0.4461 -0.6768 -1.2178
   27CHL1   H20 1975   1.200   6.321   5.153  1.4898 -0.6364  2.2560
   27CHL1   C21 1976   1.016   6.191   5.146  0.6289  0.9064  0.2288
   27CHL1  H21A 1977   0.986   6.098   5.200  2.2815  0.6256  0.7431
   27CHL1  H21B 1978   0.984   6.187   5.040 -2.2121 -0.9458  1.0315
   27CHL1  H21C 1979   0.964   6.275   5.196 -3.0856 -0.8028 -0.4498
   27CHL1   C22 1980   1.252   6.145   5.059 -0.0912 -0.4632  0.0002
   27CHL1  H22A 1981   1.363   6.147   5.071 -0.2380 -0.0652  1.5089
   27CHL1  H22B 1982   1.243   6.035   5.073  0.4625 -0.8474 -2.3144
   27CHL1   C23 1983   1.223   6.183   4.920 -0.2490  0.1879  0.7628
   27CHL1  H23A 1984   1.118   6.156   4.895 -0.8350  1.4192  1.7738
   27CHL1  H23B 1985   1.229   6.292   4.901  2.9593 -0.4487 -3.3661
   27CHL1   C24 1986   1.312   6.104   4.818  0.1742 -0.3046  0.1801
   27CHL1  H24A 1987   1.419   6.130   4.836 -0.1642  0.9086  0.5367
   27CHL1  H24B 1988   1.289   5.996   4.833  0.6406 -0.3437  0.6303
   27CHL1   C25 1989   1.283   6.134   4.664  0.4165  0.2568 -1.4734
   27CHL1   H25 1990   1.177   6.157   4.640 -1.0337 -2.8739  1.1261
   27CHL1   C26 1991   1.374   6.240   4.614  0.2853 -0.5205  0.3472
   27CHL1  H26A 1992   1.362   6.253   4.504 -1.5929 -0.2587  0.5662
   27CHL1  H26B 1993   1.341   6.328   4.674  1.0581 -0.1239  0.2071
   27CHL1  H26C 1994   1.483   6.224   4.632  0.6087 -1.4363 -1.9735
   27CHL1   C27 1995   1.316   6.015   4.568  0.6913  1.0069  0.2170
   27CHL1  H27A 1996   1.302   6.053   4.464  0.3921 -0.3175 -0.2402
   27CHL1  H27B 1997   1.417   5.976   4.595 -0.0538  0.4042  2.3546
   27CHL1  H27C 1998   1.244   5.931   4.571  3.6290 -1.6560  2.8287
   28CHL1    C3 1999   1.486   4.910   6.140  0.2616 -0.0958  0.3717
   28CHL1    H3 2000   1.561   4.979   6.095  0.3356 -0.7836 -0.5884
   28CHL1    O3 2001   1.484   4.931   6.277 -0.2528  0.4069 -0.0485
   28CHL1   H3' 2002   1.460   4.845   6.311  3.3639 -0.7728 -0.0511
   28CHL1    C4 2003   1.351   4.935   6.070  0.0500 -0.0383 -0.2864
   28CHL1   H4A 2004   1.266   4.885   6.120  0.1360  1.2573  1.2636
   28CHL1   H4B 2005   1.332   5.044   6.080  1.0945  0.2349 -1.0934
   28CHL1    C5 2006   1.360   4.900   5.919  0.1944 -0.1026 -0.3160
   28CHL1    C6 2007   1.340   4.990   5.824 -0.3667  0.1032 -0.0331
   28CHL1    H6 2008   1.334   5.095   5.857  0.1550  0.1192  0.0106
   28CHL1    C7 2009   1.324   4.956   5.678 -0.5062 -0.4017 -0.6060
   28CHL1   H7A 2010   1.233   5.003   5.636 -0.5118  0.8749  0.7609
   28CHL1   H7B 2011   1.401   5.008   5.617 -1.9910  0.5616 -1.7347
   28CHL1    C8 2012   1.328   4.808   5.651  0.1237 -0.1518 -0.6397
   28CHL1    H8 2013   1.224   4.771   5.665 -0.1574 -0.3156 -2.8866
   28CHL1   C14 2014   1.364   4.782   5.507 -0.4148 -0.5371  0.2168
   28CHL1   H14 2015   1.470   4.815   5.502 -0.3686 -0.4850  1.4021
   28CHL1   C15 2016   1.280   4.852   5.398 -0.1137  0.0376  0.1995
   28CHL1  H15A 2017   1.173   4.858   5.426 -0.7076 -0.9265 -1.6987
   28CHL1  H15B 2018   1.317   4.953   5.369  0.8487 -0.5170 -0.5673
   28CHL1   C16 2019   1.304   4.764   5.275  0.3728  0.6953  0.3612
   28CHL1  H16A 2020   1.206   4.744   5.227 -0.3850  0.7889  1.8084
   28CHL1  H16B 2021   1.356   4.826   5.200  2.0914  1.5094  2.1356
   28CHL1   C17 2022   1.385   4.643   5.311  1.0164 -0.5097 -0.1310
   28CHL1   H17 2023   1.488   4.677   5.291  0.6936  0.5138 -0.0945
   28CHL1   C13 2024   1.363   4.632   5.461 -0.2143  0.2403  0.1354
   28CHL1   C18 2025   1.222   4.570   5.480  0.2659  0.0765 -0.4714
   28CHL1  H18A 2026   1.221   4.462   5.453  1.8072  0.3779 -1.9793
   28CHL1  H18B 2027   1.184   4.583   5.583 -2.5717  3.1369 -1.7485
   28CHL1  H18C 2028   1.140   4.617   5.422 -0.6242 -1.2926 -0.3686
   28CHL1   C12 2029   1.466   4.562   5.550 -0.2039  0.8114  0.0175
   28CHL1  H12A 2030   1.462   4.454   5.524  0.6965  1.3754 -2.7065
   28CHL1  H12B 2031   1.571   4.594   5.535  0.1566 -0.6333 -0.6958
   28CHL1   C11 2032   1.433   4.581   5.703 -0.3049  0.2170  0.0362
   28CHL1  H11A 2033   1.342   4.521   5.725  0.2023 -1.1627 -1.4213
   28CHL1  H11B 2034   1.518   4.541   5.763 -0.7790  2.6966  2.5369
   28CHL1    C9 2035   1.428   4.734   5.742 -0.2605 -0.4588 -0.5517
   28CHL1    H9 2036   1.527   4.775   5.715 -0.0332  1.0183  2.1192
   28CHL1   C10 2037   1.406   4.763   5.893 -0.2592 -0.0730 -0.5242
   28CHL1   C19 2038   1.285   4.667   5.938 -0.2569 -0.3762 -0.1775
   28CHL1  H19A 2039   1.196   4.686   5.874  1.9675  1.2812 -3.0006
   28CHL1  H19B 2040   1.322   4.563   5.928 -0.3851 -0.2978 -1.7532
   28CHL1  H19C 2041   1.269   4.685   6.046  0.6303  1.8418 -0.3675
   28CHL1    C1 2042   1.537   4.728   5.961 -0.4249  0.5044  0.4062
   28CHL1   H1A 2043   1.536   4.617   5.969 -2.3289  0.4345 -0.4166
   28CHL1   H1B 2044   1.621   4.753   5.892 -0.7165 -2.5432 -1.2480
   28CHL1    C2 2045   1.547   4.775   6.108  0.0440  0.1353  0.0339
   28CHL1   H2A 2046   1.655   4.779   6.133  0.1612  1.7697 -0.5557
   28CHL1   H2B 2047   1.499   4.691   6.163 -0.7586 -0.1634 -1.0934
   28CHL1   C20 2048   1.363   4.522   5.215  0.0056 -0.0632  0.5342
   28CHL1   H20 2049   1.254   4.508   5.199 -0.1473  1.0191  0.4915
   28CHL1   C21 2050   1.437   4.398   5.267 -0.1629  0.3302 -0.8268
   28CHL1  H21A 2051   1.368   4.365   5.348  0.6735 -3.0609 -1.3814
   28CHL1  H21B 2052   1.538   4.425   5.304 -0.1657  2.4390 -2.1862
   28CHL1  H21C 2053   1.439   4.308   5.202  2.7539 -1.0661  1.0335
   28CHL1   C22 2054   1.407   4.556   5.068 -0.1238  0.7342  0.3487
   28CHL1  H22A 2055   1.345   4.639   5.031 -0.6366  0.6813  1.0793
   28CHL1  H22B 2056   1.515   4.583   5.070  0.0601  0.0147  0.5328
   28CHL1   C23 2057   1.372   4.454   4.958  0.3747  0.0951  0.2277
   28CHL1  H23A 2058   1.440   4.367   4.971 -0.9867 -0.7338  2.3863
   28CHL1  H23B 2059   1.271   4.411   4.979 -0.2475  0.4659 -1.8042
   28CHL1   C24 2060   1.380   4.518   4.824 -0.1914 -0.2727  0.5827
   28CHL1  H24A 2061   1.297   4.591   4.815 -0.3631 -0.1861  2.5534
   28CHL1  H24B 2062   1.474   4.578   4.827  0.3924 -1.1510  0.3314
   28CHL1   C25 2063   1.384   4.413   4.712  0.2440 -0.6880  0.1711
   28CHL1   H25 2064   1.299   4.347   4.739  0.6433 -1.2042  0.1891
   28CHL1   C26 2065   1.348   4.472   4.564  0.1975 -0.5529  0.5122
   28CHL1  H26A 2066   1.329   4.386   4.497 -2.3096 -0.3402  0.8476
   28CHL1  H26B 2067   1.257   4.536   4.572  0.6811 -0.0815  2.9346
   28CHL1  H26C 2068   1.434   4.531   4.524 -1.3321  1.0602 -0.5976
   28CHL1   C27 2069   1.522   4.354   4.707  0.4916 -0.1778  0.2756
   28CHL1  H27A 2070   1.604   4.427   4.724 -0.2398  0.2602  2.2126
   28CHL1  H27B 2071   1.539   4.279   4.788  0.9440 -1.4112 -0.9397
   28CHL1  H27C 2072   1.538   4.291   4.618  1.6557 -0.5714  0.7434
   29CHL1    C3 2073   2.694   1.260   2.500  0.4093  0.8454 -0.6120
   29CHL1    H3 2074   2.763   1.347   2.490 -0.4507  1.8052  1.2809
   29CHL1    O3 2075   2.634   1.233   2.373 -0.4227  0.0360 -0.1097
   29CHL1   H3' 2076   2.709   1.203   2.322 -1.8913 -2.2833 -1.0324
   29CHL1    C4 2077   2.775   1.142   2.553  0.1337  0.8493 -0.6762
   29CHL1   H4A 2078   2.712   1.051   2.560  1.0388  0.2659  0.3784
   29CHL1   H4B 2079   2.854   1.125   2.476  1.0503  1.3133  0.1323
   29CHL1    C5 2080   2.843   1.168   2.693 -0.1735 -0.1289  0.1553
   29CHL1    C6 2081   2.976   1.163   2.715  0.6240  0.2466 -0.3804
   29CHL1    H6 2082   3.043   1.122   2.639  2.8200 -0.9172  2.0150
   29CHL1    C7 2083   3.039   1.204   2.838 -0.2580  0.5201  0.4459
   29CHL1   H7A 2084   3.126   1.139   2.860 -0.7507 -0.8156 -1.3193
   29CHL1   H7B 2085   3.074   1.309   2.828  1.7268 -0.0963  0.5719
   29CHL1    C8 2086   2.934   1.190   2.955  0.3619  0.1802 -0.2359
   29CHL1    H8 2087   2.899   1.084   2.962 -1.0206  0.5838 -0.7569
   29CHL1   C14 2088   2.994   1.225   3.085  0.5139  0.0066  0.0804
   29CHL1   H14 2089   3.030   1.330   3.070  1.7652 -0.4707 -0.4572
   29CHL1   C15 2090   3.115   1.142   3.127 -0.2822 -0.2456  0.1180
   29CHL1  H15A 2091   3.099   1.035   3.105  0.7761 -0.1834 -1.1288
   29CHL1  H15B 2092   3.205   1.186   3.079  1.2334  2.2165  4.6080
   29CHL1   C16 2093   3.127   1.176   3.277  0.3464  0.0943 -0.4322
   29CHL1  H16A 2094   3.129   1.086   3.344  0.4638  0.4704  0.0773
   29CHL1  H16B 2095   3.220   1.232   3.303  0.9434 -1.8592  2.1358
   29CHL1   C17 2096   2.999   1.259   3.319  0.2006  0.2638  0.8604
   29CHL1   H17 2097   3.009   1.366   3.293 -0.4749 -0.0826 -1.0033
   29CHL1   C13 2098   2.896   1.225   3.206  0.6077 -0.0748  0.8527
   29CHL1   C18 2099   2.844   1.076   3.223  0.3036  0.6262 -0.2293
   29CHL1  H18A 2100   2.763   1.067   3.298  1.7465  0.4826  1.3919
   29CHL1  H18B 2101   2.792   1.043   3.131 -1.9774  2.7080  0.2101
   29CHL1  H18C 2102   2.922   1.009   3.265 -1.0160 -2.3304 -2.2108
   29CHL1   C12 2103   2.786   1.327   3.177 -0.0977 -0.1578 -0.1625
   29CHL1  H12A 2104   2.721   1.332   3.267  0.4192 -1.5911  0.3201
   29CHL1  H12B 2105   2.841   1.422   3.161 -0.3593 -0.2059 -1.4229
   29CHL1   C11 2106   2.713   1.289   3.047  0.7827 -0.2315  0.0285
   29CHL1  H11A 2107   2.653   1.196   3.059  1.0480 -0.5483 -1.0019
   29CHL1  H11B 2108   2.632   1.360   3.022  1.2595  1.1181  2.0961
   29CHL1    C9 2109   2.810   1.276   2.927  0.4005  0.2235  0.2690
   29CHL1    H9 2110   2.851   1.376   2.899  1.7357 -0.1867  0.6752
   29CHL1   C10 2111   2.749   1.227   2.801 -0.4025 -0.0989 -0.0178
   29CHL1   C19 2112   2.658   1.107   2.838  0.1415  0.1300  0.1790
   29CHL1  H19A 2113   2.717   1.033   2.896 -0.9919  0.3390  1.6485
   29CHL1  H19B 2114   2.567   1.136   2.894  1.1010 -0.3942  2.0903
   29CHL1  H19C 2115   2.618   1.060   2.746 -0.6779 -0.0034  0.6010
   29CHL1    C1 2116   2.677   1.346   2.728  0.1445 -0.3307  0.0333
   29CHL1   H1A 2117   2.611   1.390   2.806 -0.5555  0.1476 -0.8078
   29CHL1   H1B 2118   2.754   1.425   2.712 -2.0764  1.8268 -0.6977
   29CHL1    C2 2119   2.596   1.304   2.606 -0.1781 -0.8360 -0.2989
   29CHL1   H2A 2120   2.537   1.389   2.566 -0.5221 -1.6089 -1.5038
   29CHL1   H2B 2121   2.532   1.217   2.634 -2.7963  0.5905 -1.4464
   29CHL1   C20 2122   2.963   1.241   3.463 -0.3596 -0.6538 -0.4696
   29CHL1   H20 2123   2.958   1.133   3.490  1.6904 -1.0121 -1.3831
   29CHL1   C21 2124   2.835   1.312   3.503  0.4636 -0.1643  0.4861
   29CHL1  H21A 2125   2.824   1.422   3.495 -1.8076 -0.4776 -3.5939
   29CHL1  H21B 2126   2.816   1.280   3.608 -1.8840 -0.0494  0.1680
   29CHL1  H21C 2127   2.741   1.273   3.458 -0.4891  1.5913  0.8534
   29CHL1   C22 2128   3.079   1.289   3.556  0.5947 -0.1176 -0.1157
   29CHL1  H22A 2129   3.172   1.248   3.512 -0.0102 -0.2029 -1.3592
   29CHL1  H22B 2130   3.084   1.400   3.556 -2.5580  0.2575  3.8909
   29CHL1   C23 2131   3.074   1.241   3.699  0.4049  0.3204 -0.0946
   29CHL1  H23A 2132   2.976   1.266   3.745 -0.0452 -2.3992  0.6178
   29CHL1  H23B 2133   3.073   1.130   3.697 -2.9727  0.1943  1.1144
   29CHL1   C24 2134   3.175   1.298   3.800  0.3319  0.4142  0.8205
   29CHL1  H24A 2135   3.268   1.239   3.788 -0.6290 -0.7559 -1.4899
   29CHL1  H24B 2136   3.192   1.403   3.769 -0.3361 -0.2028 -1.8700
   29CHL1   C25 2137   3.115   1.291   3.944 -0.8752 -0.3704 -0.6717
   29CHL1   H25 2138   3.007   1.319   3.940 -0.0928  2.9839 -1.1729
   29CHL1   C26 2139   3.105   1.146   3.991 -0.2397 -0.2637  0.5820
   29CHL1  H26A 2140   3.206   1.099   3.984 -0.1257 -0.1201  1.2324
   29CHL1  H26B 2141   3.070   1.140   4.096  0.5294  3.5822  1.2140
   29CHL1  H26C 2142   3.036   1.083   3.930 -2.2234  1.9797  0.3539
   29CHL1   C27 2143   3.191   1.378   4.047 -1.0754 -0.7741 -0.6489
   29CHL1  H27A 2144   3.199   1.483   4.013  1.2159 -1.0536 -1.1168
   29CHL1  H27B 2145   3.143   1.382   4.147 -2.6288  1.1379 -1.4112
   29CHL1  H27C 2146   3.297   1.346   4.054 -1.4445 -2.2517 -1.3285
   30CHL1    C3 2147   1.469   0.923   2.974  0.0431  0.7747  1.1100
   30CHL1    H3 2148   1.519   1.021   2.989  0.3819  0.9658 -0.9736
   30CHL1    O3 2149   1.452   0.888   2.836 -0.8044 -0.2403 -0.0137
   30CHL1   H3' 2150   1.393   0.812   2.838 -1.1840  0.0292 -0.6275
   30CHL1    C4 2151   1.545   0.812   3.051 -0.4739 -0.2831 -0.0903
   30CHL1   H4A 2152   1.504   0.718   3.008 -0.7899 -0.9068  1.4940
   30CHL1   H4B 2153   1.650   0.808   3.014  0.6201  1.8842  2.3909
   30CHL1    C5 2154   1.550   0.827   3.202  0.7462  0.5512  0.1181
   30CHL1    C6 2155   1.661   0.816   3.269  0.0389 -0.5129 -0.4581
   30CHL1    H6 2156   1.755   0.810   3.212  1.1907  4.0680  0.4840
   30CHL1    C7 2157   1.663   0.812   3.425  0.1244 -0.1761 -0.0141
   30CHL1   H7A 2158   1.726   0.728   3.462  0.5319  1.2182  2.7221
   30CHL1   H7B 2159   1.704   0.906   3.467 -2.0382  0.8859 -0.1330
   30CHL1    C8 2160   1.519   0.778   3.487 -1.0277  0.0611  0.5541
   30CHL1    H8 2161   1.521   0.667   3.479 -1.9403  0.1406 -1.1993
   30CHL1   C14 2162   1.510   0.830   3.633 -0.4186 -0.0054 -0.4361
   30CHL1   H14 2163   1.516   0.941   3.624  0.4343 -0.1597 -2.1637
   30CHL1   C15 2164   1.633   0.793   3.721  0.1079  0.8135 -0.0722
   30CHL1  H15A 2165   1.635   0.683   3.710 -1.7870  0.7452 -0.0580
   30CHL1  H15B 2166   1.729   0.838   3.689 -0.5361  1.4448 -1.2016
   30CHL1   C16 2167   1.577   0.830   3.862  0.4142  0.7749 -0.3342
   30CHL1  H16A 2168   1.605   0.745   3.927  3.1987  1.3913 -0.5799
   30CHL1  H16B 2169   1.618   0.927   3.897 -2.2042  0.7409  3.4073
   30CHL1   C17 2170   1.426   0.835   3.847 -0.7116 -0.3336 -0.3109
   30CHL1   H17 2171   1.406   0.944   3.845 -0.5662 -0.3044 -0.1243
   30CHL1   C13 2172   1.387   0.780   3.707 -0.2045  0.6764 -0.2578
   30CHL1   C18 2173   1.376   0.628   3.702  0.0756  0.2667 -0.3742
   30CHL1  H18A 2174   1.293   0.605   3.771  0.2477  3.1666  0.9311
   30CHL1  H18B 2175   1.355   0.582   3.603 -1.4222  0.1479 -0.0126
   30CHL1  H18C 2176   1.473   0.578   3.726 -0.6753 -1.3608 -0.6366
   30CHL1   C12 2177   1.273   0.847   3.629  0.5417 -0.3301 -0.2018
   30CHL1  H12A 2178   1.175   0.813   3.668 -0.4541  1.6861 -0.8203
   30CHL1  H12B 2179   1.280   0.958   3.633  1.1948 -0.3126 -1.3768
   30CHL1   C11 2180   1.271   0.805   3.478  0.2627 -0.3797  0.6980
   30CHL1  H11A 2181   1.246   0.697   3.474  1.4316 -0.7071  1.5260
   30CHL1  H11B 2182   1.185   0.867   3.445  1.9672  2.5805  1.3592
   30CHL1    C9 2183   1.407   0.839   3.409  0.2504 -0.7051 -0.0399
   30CHL1    H9 2184   1.423   0.948   3.425  2.8515 -0.9861 -0.3245
   30CHL1   C10 2185   1.409   0.823   3.258 -0.1086 -0.4711 -0.5830
   30CHL1   C19 2186   1.339   0.689   3.222 -0.0478 -0.6178 -0.1190
   30CHL1  H19A 2187   1.327   0.661   3.115  0.0938  2.7930 -1.1685
   30CHL1  H19B 2188   1.393   0.603   3.269  0.3691 -1.1635 -1.5451
   30CHL1  H19C 2189   1.235   0.693   3.259  0.6255  0.5636  1.8518
   30CHL1    C1 2190   1.330   0.938   3.187  0.0358 -0.1034  0.4438
   30CHL1   H1A 2191   1.221   0.926   3.205 -0.0043 -0.1567  0.1711
   30CHL1   H1B 2192   1.365   1.036   3.227  2.7104 -1.2882  1.1965
   30CHL1    C2 2193   1.327   0.928   3.026 -0.2135 -0.3963 -0.4594
   30CHL1   H2A 2194   1.274   1.014   2.979 -0.5062  1.4429  2.9566
   30CHL1   H2B 2195   1.274   0.833   3.005 -0.6271 -0.1115 -0.7245
   30CHL1   C20 2196   1.343   0.778   3.963  0.8709  0.5884 -0.0550
   30CHL1   H20 2197   1.366   0.670   3.970 -0.7910  0.3228  2.8156
   30CHL1   C21 2198   1.192   0.804   3.947  0.2959 -0.7027  0.4874
   30CHL1  H21A 2199   1.179   0.911   3.917 -0.9217 -0.9385  0.0875
   30CHL1  H21B 2200   1.138   0.785   4.042  0.8485  0.3576  1.0310
   30CHL1  H21C 2201   1.143   0.752   3.862 -1.3681  1.2631  0.1487
   30CHL1   C22 2202   1.385   0.839   4.100  0.5278  0.1657  0.0442
   30CHL1  H22A 2203   1.315   0.798   4.175 -0.3950  2.1812  0.3592
   30CHL1  H22B 2204   1.485   0.798   4.127 -0.0179 -1.1150  0.1534
   30CHL1   C23 2205   1.398   0.987   4.117  0.7615 -0.1684 -0.6785
   30CHL1  H23A 2206   1.493   1.017   4.069  0.1540  0.0426 -1.7841
   30CHL1  H23B 2207   1.310   1.043   4.079 -0.1545  0.3790  1.9723
   30CHL1   C24 2208   1.406   1.042   4.265 -0.0363  0.5699 -0.3718
   30CHL1  H24A 2209   1.435   1.149   4.262 -0.2752  0.6275 -3.5412
   30CHL1  H24B 2210   1.302   1.044   4.303 -1.0058  2.1678 -2.8378
   30CHL1   C25 2211   1.510   0.968   4.363 -0.5550  0.3909  0.2334
   30CHL1   H25 2212   1.489   0.860   4.357  0.2263  0.2696 -5.0367
   30CHL1   C26 2213   1.651   0.988   4.305  0.4689  0.0777 -0.2695
   30CHL1  H26A 2214   1.666   1.092   4.271 -0.9828  0.7502  1.0192
   30CHL1  H26B 2215   1.727   0.965   4.382 -0.6150 -1.6682  0.3580
   30CHL1  H26C 2216   1.658   0.924   4.214 -1.1000  0.2877 -0.5764
   30CHL1   C27 2217   1.503   1.022   4.507 -0.4069 -0.2255  0.2560
   30CHL1  H27A 2218   1.394   1.009   4.526 -0.8094  0.1894 -1.5865
   30CHL1  H27B 2219   1.569   0.954   4.564 -2.8937 -3.5326 -0.5294
   30CHL1  H27C 2220   1.536   1.128   4.505 -0.3530 -0.2443 -1.3682
   31CHL1    C3 2221   2.059   1.789   2.946  0.1416  0.4386  0.1923
   31CHL1    H3 2222   2.112   1.694   2.925 -0.3082 -0.0080  1.0204
   31CHL1    O3 2223   2.018   1.835   2.816 -0.3260  0.3380 -0.4152
   31CHL1   H3' 2224   1.992   1.925   2.837 -1.1334 -0.7295  4.3337
   31CHL1    C4 2225   1.933   1.767   3.024 -0.7454  0.1981  0.2798
   31CHL1   H4A 2226   1.871   1.860   3.021 -0.0458  0.6453 -1.2091
   31CHL1   H4B 2227   1.878   1.690   2.965 -3.1524  2.1285 -0.1808
   31CHL1    C5 2228   1.960   1.735   3.166  0.7547 -0.7241 -0.0283
   31CHL1    C6 2229   1.911   1.624   3.224  0.6721 -0.0204 -0.1005
   31CHL1    H6 2230   1.835   1.574   3.163  0.6594  2.0818 -1.9529
   31CHL1    C7 2231   1.930   1.577   3.359  0.4764 -0.9757  0.4805
   31CHL1   H7A 2232   1.841   1.534   3.410 -0.0035  0.4538  0.8846
   31CHL1   H7B 2233   1.999   1.489   3.357 -2.8353 -3.8418 -2.4159
   31CHL1    C8 2234   1.989   1.686   3.455  0.3243  0.3675 -0.1776
   31CHL1    H8 2235   1.907   1.758   3.471 -1.4474 -1.3368 -1.1574
   31CHL1   C14 2236   2.054   1.633   3.581  0.1199 -0.3412 -0.6028
   31CHL1   H14 2237   2.150   1.588   3.548  0.0276 -0.8851 -0.1404
   31CHL1   C15 2238   1.976   1.525   3.663  0.0916  0.7536 -0.2996
   31CHL1  H15A 2239   1.867   1.547   3.672 -0.3167 -1.3215  0.2162
   31CHL1  H15B 2240   1.991   1.423   3.622 -1.2314 -0.0113  0.9787
   31CHL1   C16 2241   2.030   1.548   3.808 -0.2045  0.5808 -0.1871
   31CHL1  H16A 2242   1.958   1.580   3.886  0.0556  0.2032  0.2153
   31CHL1  H16B 2243   2.068   1.448   3.840 -1.5309  0.1180  0.0118
   31CHL1   C17 2244   2.144   1.657   3.809  0.1220  0.0631 -0.5003
   31CHL1   H17 2245   2.236   1.601   3.780  0.1234 -0.8361  1.1198
   31CHL1   C13 2246   2.097   1.739   3.690  0.0631 -0.8727  0.2679
   31CHL1   C18 2247   1.966   1.811   3.737 -0.8639 -0.1491 -0.3662
   31CHL1  H18A 2248   2.002   1.880   3.816  0.2456 -2.1043  0.9162
   31CHL1  H18B 2249   1.920   1.866   3.652 -2.2377 -0.6668  0.0174
   31CHL1  H18C 2250   1.884   1.753   3.784 -2.5325  2.1162 -0.2893
   31CHL1   C12 2251   2.199   1.827   3.619 -0.4538  0.2450 -0.0400
   31CHL1  H12A 2252   2.229   1.918   3.675 -1.1045 -0.4676  1.5594
   31CHL1  H12B 2253   2.279   1.754   3.594 -1.1478 -0.2660 -0.8019
   31CHL1   C11 2254   2.145   1.885   3.482 -0.8977 -1.0136  0.0773
   31CHL1  H11A 2255   2.065   1.958   3.508 -0.0487  0.6677 -1.7988
   31CHL1  H11B 2256   2.231   1.935   3.432 -0.9073 -1.2305 -0.1621
   31CHL1    C9 2257   2.090   1.777   3.383 -0.3427  0.1789 -0.1911
   31CHL1    H9 2258   2.179   1.713   3.364 -0.0191  0.0730  1.5219
   31CHL1   C10 2259   2.050   1.833   3.242  0.2492  0.4158 -0.2362
   31CHL1   C19 2260   1.964   1.959   3.261 -0.4106 -0.6382  0.8426
   31CHL1  H19A 2261   1.929   2.007   3.167  2.5890 -1.1798 -0.6944
   31CHL1  H19B 2262   1.879   1.954   3.332 -1.7036 -0.6069 -0.6462
   31CHL1  H19C 2263   2.027   2.044   3.296 -1.7658  2.0374 -2.6647
   31CHL1    C1 2264   2.176   1.855   3.153  0.1954 -0.1905 -0.6434
   31CHL1   H1A 2265   2.238   1.929   3.209  0.1390 -0.1921 -0.5795
   31CHL1   H1B 2266   2.230   1.758   3.155  1.5042  0.5047  1.8781
   31CHL1    C2 2267   2.150   1.896   3.007 -0.1235 -1.0277 -0.2028
   31CHL1   H2A 2268   2.240   1.910   2.944  0.1987  0.0324  0.4736
   31CHL1   H2B 2269   2.082   1.983   2.993 -0.8256 -1.8252 -2.3162
   31CHL1   C20 2270   2.171   1.721   3.953  0.5205 -0.0182 -0.2311
   31CHL1   H20 2271   2.081   1.780   3.980  1.4270  1.4795 -0.3521
   31CHL1   C21 2272   2.293   1.819   3.948 -0.1966 -0.2492 -0.1484
   31CHL1  H21A 2273   2.281   1.898   3.871  1.0981  0.0126 -0.1059
   31CHL1  H21B 2274   2.387   1.772   3.911  0.4317 -0.6216  1.7987
   31CHL1  H21C 2275   2.293   1.877   4.043  1.2211  0.1520 -0.3727
   31CHL1   C22 2276   2.193   1.616   4.064 -0.9314 -0.4555  0.4285
   31CHL1  H22A 2277   2.109   1.543   4.067 -0.0624 -1.6227 -1.5646
   31CHL1  H22B 2278   2.286   1.563   4.035  1.1766  3.3042 -0.2681
   31CHL1   C23 2279   2.220   1.676   4.203 -0.1840 -0.7223  0.1435
   31CHL1  H23A 2280   2.300   1.752   4.198 -0.4763 -0.4650 -1.1657
   31CHL1  H23B 2281   2.121   1.719   4.229 -1.0315 -3.0255  1.0258
   31CHL1   C24 2282   2.251   1.563   4.305 -0.3459 -0.0978  0.0681
   31CHL1  H24A 2283   2.169   1.490   4.319  0.6328 -1.0495  1.0081
   31CHL1  H24B 2284   2.342   1.517   4.261 -0.3394  1.7667 -2.0841
   31CHL1   C25 2285   2.288   1.630   4.443 -0.1819  0.2734  0.3112
   31CHL1   H25 2286   2.364   1.711   4.432  1.5596 -1.3800 -0.2225
   31CHL1   C26 2287   2.155   1.687   4.505  0.3972 -0.2318 -0.8461
   31CHL1  H26A 2288   2.168   1.695   4.615  1.9846  0.8637 -1.0799
   31CHL1  H26B 2289   2.136   1.789   4.467 -2.3509 -0.8442 -1.3006
   31CHL1  H26C 2290   2.067   1.620   4.491  0.1252  0.0232 -0.3533
   31CHL1   C27 2291   2.351   1.526   4.541 -0.3258  0.4763 -0.2256
   31CHL1  H27A 2292   2.373   1.579   4.636 -1.1082  0.8647 -0.2540
   31CHL1  H27B 2293   2.278   1.449   4.571  1.8863 -1.2536  1.0361
   31CHL1  H27C 2294   2.438   1.475   4.494 -0.5945 -2.2491  1.9919
   32CHL1    C3 2295   0.664   0.307   3.017 -0.0374  0.0932  0.1338
   32CHL1    H3 2296   0.599   0.381   3.069 -0.0784 -1.6021  2.6244
   32CHL1    O3 2297   0.686   0.342   2.879 -0.3113 -0.8037 -0.6981
   32CHL1   H3' 2298   0.631   0.277   2.835 -1.6981 -2.1695  2.6785
   32CHL1    C4 2299   0.807   0.314   3.076 -0.0449  0.0625  0.1138
   32CHL1   H4A 2300   0.872   0.240   3.025 -0.0704 -2.1272  3.0046
   32CHL1   H4B 2301   0.863   0.409   3.060 -1.4527  1.1347  1.2911
   32CHL1    C5 2302   0.804   0.276   3.221  0.1875  0.5949 -0.1345
   32CHL1    C6 2303   0.824   0.364   3.315  0.0261 -0.3024 -0.2254
   32CHL1    H6 2304   0.849   0.467   3.284 -1.3192  0.2814  0.5003
   32CHL1    C7 2305   0.811   0.346   3.463  0.3167 -0.7529 -0.1151
   32CHL1   H7A 2306   0.901   0.390   3.511  0.1726 -0.2716 -0.2734
   32CHL1   H7B 2307   0.731   0.415   3.500 -0.2460 -1.0669 -0.7210
   32CHL1    C8 2308   0.801   0.190   3.490 -0.2141  0.2117 -0.4302
   32CHL1    H8 2309   0.895   0.136   3.465  0.4075  0.9115  0.3436
   32CHL1   C14 2310   0.755   0.157   3.632 -0.0433 -0.0912  0.3312
   32CHL1   H14 2311   0.651   0.197   3.640  0.2048  1.4876 -2.8177
   32CHL1   C15 2312   0.830   0.217   3.741 -0.4903  0.4592  0.6020
   32CHL1  H15A 2313   0.937   0.189   3.725 -0.8937  0.4061 -2.7056
   32CHL1  H15B 2314   0.848   0.326   3.733  4.2309 -0.0668  0.7081
   32CHL1   C16 2315   0.774   0.147   3.864 -1.2155  0.3312  0.4513
   32CHL1  H16A 2316   0.860   0.130   3.932 -1.9247 -0.1231  1.2527
   32CHL1  H16B 2317   0.709   0.214   3.923  2.3099  4.3634  0.2270
   32CHL1   C17 2318   0.713   0.010   3.821  0.0654 -0.3425  0.7150
   32CHL1   H17 2319   0.603   0.015   3.812 -0.0220 -0.6689  1.5297
   32CHL1   C13 2320   0.743   0.004   3.671  0.3731 -0.3586  0.2328
   32CHL1   C18 2321   0.876  -0.070   3.637  0.3674 -0.2454  0.1045
   32CHL1  H18A 2322   0.858  -0.177   3.661 -1.5555 -0.2660 -1.2537
   32CHL1  H18B 2323   0.909  -0.069   3.531 -0.7057 -0.6227 -0.2423
   32CHL1  H18C 2324   0.965  -0.041   3.698  0.6413 -0.3749 -0.2328
   32CHL1   C12 2325   0.633  -0.051   3.579 -0.5496 -0.5719  0.2780
   32CHL1  H12A 2326   0.619  -0.160   3.590 -0.2131 -0.9283 -2.2412
   32CHL1  H12B 2327   0.535  -0.005   3.603 -0.1627  0.4312  0.0184
   32CHL1   C11 2328   0.661  -0.022   3.430  0.2005 -0.5527 -0.1521
   32CHL1  H11A 2329   0.732  -0.097   3.388 -0.0430 -1.5688  1.1586
   32CHL1  H11B 2330   0.562  -0.052   3.390 -0.8815 -0.1229  2.0113
   32CHL1    C9 2331   0.702   0.125   3.393  0.4000  1.0428 -0.1946
   32CHL1    H9 2332   0.607   0.180   3.412 -0.7067 -1.1289  0.9822
   32CHL1   C10 2333   0.740   0.143   3.248 -0.0652  1.1364  0.8442
   32CHL1   C19 2334   0.845   0.039   3.210  0.7796  0.8477  0.4988
   32CHL1  H19A 2335   0.942   0.043   3.264  2.6574  0.4618 -2.6090
   32CHL1  H19B 2336   0.814  -0.068   3.210  1.5750  0.6010  1.4744
   32CHL1  H19C 2337   0.870   0.059   3.104 -1.6148 -0.8722 -0.4894
   32CHL1    C1 2338   0.609   0.118   3.164  0.6513 -0.4354  0.3308
   32CHL1   H1A 2339   0.574   0.013   3.166  1.4829 -0.7143  0.4016
   32CHL1   H1B 2340   0.524   0.182   3.196 -0.6877 -0.7491 -2.3321
   32CHL1    C2 2341   0.606   0.170   3.020  0.2467  0.1472  0.1704
   32CHL1   H2A 2342   0.503   0.171   2.978  0.1894 -0.6831  0.2718
   32CHL1   H2B 2343   0.672   0.095   2.971 -0.4070 -0.4147  0.1199
   32CHL1   C20 2344   0.748  -0.108   3.908 -0.6260  0.1061  0.4334
   32CHL1   H20 2345   0.856  -0.132   3.923 -0.5865 -0.0376 -0.0453
   32CHL1   C21 2346   0.678  -0.231   3.860  0.4321  0.5119 -0.4181
   32CHL1  H21A 2347   0.701  -0.313   3.932 -1.0108  1.0819  0.7482
   32CHL1  H21B 2348   0.694  -0.263   3.755  0.9512 -1.1079  0.1217
   32CHL1  H21C 2349   0.569  -0.214   3.877  0.5136  1.3504 -0.7122
   32CHL1   C22 2350   0.692  -0.090   4.049  0.8542 -0.1358 -0.7689
   32CHL1  H22A 2351   0.739   0.003   4.087 -1.8917  0.7267  0.7752
   32CHL1  H22B 2352   0.581  -0.088   4.047  0.8128 -1.2295 -0.2299
   32CHL1   C23 2353   0.724  -0.204   4.156  0.4344  0.0364  0.7546
   32CHL1  H23A 2354   0.677  -0.297   4.118 -0.3632  1.0688 -0.9255
   32CHL1  H23B 2355   0.835  -0.203   4.161  0.3996  0.8978  1.8181
   32CHL1   C24 2356   0.667  -0.179   4.301 -0.1915  0.5972  0.4831
   32CHL1  H24A 2357   0.720  -0.085   4.330  0.6698  1.3477 -2.9858
   32CHL1  H24B 2358   0.560  -0.150   4.292 -0.6458 -0.8957  0.9056
   32CHL1   C25 2359   0.694  -0.289   4.400  0.2161 -0.3214  0.5408
   32CHL1   H25 2360   0.804  -0.307   4.402  0.3152  0.3055  0.9769
   32CHL1   C26 2361   0.661  -0.251   4.542 -0.3228  0.1368 -0.0605
   32CHL1  H26A 2362   0.710  -0.319   4.614  2.0440  0.8086 -0.9321
   32CHL1  H26B 2363   0.700  -0.149   4.563  2.4239 -1.0749  1.2560
   32CHL1  H26C 2364   0.553  -0.248   4.568 -0.3427  0.2732 -0.1532
   32CHL1   C27 2365   0.634  -0.422   4.376  0.5854 -0.0025  0.0252
   32CHL1  H27A 2366   0.523  -0.417   4.379  0.5809  0.0975 -0.2991
   32CHL1  H27B 2367   0.670  -0.471   4.283 -0.2909  1.4483 -1.1123
   32CHL1  H27C 2368   0.655  -0.495   4.458  0.2113  1.2804  1.2983
   33CHL1    C3 2369   2.353   0.532   3.127 -0.7137 -0.3751 -0.0687
   33CHL1    H3 2370   2.294   0.447   3.168 -0.1706 -0.6752  0.1016
   33CHL1    O3 2371   2.322   0.557   2.989  0.4907 -0.5596  0.1692
   33CHL1   H3' 2372   2.329   0.469   2.951  1.0395  0.6534 -2.8615
   33CHL1    C4 2373   2.310   0.667   3.199  0.3341  0.6738  0.0870
   33CHL1   H4A 2374   2.343   0.752   3.136 -0.7447  0.6945 -0.4766
   33CHL1   H4B 2375   2.199   0.670   3.190  0.3248  0.0637 -0.0049
   33CHL1    C5 2376   2.356   0.670   3.340 -0.1472  0.1226  0.0733
   33CHL1    C6 2377   2.274   0.688   3.443 -0.4692  0.0648  0.0454
   33CHL1    H6 2378   2.167   0.709   3.431 -0.1786  3.0210  1.6252
   33CHL1    C7 2379   2.319   0.712   3.587  0.2894  0.4041  1.2333
   33CHL1   H7A 2380   2.271   0.805   3.625 -0.0912 -0.1446  2.1324
   33CHL1   H7B 2381   2.284   0.630   3.653 -3.2633  1.0780  0.3553
   33CHL1    C8 2382   2.475   0.735   3.598  1.0518  0.1903  0.1460
   33CHL1    H8 2383   2.490   0.838   3.558 -2.5717  0.6019 -0.5347
   33CHL1   C14 2384   2.512   0.718   3.745 -0.1106 -0.1955 -0.3383
   33CHL1   H14 2385   2.478   0.617   3.776 -1.0879 -0.0527 -0.9153
   33CHL1   C15 2386   2.453   0.820   3.848  0.0049  0.1526  0.5195
   33CHL1  H15A 2387   2.456   0.924   3.807 -0.7334  0.2093  0.6032
   33CHL1  H15B 2388   2.348   0.793   3.869  0.1865 -0.5893  0.4842
   33CHL1   C16 2389   2.544   0.813   3.973 -0.3960  0.2371 -0.2793
   33CHL1  H16A 2390   2.576   0.914   4.005  1.3613 -0.1963 -0.5451
   33CHL1  H16B 2391   2.477   0.780   4.055  0.3714  1.1990  0.7599
   33CHL1   C17 2392   2.667   0.730   3.930  0.6682  0.1595 -0.1254
   33CHL1   H17 2393   2.654   0.626   3.966 -1.5322  0.3391 -0.2630
   33CHL1   C13 2394   2.657   0.725   3.779 -0.7902 -0.2487 -0.0126
   33CHL1   C18 2395   2.720   0.854   3.719  0.2025 -0.3160  0.9583
   33CHL1  H18A 2396   2.825   0.817   3.719  0.0882 -0.6403  0.9476
   33CHL1  H18B 2397   2.692   0.878   3.614 -0.1376  0.7173  1.2695
   33CHL1  H18C 2398   2.712   0.942   3.786  0.5143  0.8612 -0.4941
   33CHL1   C12 2399   2.713   0.596   3.707  0.0657  0.1660 -0.0782
   33CHL1  H12A 2400   2.821   0.585   3.733 -0.2522 -1.0393  0.8636
   33CHL1  H12B 2401   2.660   0.506   3.746  0.6285 -0.9081 -1.6737
   33CHL1   C11 2402   2.694   0.596   3.554 -0.1174 -0.1792 -0.6475
   33CHL1  H11A 2403   2.756   0.677   3.510  1.1306 -0.9239 -0.2829
   33CHL1  H11B 2404   2.739   0.504   3.511  0.9272 -0.0347  0.1247
   33CHL1    C9 2405   2.540   0.622   3.512 -0.2339 -0.2323  0.5466
   33CHL1    H9 2406   2.487   0.531   3.546 -1.6477  0.2538 -0.2617
   33CHL1   C10 2407   2.509   0.640   3.359 -0.2554 -0.3981  0.0418
   33CHL1   C19 2408   2.588   0.762   3.304  0.3394 -0.8439  0.3122
   33CHL1  H19A 2409   2.577   0.784   3.196 -0.0232  0.3044  0.5705
   33CHL1  H19B 2410   2.571   0.857   3.359 -0.9094  0.4550 -2.1536
   33CHL1  H19C 2411   2.694   0.734   3.322  0.3581 -0.2928  1.0805
   33CHL1    C1 2412   2.544   0.508   3.285 -0.5433  0.5115  0.3257
   33CHL1   H1A 2413   2.654   0.499   3.296 -0.6220 -1.0523  0.1273
   33CHL1   H1B 2414   2.506   0.423   3.346  2.4570 -0.2385  1.2997
   33CHL1    C2 2415   2.504   0.504   3.137 -0.0918 -0.9918 -0.8371
   33CHL1   H2A 2416   2.533   0.408   3.089 -1.4361 -1.4692 -0.7530
   33CHL1   H2B 2417   2.552   0.581   3.073 -1.8007 -0.3224 -1.3727
   33CHL1   C20 2418   2.794   0.789   4.002  0.3493 -0.2567  0.8829
   33CHL1   H20 2419   2.794   0.895   3.969 -0.3719 -0.6491 -0.4438
   33CHL1   C21 2420   2.928   0.731   3.951  0.5906 -0.2187 -0.1662
   33CHL1  H21A 2421   2.964   0.767   3.852  0.7346 -0.1900 -0.1034
   33CHL1  H21B 2422   2.933   0.620   3.958 -1.5207 -0.2831  1.0545
   33CHL1  H21C 2423   3.003   0.768   4.024  0.7835 -1.2867  0.1942
   33CHL1   C22 2424   2.786   0.777   4.152 -0.0989  0.4316 -0.1104
   33CHL1  H22A 2425   2.680   0.775   4.186 -0.3246  0.7667 -0.7920
   33CHL1  H22B 2426   2.824   0.675   4.178  0.4688  0.7997  0.5445
   33CHL1   C23 2427   2.849   0.886   4.234 -1.0060 -0.6930  0.5122
   33CHL1  H23A 2428   2.960   0.889   4.232 -0.9528  0.3992  2.6767
   33CHL1  H23B 2429   2.824   0.986   4.194  1.6378 -0.3535 -0.4895
   33CHL1   C24 2430   2.808   0.886   4.377  0.9724 -0.6283  0.4311
   33CHL1  H24A 2431   2.844   0.978   4.427 -2.8998  1.4201 -0.1507
   33CHL1  H24B 2432   2.697   0.885   4.377  0.9212 -3.2599  1.6810
   33CHL1   C25 2433   2.845   0.756   4.453 -0.3049 -0.1711 -0.0434
   33CHL1   H25 2434   2.797   0.675   4.395  0.5322 -1.3039  0.8000
   33CHL1   C26 2435   2.995   0.722   4.447  0.0644 -0.1486 -0.2725
   33CHL1  H26A 2436   3.020   0.636   4.513 -5.0609 -0.8515  1.2114
   33CHL1  H26B 2437   3.035   0.695   4.347  1.0747 -1.2633  0.4036
   33CHL1  H26C 2438   3.057   0.806   4.485  1.1346 -1.1848  0.3409
   33CHL1   C27 2439   2.802   0.767   4.594  0.1636 -0.0602  0.6405
   33CHL1  H27A 2440   2.695   0.799   4.599  0.9105  2.7363  0.5285
   33CHL1  H27B 2441   2.826   0.674   4.649  2.3715 -0.2097 -0.4797
   33CHL1  H27C 2442   2.861   0.848   4.642  1.7515 -0.2555 -0.9224
   34CHL1    C3 2443   1.763   0.347   2.749 -0.1578  0.2333  0.2809
   34CHL1    H3 2444   1.850   0.288   2.715  0.6123  0.2729  2.0884
   34CHL1    O3 2445   1.698   0.380   2.626  0.2379 -0.5947 -0.6064
   34CHL1   H3' 2446   1.633   0.449   2.641  4.1270  3.2535  0.3452
   34CHL1    C4 2447   1.667   0.259   2.831 -0.4129 -0.4561 -0.1327
   34CHL1   H4A 2448   1.571   0.315   2.831  1.0153  2.1667 -1.0965
   34CHL1   H4B 2449   1.639   0.165   2.780  1.2629 -2.1825  1.9263
   34CHL1    C5 2450   1.712   0.237   2.972 -0.0357 -0.2229  0.4777
   34CHL1    C6 2451   1.713   0.117   3.024  0.0584 -0.4953  0.0443
   34CHL1    H6 2452   1.695   0.030   2.959 -0.9157  0.0103 -0.3823
   34CHL1    C7 2453   1.744   0.086   3.176  0.8774 -0.4046  0.4550
   34CHL1   H7A 2454   1.663   0.020   3.214 -0.1287  0.6231  0.1580
   34CHL1   H7B 2455   1.838   0.026   3.184  0.6770 -0.5884  1.6831
   34CHL1    C8 2456   1.743   0.220   3.263 -0.9292  0.0435 -0.5441
   34CHL1    H8 2457   1.637   0.246   3.280 -0.8390 -0.0613  0.2000
   34CHL1   C14 2458   1.801   0.209   3.408  0.2872  0.7687 -0.5710
   34CHL1   H14 2459   1.906   0.174   3.393  0.3844  0.7736  0.0614
   34CHL1   C15 2460   1.736   0.113   3.506  0.1814 -0.4706 -0.1228
   34CHL1  H15A 2461   1.625   0.108   3.510  0.1913 -0.2034  1.1522
   34CHL1  H15B 2462   1.768   0.009   3.485  1.4637 -0.1445  0.1720
   34CHL1   C16 2463   1.787   0.151   3.642 -0.0330 -0.5747 -1.0031
   34CHL1  H16A 2464   1.705   0.169   3.715  1.3238  2.5816 -0.1168
   34CHL1  H16B 2465   1.857   0.075   3.683  0.7077  0.7887  0.3274
   34CHL1   C17 2466   1.847   0.293   3.623 -0.1410 -0.5454  0.2539
   34CHL1   H17 2467   1.957   0.280   3.609  0.2443  1.9895  0.4612
   34CHL1   C13 2468   1.796   0.340   3.490 -0.0250  0.3152  0.2973
   34CHL1   C18 2469   1.650   0.397   3.504  1.0777  0.5386 -0.5558
   34CHL1  H18A 2470   1.599   0.417   3.407 -0.1274  4.0418  0.6185
   34CHL1  H18B 2471   1.587   0.338   3.573  1.8614 -0.3473 -0.5848
   34CHL1  H18C 2472   1.650   0.499   3.550  0.0453  0.4311 -0.2986
   34CHL1   C12 2473   1.879   0.442   3.409  0.3253 -0.4805  0.2061
   34CHL1  H12A 2474   1.906   0.531   3.470  0.2249 -0.4917  0.2676
   34CHL1  H12B 2475   1.978   0.401   3.381  1.0355  1.4478 -0.2895
   34CHL1   C11 2476   1.818   0.475   3.273 -0.4529 -0.1467 -1.2413
   34CHL1  H11A 2477   1.722   0.528   3.289 -0.1949 -0.3641  1.3385
   34CHL1  H11B 2478   1.870   0.554   3.214  1.5704 -0.0294  0.5892
   34CHL1    C9 2479   1.801   0.345   3.189 -0.7019  0.0345 -0.3377
   34CHL1    H9 2480   1.904   0.303   3.181 -0.0387  1.6504 -0.7078
   34CHL1   C10 2481   1.741   0.365   3.043  0.0711 -0.0808  0.3746
   34CHL1   C19 2482   1.612   0.443   3.052  0.0315  0.2093  0.5696
   34CHL1  H19A 2483   1.569   0.460   2.951  0.6996 -0.4477  0.1642
   34CHL1  H19B 2484   1.540   0.388   3.116  1.3682 -0.6271  1.4072
   34CHL1  H19C 2485   1.624   0.544   3.098 -2.9799  1.1551 -0.4643
   34CHL1    C1 2486   1.851   0.445   2.962 -0.1226  1.0668  0.1231
   34CHL1   H1A 2487   1.876   0.543   3.007  0.9033  0.8469  0.0509
   34CHL1   H1B 2488   1.949   0.393   2.960 -0.1379  1.0538 -0.6389
   34CHL1    C2 2489   1.814   0.476   2.816  0.4081  0.9530 -0.4710
   34CHL1   H2A 2490   1.905   0.500   2.757  0.1084 -1.3208 -2.0124
   34CHL1   H2B 2491   1.728   0.545   2.820 -0.6779 -0.4143  0.8174
   34CHL1   C20 2492   1.833   0.378   3.749 -0.0829 -0.3255 -0.0082
   34CHL1   H20 2493   1.726   0.407   3.752  0.1995  0.7154  0.4717
   34CHL1   C21 2494   1.919   0.507   3.722  0.1860 -0.1387  0.3888
   34CHL1  H21A 2495   2.016   0.493   3.671 -0.3956  1.1485 -1.1259
   34CHL1  H21B 2496   1.932   0.573   3.811 -2.2064 -1.9272  2.2108
   34CHL1  H21C 2497   1.853   0.558   3.649 -0.8066 -3.4966 -1.2893
   34CHL1   C22 2498   1.889   0.326   3.883  0.1071 -0.2130 -0.7524
   34CHL1  H22A 2499   1.851   0.223   3.903  1.3686 -0.8100 -1.3018
   34CHL1  H22B 2500   2.000   0.325   3.874  0.0734  2.8025 -2.7937
   34CHL1   C23 2501   1.866   0.411   4.007  0.6598  0.8139 -0.0142
   34CHL1  H23A 2502   1.911   0.512   3.998  0.3759  0.8725 -0.8627
   34CHL1  H23B 2503   1.757   0.435   4.015  0.2125 -1.0401 -0.1515
   34CHL1   C24 2504   1.927   0.346   4.128 -0.0577 -0.3972  0.7132
   34CHL1  H24A 2505   1.884   0.244   4.133 -1.8623  0.3236  0.5648
   34CHL1  H24B 2506   2.037   0.337   4.110  0.4758  2.1404  2.2220
   34CHL1   C25 2507   1.904   0.423   4.261 -0.0734 -0.2728 -0.3935
   34CHL1   H25 2508   1.797   0.454   4.260 -0.6612 -2.1386 -0.6359
   34CHL1   C26 2509   1.929   0.337   4.385  0.3227 -0.1061 -0.0948
   34CHL1  H26A 2510   1.898   0.394   4.476 -2.0414  0.7332 -1.3385
   34CHL1  H26B 2511   1.881   0.237   4.380  0.5467 -0.2906  0.9989
   34CHL1  H26C 2512   2.036   0.312   4.402 -0.1124 -2.3843 -0.3384
   34CHL1   C27 2513   1.975   0.554   4.267 -0.7043  0.1509  0.3536
   34CHL1  H27A 2514   1.952   0.626   4.348  1.7781  0.6561  0.7079
   34CHL1  H27B 2515   2.084   0.539   4.282 -0.9739 -1.4743  1.0053
   34CHL1  H27C 2516   1.964   0.604   4.169  0.9594 -1.9237 -0.9871
   35CHL1    C3 2517   3.545   6.303   2.946  0.5257  0.5724  0.3638
   35CHL1    H3 2518   3.468   6.222   2.945  1.0814 -0.0863 -3.2598
   35CHL1    O3 2519   3.531   6.365   2.824 -0.3562  0.4557 -0.2169
   35CHL1   H3' 2520   3.606   6.424   2.828  1.3048 -1.6108  0.4523
   35CHL1    C4 2521   3.521   6.394   3.060  0.1934  0.1041  0.6678
   35CHL1   H4A 2522   3.583   6.485   3.044 -0.1724  0.0039 -1.6301
   35CHL1   H4B 2523   3.417   6.429   3.042  0.8049  0.4792 -2.7637
   35CHL1    C5 2524   3.554   6.323   3.191  0.6390 -0.7883 -0.5453
   35CHL1    C6 2525   3.467   6.334   3.293  0.4534 -0.3239 -0.2364
   35CHL1    H6 2526   3.364   6.369   3.276 -0.2332 -1.9663  0.2818
   35CHL1    C7 2527   3.491   6.299   3.436 -0.1744  0.4741 -0.2867
   35CHL1   H7A 2528   3.454   6.380   3.502  0.0215 -0.5803  1.1799
   35CHL1   H7B 2529   3.432   6.208   3.462 -0.0251  0.3393 -0.4190
   35CHL1    C8 2530   3.641   6.272   3.457  0.4358 -0.6223 -0.8255
   35CHL1    H8 2531   3.697   6.368   3.455 -1.0366  0.2775  0.1591
   35CHL1   C14 2532   3.666   6.208   3.587  0.1947  0.0952 -0.2698
   35CHL1   H14 2533   3.609   6.114   3.570 -1.8321  1.5220 -1.8109
   35CHL1   C15 2534   3.619   6.279   3.710 -0.5969 -0.4302  0.4327
   35CHL1  H15A 2535   3.638   6.389   3.706  1.0699 -0.7295 -2.4755
   35CHL1  H15B 2536   3.511   6.257   3.725 -0.5665  0.3060  1.9320
   35CHL1   C16 2537   3.697   6.209   3.824  0.2743  0.4041 -0.1866
   35CHL1  H16A 2538   3.747   6.290   3.881 -2.1689  0.9014  1.4449
   35CHL1  H16B 2539   3.634   6.153   3.897 -2.3779  1.9617 -1.1285
   35CHL1   C17 2540   3.799   6.105   3.758  0.2013  0.3311  0.0693
   35CHL1   H17 2541   3.751   6.007   3.740 -0.5331  1.1837 -3.4177
   35CHL1   C13 2542   3.813   6.164   3.613 -0.1236  0.4673 -0.3975
   35CHL1   C18 2543   3.903   6.281   3.621 -0.5697  0.1622 -0.4016
   35CHL1  H18A 2544   3.906   6.333   3.523  2.3834 -0.0110 -0.4733
   35CHL1  H18B 2545   3.869   6.359   3.694  2.0143  0.6301  0.3865
   35CHL1  H18C 2546   4.006   6.250   3.647 -0.4071  2.0486  1.5050
   35CHL1   C12 2547   3.858   6.060   3.508  1.0086 -0.4807  0.0264
   35CHL1  H12A 2548   3.965   6.032   3.524  1.0245 -0.3751  0.1049
   35CHL1  H12B 2549   3.795   5.969   3.508 -0.0782  0.2265  1.9524
   35CHL1   C11 2550   3.843   6.123   3.364  0.5723  1.0870 -0.6021
   35CHL1  H11A 2551   3.924   6.197   3.347  0.2948  2.7046  3.7716
   35CHL1  H11B 2552   3.846   6.040   3.290  1.8424  0.1696  0.4555
   35CHL1    C9 2553   3.703   6.188   3.340 -0.3318 -0.1103 -0.0522
   35CHL1    H9 2554   3.640   6.096   3.337  2.1647 -1.8903 -1.3335
   35CHL1   C10 2555   3.694   6.265   3.203 -0.0387  0.4489  0.1950
   35CHL1   C19 2556   3.791   6.383   3.192 -0.2399 -0.1992 -0.4436
   35CHL1  H19A 2557   3.776   6.436   3.096 -2.1258 -0.2340 -0.2080
   35CHL1  H19B 2558   3.773   6.456   3.274  0.6006 -2.3496  1.7692
   35CHL1  H19C 2559   3.897   6.354   3.207  0.0327  1.5988  1.6927
   35CHL1    C1 2560   3.718   6.171   3.082  0.0583 -0.0724  0.1778
   35CHL1   H1A 2561   3.827   6.153   3.082 -0.1114 -1.2512  1.4440
   35CHL1   H1B 2562   3.662   6.077   3.100  0.1101 -0.4711 -1.6284
   35CHL1    C2 2563   3.684   6.229   2.946  0.6058 -0.0877  0.1245
   35CHL1   H2A 2564   3.675   6.156   2.863 -3.1919 -0.3638  0.5689
   35CHL1   H2B 2565   3.757   6.310   2.925 -1.0352  1.9188  1.6501
   35CHL1   C20 2566   3.921   6.085   3.853 -0.1964 -0.9967 -0.5610
   35CHL1   H20 2567   3.971   6.184   3.862 -1.4515 -0.5198  2.6327
   35CHL1   C21 2568   4.025   5.986   3.788 -1.0849 -0.4118 -0.4620
   35CHL1  H21A 2569   3.980   5.887   3.767  2.0955 -2.5989  1.8949
   35CHL1  H21B 2570   4.105   5.957   3.860 -0.3798  1.9405 -0.1958
   35CHL1  H21C 2571   4.077   6.029   3.699  1.1370 -2.6248 -0.3591
   35CHL1   C22 2572   3.880   6.048   3.997 -0.5957 -0.3458  0.2273
   35CHL1  H22A 2573   3.787   6.098   4.032 -1.4046 -1.1928 -0.6299
   35CHL1  H22B 2574   3.856   5.939   3.998 -0.4201 -0.3887 -0.1488
   35CHL1   C23 2575   3.993   6.093   4.085 -0.1260  0.0365 -0.0222
   35CHL1  H23A 2576   4.090   6.048   4.053  0.4867  1.4531 -0.2200
   35CHL1  H23B 2577   4.001   6.203   4.072  0.6957  0.0325  0.3523
   35CHL1   C24 2578   3.982   6.066   4.232 -0.4846  0.1103 -0.4440
   35CHL1  H24A 2579   3.882   6.098   4.267  0.2646  2.7758 -0.5199
   35CHL1  H24B 2580   3.981   5.956   4.245  0.5849  0.1690  0.2640
   35CHL1   C25 2581   4.096   6.124   4.324  0.1158  0.8462 -0.9507
   35CHL1   H25 2582   4.197   6.103   4.283  1.5887  2.0885  1.7568
   35CHL1   C26 2583   4.083   6.277   4.352  0.1701  0.3476  0.1854
   35CHL1  H26A 2584   4.146   6.313   4.436 -0.2948 -0.8241  1.0687
   35CHL1  H26B 2585   4.097   6.331   4.256  0.5468  0.4596  0.3024
   35CHL1  H26C 2586   3.982   6.300   4.391  0.1001  0.8193 -0.2667
   35CHL1   C27 2587   4.094   6.044   4.456 -0.1488  0.4874 -0.1278
   35CHL1  H27A 2588   4.014   6.077   4.527 -0.9482  0.5683 -1.0480
   35CHL1  H27B 2589   4.091   5.935   4.434  0.3134  0.2526  0.9068
   35CHL1  H27C 2590   4.185   6.077   4.510  0.6305 -1.0201 -0.4710
   36CHL1    C3 2591   0.466   3.501   2.704  0.0480  0.8307  0.3035
   36CHL1    H3 2592   0.397   3.587   2.709 -2.3671 -1.0306  0.5079
   36CHL1    O3 2593   0.487   3.438   2.574 -0.0573  0.3390 -0.0209
   36CHL1   H3' 2594   0.564   3.380   2.576 -0.9674 -0.9155 -0.2214
   36CHL1    C4 2595   0.602   3.535   2.769 -0.3384  0.0495 -0.0327
   36CHL1   H4A 2596   0.667   3.447   2.753 -0.4632  0.0450 -0.5348
   36CHL1   H4B 2597   0.656   3.618   2.718 -1.4537  0.9417  0.1992
   36CHL1    C5 2598   0.593   3.574   2.916 -0.9152  0.4481  0.7368
   36CHL1    C6 2599   0.626   3.691   2.963  0.4220 -0.0209  0.8097
   36CHL1    H6 2600   0.663   3.769   2.894  1.2594 -0.0788  1.1777
   36CHL1    C7 2601   0.626   3.728   3.103  0.1202 -0.4264 -0.6382
   36CHL1   H7A 2602   0.714   3.793   3.121 -0.7575  1.2337 -1.9905
   36CHL1   H7B 2603   0.543   3.796   3.132  0.4734 -0.7997  1.4221
   36CHL1    C8 2604   0.622   3.606   3.203  0.5527 -0.2737 -0.5583
   36CHL1    H8 2605   0.719   3.552   3.205 -0.3267 -2.0732  3.2299
   36CHL1   C14 2606   0.583   3.649   3.342 -0.0961  0.7859 -0.6080
   36CHL1   H14 2607   0.484   3.698   3.328 -0.0459  1.0068 -0.2026
   36CHL1   C15 2608   0.676   3.747   3.409  0.0991  0.8629  0.2183
   36CHL1  H15A 2609   0.781   3.725   3.382 -0.2247  2.3567 -2.5968
   36CHL1  H15B 2610   0.654   3.853   3.382  1.0918  1.0128 -0.0202
   36CHL1   C16 2611   0.655   3.726   3.560 -0.6691  0.9186  0.5189
   36CHL1  H16A 2612   0.752   3.707   3.610 -0.3941  2.0970  0.4551
   36CHL1  H16B 2613   0.606   3.811   3.613  0.7159  1.1716  1.4520
   36CHL1   C17 2614   0.551   3.608   3.577  0.5092 -0.3108  0.6503
   36CHL1   H17 2615   0.451   3.657   3.575  0.8853  0.4807 -1.1333
   36CHL1   C13 2616   0.565   3.536   3.441  0.5931 -0.1828 -0.3485
   36CHL1   C18 2617   0.695   3.447   3.447  0.2874 -0.3802  0.5339
   36CHL1  H18A 2618   0.778   3.500   3.499  1.6588 -2.2690  0.3680
   36CHL1  H18B 2619   0.690   3.354   3.506  0.6515 -0.2009  0.8527
   36CHL1  H18C 2620   0.731   3.415   3.347  1.5269  0.8380  0.5556
   36CHL1   C12 2621   0.450   3.456   3.387 -0.8361  0.1559  0.0365
   36CHL1  H12A 2622   0.441   3.373   3.461 -0.1746 -0.0320 -0.0884
   36CHL1  H12B 2623   0.351   3.507   3.394 -1.8155 -1.8327  1.4435
   36CHL1   C11 2624   0.472   3.403   3.244 -0.6360 -0.2427  0.0858
   36CHL1  H11A 2625   0.550   3.325   3.255  0.0909  0.3901 -0.4698
   36CHL1  H11B 2626   0.388   3.345   3.201 -0.5551 -0.4707  0.2336
   36CHL1    C9 2627   0.509   3.515   3.146  0.5888  0.1403 -0.2552
   36CHL1    H9 2628   0.419   3.581   3.141  0.0446 -0.6166 -0.7027
   36CHL1   C10 2629   0.537   3.465   3.008  0.5723 -0.7772  0.1834
   36CHL1   C19 2630   0.623   3.334   3.017  1.0053 -0.1592 -0.3705
   36CHL1  H19A 2631   0.689   3.315   2.929  0.7915 -0.1509 -0.5350
   36CHL1  H19B 2632   0.684   3.349   3.109  2.2554 -3.6302 -0.4879
   36CHL1  H19C 2633   0.551   3.250   3.024  1.4425 -0.5367 -0.3491
   36CHL1    C1 2634   0.401   3.433   2.946 -1.0137  0.4277  0.1084
   36CHL1   H1A 2635   0.351   3.344   2.990 -1.5103 -1.0625 -3.1820
   36CHL1   H1B 2636   0.334   3.520   2.967 -1.3207  0.4027 -0.7393
   36CHL1    C2 2637   0.409   3.390   2.792  0.7231  0.2358 -0.3026
   36CHL1   H2A 2638   0.307   3.379   2.751  0.6511  0.5188 -0.2015
   36CHL1   H2B 2639   0.460   3.291   2.787 -0.4254 -0.4229  0.6677
   36CHL1   C20 2640   0.565   3.522   3.700 -0.2382  0.2677 -0.4829
   36CHL1   H20 2641   0.673   3.497   3.716 -0.1520  0.3963 -0.8720
   36CHL1   C21 2642   0.477   3.397   3.707  0.6327  1.0844 -0.3890
   36CHL1  H21A 2643   0.471   3.353   3.809 -1.0372 -0.0392 -0.9277
   36CHL1  H21B 2644   0.517   3.319   3.639 -0.6960 -0.1117  0.1583
   36CHL1  H21C 2645   0.373   3.419   3.674 -0.1719 -0.1795  1.1522
   36CHL1   C22 2646   0.538   3.607   3.831  0.1819 -0.5094 -0.5660
   36CHL1  H22A 2647   0.535   3.525   3.906 -0.0312 -0.4707 -0.5344
   36CHL1  H22B 2648   0.613   3.685   3.856 -1.3910 -0.4654  5.4790
   36CHL1   C23 2649   0.407   3.686   3.834 -0.8142 -0.5777  0.0111
   36CHL1  H23A 2650   0.415   3.772   3.764  2.0742 -1.5772 -1.0318
   36CHL1  H23B 2651   0.332   3.608   3.807  0.2882 -1.1254 -1.6200
   36CHL1   C24 2652   0.373   3.741   3.971  0.6900 -0.1044 -0.6019
   36CHL1  H24A 2653   0.271   3.785   3.966  0.4840 -0.6507 -1.2314
   36CHL1  H24B 2654   0.353   3.654   4.037 -1.0134 -0.7326 -1.8944
   36CHL1   C25 2655   0.470   3.841   4.035  0.1166  0.7708 -0.1445
   36CHL1   H25 2656   0.565   3.790   4.062 -1.1632 -1.4895  0.3043
   36CHL1   C26 2657   0.487   3.960   3.942 -0.4416  0.0273  0.2848
   36CHL1  H26A 2658   0.529   4.051   3.990 -1.7817  1.3148 -0.8853
   36CHL1  H26B 2659   0.560   3.927   3.865 -1.7449 -0.0172 -0.9766
   36CHL1  H26C 2660   0.399   3.993   3.883 -0.6602 -0.1833  0.4905
   36CHL1   C27 2661   0.415   3.894   4.173  0.9756  0.1257 -0.5940
   36CHL1  H27A 2662   0.486   3.962   4.224 -0.7880  1.4070  0.2273
   36CHL1  H27B 2663   0.321   3.950   4.155  1.2114  1.1195  1.0770
   36CHL1  H27C 2664   0.406   3.812   4.247 -0.2568 -0.2900 -1.1730
   37CHL1    C3 2665   1.011   1.987   2.572  0.0177 -0.5095 -0.4549
   37CHL1    H3 2666   1.117   2.021   2.571  0.0083 -0.4346  0.4777
   37CHL1    O3 2667   0.962   1.992   2.441  0.9546  0.2642  0.2218
   37CHL1   H3' 2668   1.030   2.010   2.376  0.5792 -1.0616 -0.5972
   37CHL1    C4 2669   0.986   1.846   2.633  0.1569  0.0331 -0.1434
   37CHL1   H4A 2670   0.883   1.818   2.601 -0.4396  1.9654 -0.0411
   37CHL1   H4B 2671   1.061   1.780   2.585 -0.0984 -0.5407  0.2304
   37CHL1    C5 2672   1.009   1.846   2.780 -0.1760 -0.0452  0.3137
   37CHL1    C6 2673   1.077   1.744   2.834  0.3200 -0.7540  0.1596
   37CHL1    H6 2674   1.124   1.668   2.770 -1.3367 -0.0980 -1.9491
   37CHL1    C7 2675   1.101   1.729   2.984  0.2073 -0.7800  0.2846
   37CHL1   H7A 2676   1.099   1.623   3.016 -1.9561 -0.6800  0.6334
   37CHL1   H7B 2677   1.204   1.759   3.014 -0.9671  0.0837  4.0080
   37CHL1    C8 2678   1.016   1.824   3.071 -0.1947 -0.0850  0.6715
   37CHL1    H8 2679   0.912   1.784   3.075 -0.2746 -0.3125 -1.8458
   37CHL1   C14 2680   1.075   1.831   3.212 -0.3296  0.4812 -0.7917
   37CHL1   H14 2681   1.170   1.883   3.190 -1.4703  1.1133 -5.3613
   37CHL1   C15 2682   1.113   1.698   3.296  0.0669  0.0250  0.1704
   37CHL1  H15A 2683   1.053   1.606   3.280  0.8222 -0.2121 -1.4808
   37CHL1  H15B 2684   1.217   1.667   3.271  0.0838  1.3509 -1.6118
   37CHL1   C16 2685   1.101   1.743   3.439  0.2318  0.8634  0.0621
   37CHL1  H16A 2686   1.028   1.682   3.497  1.6121 -1.1061 -0.1691
   37CHL1  H16B 2687   1.198   1.731   3.492 -0.0307  1.7957  0.7772
   37CHL1   C17 2688   1.063   1.892   3.447  0.3287 -0.1630  0.1446
   37CHL1   H17 2689   1.166   1.935   3.440  1.5234 -2.5780  1.7091
   37CHL1   C13 2690   0.994   1.925   3.314 -0.0131 -0.4215 -0.0002
   37CHL1   C18 2691   0.844   1.881   3.323 -0.1625  0.1090 -0.1120
   37CHL1  H18A 2692   0.795   1.874   3.224 -1.1762  2.0832  0.2069
   37CHL1  H18B 2693   0.837   1.782   3.374 -1.5845  0.7588  1.0369
   37CHL1  H18C 2694   0.791   1.948   3.393  2.2220  0.2286  1.6987
   37CHL1   C12 2695   1.006   2.068   3.259 -0.0790 -0.0642 -0.2542
   37CHL1  H12A 2696   0.943   2.139   3.318  0.2643 -2.7692  3.7147
   37CHL1  H12B 2697   1.111   2.105   3.262 -0.1269  0.2552 -1.5725
   37CHL1   C11 2698   0.959   2.077   3.108  0.0936  0.1407  0.3639
   37CHL1  H11A 2699   0.850   2.079   3.091  0.1647  0.1665 -0.0995
   37CHL1  H11B 2700   0.994   2.178   3.077  0.5381  0.8400  2.8610
   37CHL1    C9 2701   1.017   1.966   3.008 -0.7010 -0.9366  0.0833
   37CHL1    H9 2702   1.125   1.991   2.998 -1.7050  3.8087 -1.6114
   37CHL1   C10 2703   0.952   1.964   2.868  0.3557  0.2771 -0.3681
   37CHL1   C19 2704   0.796   1.941   2.874  0.3780 -0.3601 -0.2768
   37CHL1  H19A 2705   0.763   1.850   2.930 -0.9618  1.1171  1.4564
   37CHL1  H19B 2706   0.745   2.026   2.924  0.5210 -1.3975  1.7222
   37CHL1  H19C 2707   0.768   1.938   2.767  1.9183 -1.9708 -0.6907
   37CHL1    C1 2708   0.986   2.101   2.798 -0.1272  0.1122 -0.1073
   37CHL1   H1A 2709   0.937   2.191   2.843 -1.3987 -0.4060 -0.4181
   37CHL1   H1B 2710   1.095   2.115   2.814 -0.2311  1.3879 -0.3315
   37CHL1    C2 2711   0.948   2.110   2.646  0.4510 -0.4964  0.0942
   37CHL1   H2A 2712   0.983   2.206   2.601 -0.7283 -0.4169 -0.6931
   37CHL1   H2B 2713   0.837   2.118   2.641  0.5399  0.1076 -1.1383
   37CHL1   C20 2714   1.015   1.946   3.581 -0.7467  0.6755 -0.4461
   37CHL1   H20 2715   0.926   1.881   3.595 -0.1701 -0.1547 -0.5620
   37CHL1   C21 2716   0.979   2.096   3.568 -0.7086 -0.1083  0.4865
   37CHL1  H21A 2717   0.941   2.133   3.665 -3.7894 -1.2619 -0.1600
   37CHL1  H21B 2718   0.891   2.124   3.507  0.7120  0.9600 -1.1951
   37CHL1  H21C 2719   1.064   2.161   3.537  0.7678  0.0663  4.3593
   37CHL1   C22 2720   1.115   1.914   3.690 -0.8698 -0.0243 -0.0861
   37CHL1  H22A 2721   1.154   1.810   3.689 -0.2668  0.1149  2.7955
   37CHL1  H22B 2722   1.201   1.983   3.672 -0.9959  0.6212  1.6500
   37CHL1   C23 2723   1.057   1.941   3.832  0.7972 -0.1013  0.4873
   37CHL1  H23A 2724   1.029   2.048   3.841  0.8798 -0.1735  1.7651
   37CHL1  H23B 2725   0.958   1.891   3.835  0.2542  0.8588 -0.3700
   37CHL1   C24 2726   1.143   1.887   3.946  0.0175  0.1155 -0.0346
   37CHL1  H24A 2727   1.169   1.783   3.918  2.0300  0.2801  0.9774
   37CHL1  H24B 2728   1.234   1.951   3.956 -1.7787  2.8582 -0.0691
   37CHL1   C25 2729   1.080   1.902   4.085  1.0301 -0.3674 -0.9098
   37CHL1   H25 2730   1.145   1.851   4.159 -1.1449 -0.5750  0.9381
   37CHL1   C26 2731   1.063   2.048   4.127 -0.4069 -0.1657  0.2353
   37CHL1  H26A 2732   0.974   2.099   4.083 -0.9412  1.2812  2.7943
   37CHL1  H26B 2733   1.058   2.035   4.237  1.0369 -0.3055  0.3059
   37CHL1  H26C 2734   1.157   2.094   4.092  0.1354 -0.5184  1.2062
   37CHL1   C27 2735   0.942   1.837   4.085  0.6727  1.3719 -0.0684
   37CHL1  H27A 2736   0.857   1.904   4.060  0.0518  0.9309  0.8059
   37CHL1  H27B 2737   0.935   1.747   4.019  4.1273 -1.0219  2.4517
   37CHL1  H27C 2738   0.922   1.792   4.184  0.6856  0.8948 -0.2744
   38CHL1    C3 2739   4.343   5.636   2.918  0.3893 -0.8258 -0.2545
   38CHL1    H3 2740   4.312   5.741   2.933  1.4195 -0.4351 -0.7433
   38CHL1    O3 2741   4.333   5.608   2.783  0.1669 -0.1787 -0.5183
   38CHL1   H3' 2742   4.241   5.593   2.759  0.5661 -0.6802 -1.8786
   38CHL1    C4 2743   4.489   5.619   2.955 -1.0331  0.0691 -0.4388
   38CHL1   H4A 2744   4.527   5.520   2.921 -1.5547 -0.5289  0.6890
   38CHL1   H4B 2745   4.535   5.694   2.887  0.3749 -1.3559 -1.1171
   38CHL1    C5 2746   4.523   5.651   3.098 -0.0395 -0.4004 -0.2574
   38CHL1    C6 2747   4.614   5.747   3.132  0.7517 -0.1715 -0.7621
   38CHL1    H6 2748   4.668   5.793   3.048 -1.4279  2.4480 -0.8788
   38CHL1    C7 2749   4.637   5.790   3.271 -0.1172 -0.4306 -0.3728
   38CHL1   H7A 2750   4.747   5.799   3.285 -0.0023 -2.6912  0.7498
   38CHL1   H7B 2751   4.587   5.883   3.303 -0.2167 -1.2670  2.1606
   38CHL1    C8 2752   4.590   5.685   3.375  0.2337 -0.2786  0.3057
   38CHL1    H8 2753   4.657   5.596   3.373  2.0833  1.0615  0.5938
   38CHL1   C14 2754   4.589   5.753   3.511  0.3051 -0.4855 -0.7814
   38CHL1   H14 2755   4.518   5.838   3.504 -1.3818 -1.5152  2.0488
   38CHL1   C15 2756   4.727   5.799   3.556  0.0235  0.0084  0.3634
   38CHL1  H15A 2757   4.805   5.723   3.534 -0.1528  0.3233 -1.6234
   38CHL1  H15B 2758   4.747   5.901   3.515  1.1084  0.3492  1.6593
   38CHL1   C16 2759   4.709   5.826   3.714 -0.1164  0.3174  0.1246
   38CHL1  H16A 2760   4.789   5.768   3.764  0.1768  1.3417  0.8761
   38CHL1  H16B 2761   4.712   5.934   3.740  2.1466  0.0428  1.2401
   38CHL1   C17 2762   4.566   5.763   3.742  0.6149 -0.2631  0.5623
   38CHL1   H17 2763   4.503   5.854   3.740 -1.4525 -1.6103 -1.8392
   38CHL1   C13 2764   4.535   5.673   3.625 -0.5892  0.3150  0.0187
   38CHL1   C18 2765   4.611   5.538   3.642 -0.8492 -0.1051 -0.1116
   38CHL1  H18A 2766   4.717   5.565   3.661 -0.8488  0.3486 -0.7387
   38CHL1  H18B 2767   4.573   5.481   3.730  1.8558 -0.1609  1.1082
   38CHL1  H18C 2768   4.609   5.473   3.553 -0.8029 -0.3536  0.0676
   38CHL1   C12 2769   4.392   5.637   3.588  0.4826 -0.5324 -0.2452
   38CHL1  H12A 2770   4.344   5.570   3.663  0.8225 -0.5520 -0.0470
   38CHL1  H12B 2771   4.338   5.734   3.577 -0.3219 -0.9064  0.3163
   38CHL1   C11 2772   4.377   5.568   3.454 -0.5836  0.5156 -0.6375
   38CHL1  H11A 2773   4.421   5.466   3.462 -0.5954  0.5735  0.3445
   38CHL1  H11B 2774   4.271   5.550   3.428 -1.0739 -1.1209  2.1646
   38CHL1    C9 2775   4.445   5.647   3.343  0.2111  0.7413 -0.2720
   38CHL1    H9 2776   4.393   5.745   3.333  0.5230  0.7393 -2.4027
   38CHL1   C10 2777   4.433   5.581   3.200 -0.8322  0.2330 -0.5218
   38CHL1   C19 2778   4.492   5.435   3.207 -0.5652  0.3075 -0.7739
   38CHL1  H19A 2779   4.597   5.440   3.245 -1.4710  1.2660  1.8554
   38CHL1  H19B 2780   4.438   5.374   3.282 -0.1471 -0.2416 -0.9142
   38CHL1  H19C 2781   4.490   5.376   3.113  1.6925 -1.4410  0.1889
   38CHL1    C1 2782   4.280   5.577   3.159 -0.6723  0.1172 -0.1483
   38CHL1   H1A 2783   4.224   5.511   3.228 -2.1887  1.2027 -0.2835
   38CHL1   H1B 2784   4.241   5.679   3.181 -1.7754 -0.7173  1.9879
   38CHL1    C2 2785   4.261   5.545   3.006  0.8211 -0.2449 -0.7707
   38CHL1   H2A 2786   4.157   5.563   2.972 -0.1628 -2.2601  0.9569
   38CHL1   H2B 2787   4.288   5.438   2.993 -0.5081 -1.1342  2.7118
   38CHL1   C20 2788   4.548   5.715   3.891 -0.4417 -0.5454  0.1624
   38CHL1   H20 2789   4.606   5.620   3.900 -1.3038 -1.1506 -0.4523
   38CHL1   C21 2790   4.398   5.690   3.925 -0.3755 -0.1745  0.4640
   38CHL1  H21A 2791   4.375   5.651   4.027  1.3999  0.8245  1.3118
   38CHL1  H21B 2792   4.352   5.620   3.852 -0.5364 -2.4348  2.5871
   38CHL1  H21C 2793   4.338   5.783   3.922 -3.0564 -1.7921  1.2494
   38CHL1   C22 2794   4.611   5.810   3.999  0.5750  0.2247  0.4333
   38CHL1  H22A 2795   4.721   5.823   3.992  0.5415  0.1253 -0.4542
   38CHL1  H22B 2796   4.558   5.908   3.990  0.3266 -0.0536 -2.1612
   38CHL1   C23 2797   4.609   5.748   4.143 -0.1956  0.3330 -0.3574
   38CHL1  H23A 2798   4.573   5.644   4.137 -0.3052  0.2770  0.9032
   38CHL1  H23B 2799   4.713   5.733   4.179 -0.2402  0.3770 -0.2085
   38CHL1   C24 2800   4.513   5.812   4.246  0.1500 -0.4381  0.3425
   38CHL1  H24A 2801   4.523   5.922   4.244  0.5788 -0.4816 -0.4639
   38CHL1  H24B 2802   4.408   5.794   4.215 -0.5428  3.3975  0.0230
   38CHL1   C25 2803   4.534   5.765   4.396 -0.7861  0.3408  0.5127
   38CHL1   H25 2804   4.556   5.657   4.381  1.3377  1.0403 -2.1320
   38CHL1   C26 2805   4.665   5.820   4.448  0.1611 -0.7481 -0.0204
   38CHL1  H26A 2806   4.657   5.930   4.433  1.6915 -0.8416 -1.9130
   38CHL1  H26B 2807   4.692   5.783   4.549  3.0738  1.7052  0.2252
   38CHL1  H26C 2808   4.749   5.785   4.385  0.8963 -1.1748  1.1716
   38CHL1   C27 2809   4.411   5.791   4.473 -0.2406  0.0714  0.8462
   38CHL1  H27A 2810   4.318   5.753   4.427  0.5047 -0.8519  0.0497
   38CHL1  H27B 2811   4.422   5.744   4.573  0.4780 -0.0958  0.6945
   38CHL1  H27C 2812   4.410   5.901   4.490  1.7728  0.5291 -1.3723
   39CHL1    C3 2813   0.244   4.912   2.661 -0.4427 -0.3206  0.3828
   39CHL1    H3 2814   0.182   4.819   2.656 -2.8024  1.1762  0.1235
   39CHL1    O3 2815   0.268   4.961   2.530  0.1553  0.0173  0.4222
   39CHL1   H3' 2816   0.302   5.049   2.547  1.1264  0.1561 -1.8527
   39CHL1    C4 2817   0.154   5.017   2.731  0.7965 -0.1455  0.2480
   39CHL1   H4A 2818   0.210   5.113   2.728  1.2087 -0.4067 -0.7992
   39CHL1   H4B 2819   0.063   5.030   2.669  0.8167  1.1949  0.4646
   39CHL1    C5 2820   0.140   4.990   2.873 -0.5057  0.3605 -0.1241
   39CHL1    C6 2821   0.019   4.993   2.922 -0.1291  0.2936  0.3787
   39CHL1    H6 2822  -0.060   4.994   2.846 -2.1158 -0.3523  2.3178
   39CHL1    C7 2823  -0.022   4.963   3.061 -0.3111 -0.7157 -0.3948
   39CHL1   H7A 2824  -0.083   5.050   3.096  0.9372  0.3605 -0.8025
   39CHL1   H7B 2825  -0.067   4.862   3.075  0.2770 -0.7891  1.1458
   39CHL1    C8 2826   0.109   4.972   3.152  0.1051  0.5046 -1.0463
   39CHL1    H8 2827   0.129   5.080   3.166 -0.9156  0.5619  0.2335
   39CHL1   C14 2828   0.082   4.919   3.293  0.1033  0.1817  0.4131
   39CHL1   H14 2829   0.051   4.812   3.293 -1.8487  0.6958  1.5331
   39CHL1   C15 2830  -0.046   4.968   3.361 -0.1249 -0.0974 -0.2396
   39CHL1  H15A 2831  -0.043   5.077   3.339  0.1467 -0.1618 -0.5153
   39CHL1  H15B 2832  -0.132   4.921   3.310  1.7198 -0.6170 -3.0743
   39CHL1   C16 2833  -0.025   4.930   3.509  0.4111  0.2104  0.3132
   39CHL1  H16A 2834  -0.036   5.015   3.580  2.3882  0.5251  0.2914
   39CHL1  H16B 2835  -0.105   4.857   3.535 -1.2534  1.6463 -0.5931
   39CHL1   C17 2836   0.115   4.871   3.514 -0.5718  0.4019 -0.2711
   39CHL1   H17 2837   0.105   4.762   3.496  1.9847  0.1203 -0.4203
   39CHL1   C13 2838   0.193   4.923   3.393  0.3868  0.3443 -0.2402
   39CHL1   C18 2839   0.244   5.069   3.422  0.1955 -0.1766 -0.5419
   39CHL1  H18A 2840   0.164   5.141   3.449  0.5667  0.9882 -2.4540
   39CHL1  H18B 2841   0.319   5.053   3.503 -1.1483 -0.9637  0.6002
   39CHL1  H18C 2842   0.300   5.109   3.336  1.6184  0.2529  0.5447
   39CHL1   C12 2843   0.320   4.836   3.337  0.8681  0.0714 -0.1695
   39CHL1  H12A 2844   0.412   4.837   3.399 -0.1104  1.3300  1.3412
   39CHL1  H12B 2845   0.300   4.727   3.344 -0.6995  0.3231 -0.4225
   39CHL1   C11 2846   0.345   4.884   3.197 -0.3180  0.6999 -0.0218
   39CHL1  H11A 2847   0.396   4.982   3.209 -1.7148  1.1110  3.7376
   39CHL1  H11B 2848   0.420   4.821   3.144 -0.1840 -0.6676  1.6994
   39CHL1    C9 2849   0.228   4.899   3.090  0.5629  0.3794 -0.3323
   39CHL1    H9 2850   0.188   4.797   3.072  0.7362  0.1277  0.6682
   39CHL1   C10 2851   0.269   4.956   2.955  0.2056  0.7528  0.5151
   39CHL1   C19 2852   0.347   5.088   2.977 -0.9415  0.8351 -0.6855
   39CHL1  H19A 2853   0.296   5.159   3.045 -0.7231 -0.9044  1.4129
   39CHL1  H19B 2854   0.444   5.056   3.021 -2.1706 -1.0181  0.8715
   39CHL1  H19C 2855   0.370   5.132   2.877  1.3055  0.3030 -0.4597
   39CHL1    C1 2856   0.348   4.847   2.872 -0.4775 -0.5654 -0.2124
   39CHL1   H1A 2857   0.441   4.815   2.922 -0.0636  0.4517 -0.3111
   39CHL1   H1B 2858   0.285   4.755   2.868 -0.1126 -0.7753 -1.8117
   39CHL1    C2 2859   0.374   4.889   2.728 -0.2391  0.9537  0.8596
   39CHL1   H2A 2860   0.418   4.805   2.670 -0.5985 -0.2147  2.2185
   39CHL1   H2B 2861   0.433   4.983   2.730  0.7236  0.3677  0.2169
   39CHL1   C20 2862   0.178   4.883   3.657  1.0532  0.0034  0.4036
   39CHL1   H20 2863   0.179   4.991   3.685 -2.9937  0.2330  0.2597
   39CHL1   C21 2864   0.314   4.820   3.668 -0.2079 -0.1803  0.2933
   39CHL1  H21A 2865   0.356   4.829   3.770  1.9804  0.4385 -0.5993
   39CHL1  H21B 2866   0.389   4.875   3.607 -0.1537  0.5519  1.0062
   39CHL1  H21C 2867   0.306   4.712   3.643 -1.2248 -0.1775  0.5487
   39CHL1   C22 2868   0.081   4.804   3.763 -0.4108  0.5434  0.0224
   39CHL1  H22A 2869  -0.022   4.845   3.758 -0.4241  0.4246 -0.9718
   39CHL1  H22B 2870   0.079   4.695   3.742  1.8414  0.4841 -0.1169
   39CHL1   C23 2871   0.122   4.838   3.898 -1.2977 -0.0699  0.5227
   39CHL1  H23A 2872   0.220   4.793   3.925 -1.2709 -0.3093  0.0275
   39CHL1  H23B 2873   0.134   4.948   3.906  0.9042 -0.2554  0.4114
   39CHL1   C24 2874   0.034   4.781   4.015  0.0861 -0.1051  0.1871
   39CHL1  H24A 2875  -0.050   4.853   4.024  0.0434  0.0779 -1.3809
   39CHL1  H24B 2876  -0.009   4.680   3.996  0.3212 -0.6339  2.1698
   39CHL1   C25 2877   0.113   4.794   4.154 -0.2439  0.3444  0.0309
   39CHL1   H25 2878   0.185   4.710   4.143 -0.2821  0.4351 -0.9531
   39CHL1   C26 2879   0.191   4.926   4.167 -0.3273  0.3047  0.3839
   39CHL1  H26A 2880   0.262   4.938   4.082  0.2280  1.3550  0.9835
   39CHL1  H26B 2881   0.114   5.006   4.163 -1.8684 -1.1458 -0.4253
   39CHL1  H26C 2882   0.247   4.937   4.262 -0.8938 -1.4204  0.9612
   39CHL1   C27 2883   0.022   4.776   4.274  0.4211 -0.3630 -0.3954
   39CHL1  H27A 2884  -0.050   4.859   4.287  0.4431 -0.0025 -2.3097
   39CHL1  H27B 2885  -0.040   4.687   4.248 -1.3779  1.2244 -1.8353
   39CHL1  H27C 2886   0.082   4.748   4.363  0.2615 -0.8972 -0.4485
   40CHL1    C3 2887   1.807   5.148   2.707  0.3242  0.6446  0.5195
   40CHL1    H3 2888   1.856   5.055   2.672  0.6118  1.4241 -1.2270
   40CHL1    O3 2889   1.818   5.229   2.591  0.2226  0.4393  0.3252
   40CHL1   H3' 2890   1.771   5.191   2.516 -0.5872 -1.0056  1.5308
   40CHL1    C4 2891   1.650   5.135   2.743 -0.5045  0.4443 -0.5379
   40CHL1   H4A 2892   1.615   5.239   2.758 -0.1920  0.3160  1.2371
   40CHL1   H4B 2893   1.589   5.094   2.659 -0.9190  0.8978 -0.4599
   40CHL1    C5 2894   1.629   5.066   2.880  0.5432  0.0241 -0.1353
   40CHL1    C6 2895   1.536   4.969   2.890 -0.0868  0.0395  0.2677
   40CHL1    H6 2896   1.462   4.949   2.811 -0.1704  0.6865  0.1781
   40CHL1    C7 2897   1.514   4.886   3.017  0.5980  0.6106  0.0008
   40CHL1   H7A 2898   1.407   4.865   3.040  0.8476 -0.6583  0.0385
   40CHL1   H7B 2899   1.547   4.781   3.007 -0.6407  0.3379 -1.6513
   40CHL1    C8 2900   1.589   4.943   3.145 -0.1978 -0.4902 -0.7016
   40CHL1    H8 2901   1.528   5.026   3.187 -0.8689 -2.1961  1.9221
   40CHL1   C14 2902   1.592   4.838   3.258  0.5153 -0.8719  0.0457
   40CHL1   H14 2903   1.640   4.747   3.215  3.7570 -0.8215  3.1082
   40CHL1   C15 2904   1.463   4.792   3.316  0.4622  0.4172  0.4093
   40CHL1  H15A 2905   1.385   4.869   3.335  0.3823  0.8878 -1.6327
   40CHL1  H15B 2906   1.418   4.723   3.241 -0.1432  1.2123  0.0179
   40CHL1   C16 2907   1.496   4.721   3.451 -0.1664 -0.2595  0.9049
   40CHL1  H16A 2908   1.420   4.769   3.517 -0.9077  0.3238 -0.3174
   40CHL1  H16B 2909   1.482   4.611   3.455  1.5707 -0.4969  1.1094
   40CHL1   C17 2910   1.647   4.763   3.483 -0.1668 -0.6970  0.3856
   40CHL1   H17 2911   1.717   4.690   3.436 -1.1147 -0.1567 -2.0262
   40CHL1   C13 2912   1.672   4.880   3.383 -0.8601  0.1085  0.8054
   40CHL1   C18 2913   1.610   4.999   3.456  0.1897  0.7887  0.3592
   40CHL1  H18A 2914   1.506   4.976   3.488  0.6946 -0.4671  1.1853
   40CHL1  H18B 2915   1.677   5.022   3.542  0.9889 -0.1003 -0.0050
   40CHL1  H18C 2916   1.602   5.091   3.395  0.3318  1.9422  2.0007
   40CHL1   C12 2917   1.817   4.911   3.341 -0.0170 -0.3226 -0.1850
   40CHL1  H12A 2918   1.874   4.946   3.429 -1.8534 -1.4431  1.5659
   40CHL1  H12B 2919   1.876   4.827   3.300  1.9521  0.4863  0.8535
   40CHL1   C11 2920   1.818   5.017   3.230  0.0236  0.1701  0.1729
   40CHL1  H11A 2921   1.782   5.107   3.285  0.3153  0.3630  0.0517
   40CHL1  H11B 2922   1.919   5.039   3.190  0.0134  0.2393  0.1841
   40CHL1    C9 2923   1.731   4.988   3.106 -0.0277  0.1855  0.7923
   40CHL1    H9 2924   1.776   4.895   3.066  3.0062  2.5919 -1.9094
   40CHL1   C10 2925   1.731   5.097   2.992  0.4630  0.3292 -1.1882
   40CHL1   C19 2926   1.676   5.227   3.059 -0.0299 -0.5080  0.6862
   40CHL1  H19A 2927   1.574   5.218   3.102 -0.0017  0.4317  0.9704
   40CHL1  H19B 2928   1.750   5.247   3.141  2.3939 -1.3126 -1.1716
   40CHL1  H19C 2929   1.686   5.317   2.994  0.0863 -0.5260  0.6785
   40CHL1    C1 2930   1.875   5.119   2.938  0.1306  0.3604 -0.0576
   40CHL1   H1A 2931   1.933   5.165   3.020 -1.1218  1.0103  0.4900
   40CHL1   H1B 2932   1.934   5.029   2.908  1.2872  0.9367  0.4332
   40CHL1    C2 2933   1.880   5.213   2.820 -0.6521 -0.1867 -0.3134
   40CHL1   H2A 2934   1.985   5.213   2.786 -0.1979 -0.0588  1.0346
   40CHL1   H2B 2935   1.848   5.315   2.848  0.0322 -0.6925  2.7449
   40CHL1   C20 2936   1.671   4.778   3.633 -0.0441  0.0350 -0.7912
   40CHL1   H20 2937   1.606   4.854   3.680  0.5562  1.3040 -1.9499
   40CHL1   C21 2938   1.818   4.803   3.663  0.4350  0.1163  0.2021
   40CHL1  H21A 2939   1.850   4.905   3.632  1.0873  0.2810  1.3761
   40CHL1  H21B 2940   1.868   4.734   3.593 -1.5597  0.4527 -1.6575
   40CHL1  H21C 2941   1.851   4.783   3.767  0.0135 -3.4854 -0.2598
   40CHL1   C22 2942   1.639   4.641   3.696  0.2488  0.5625  0.5444
   40CHL1  H22A 2943   1.538   4.613   3.660  1.1752  2.9785 -4.9153
   40CHL1  H22B 2944   1.707   4.565   3.651  0.0847  1.4389 -1.2970
   40CHL1   C23 2945   1.646   4.628   3.849  0.3527  0.0816 -0.0044
   40CHL1  H23A 2946   1.681   4.526   3.875 -0.5336 -0.2372 -0.0280
   40CHL1  H23B 2947   1.734   4.682   3.890 -0.0809  0.1829  0.8169
   40CHL1   C24 2948   1.514   4.678   3.914  0.1812  0.1661 -0.5068
   40CHL1  H24A 2949   1.492   4.772   3.858  2.0040  0.1746 -1.2393
   40CHL1  H24B 2950   1.422   4.616   3.902 -0.1370  0.0913  1.8809
   40CHL1   C25 2951   1.526   4.704   4.065  0.5410  0.8260  0.3643
   40CHL1   H25 2952   1.616   4.766   4.082  2.0389 -0.6402 -1.6861
   40CHL1   C26 2953   1.402   4.763   4.128 -0.1626 -0.1396  0.7867
   40CHL1  H26A 2954   1.383   4.868   4.097  1.9967  0.0673 -0.0173
   40CHL1  H26B 2955   1.310   4.720   4.083 -0.0027  0.8933 -0.5985
   40CHL1  H26C 2956   1.409   4.743   4.237  0.4505  0.8456  0.9374
   40CHL1   C27 2957   1.558   4.574   4.136  0.4776 -0.0479 -0.9183
   40CHL1  H27A 2958   1.471   4.504   4.135 -0.1745  0.6997  0.9956
   40CHL1  H27B 2959   1.661   4.540   4.110  0.5010  0.5470 -1.6364
   40CHL1  H27C 2960   1.580   4.602   4.241 -1.5236 -2.8607  0.3639
   41CHL1    C3 2961   0.500   4.365   2.383 -0.7055  0.1242  0.0939
   41CHL1    H3 2962   0.458   4.262   2.380 -0.2873 -0.0982  1.1964
   41CHL1    O3 2963   0.514   4.400   2.244 -0.1197 -0.3320 -0.3453
   41CHL1   H3' 2964   0.427   4.402   2.203  0.9471 -0.8350 -2.7981
   41CHL1    C4 2965   0.413   4.471   2.452 -0.7774 -0.1543 -0.4451
   41CHL1   H4A 2966   0.453   4.572   2.429  1.4867 -0.3194  2.3087
   41CHL1   H4B 2967   0.309   4.454   2.415 -0.9187 -1.2140  0.3727
   41CHL1    C5 2968   0.425   4.444   2.599  0.6048  0.7143  0.2296
   41CHL1    C6 2969   0.316   4.445   2.673  0.6536 -0.3650  0.7304
   41CHL1    H6 2970   0.222   4.459   2.618  0.3801 -1.3250  0.9393
   41CHL1    C7 2971   0.300   4.431   2.823  0.0360  0.1820 -0.1488
   41CHL1   H7A 2972   0.227   4.503   2.865  1.9484  0.6784  2.6245
   41CHL1   H7B 2973   0.253   4.333   2.845  2.3389 -0.9587  0.0092
   41CHL1    C8 2974   0.431   4.444   2.891 -0.6276  0.0484  0.2114
   41CHL1    H8 2975   0.435   4.555   2.899  0.7510  0.0864 -0.6870
   41CHL1   C14 2976   0.439   4.400   3.038 -0.4020 -0.2951  0.9874
   41CHL1   H14 2977   0.432   4.290   3.029 -0.4340 -0.1209 -3.9521
   41CHL1   C15 2978   0.335   4.439   3.138  0.2693 -0.6159  0.3016
   41CHL1  H15A 2979   0.316   4.549   3.142  1.0688 -0.4956  1.0982
   41CHL1  H15B 2980   0.234   4.395   3.125 -0.4435  0.3384  2.1767
   41CHL1   C16 2981   0.386   4.402   3.280 -0.1338 -0.4088  0.2815
   41CHL1  H16A 2982   0.398   4.496   3.339 -0.6237  0.5890 -1.1594
   41CHL1  H16B 2983   0.325   4.321   3.324  0.3017 -1.2561 -0.6493
   41CHL1   C17 2984   0.533   4.353   3.245 -0.6095  0.6964  0.2424
   41CHL1   H17 2985   0.522   4.243   3.233 -0.1014  0.3054  2.7968
   41CHL1   C13 2986   0.573   4.414   3.108  0.5572  0.1486  0.2279
   41CHL1   C18 2987   0.607   4.563   3.125  0.3641 -0.5973 -0.2426
   41CHL1  H18A 2988   0.535   4.619   3.189 -1.6141 -1.8835 -1.2520
   41CHL1  H18B 2989   0.707   4.586   3.168  0.1299 -1.5736  0.8848
   41CHL1  H18C 2990   0.599   4.605   3.023  0.1612 -1.8497 -0.7554
   41CHL1   C12 2991   0.686   4.345   3.030  0.1845 -0.0148  0.2554
   41CHL1  H12A 2992   0.776   4.373   3.088 -1.2416  0.8874  2.1249
   41CHL1  H12B 2993   0.675   4.235   3.037  0.9986 -0.1277 -0.1089
   41CHL1   C11 2994   0.693   4.400   2.887  0.8075  0.6941  0.8743
   41CHL1  H11A 2995   0.733   4.504   2.892  0.1784  1.1166 -1.5715
   41CHL1  H11B 2996   0.767   4.339   2.831  0.2623 -0.3517  1.2713
   41CHL1    C9 2997   0.552   4.386   2.812 -0.2114 -0.7573 -0.4980
   41CHL1    H9 2998   0.527   4.277   2.813  1.7728 -1.2642 -0.4787
   41CHL1   C10 2999   0.567   4.430   2.667 -0.1275 -0.0912  0.8897
   41CHL1   C19 3000   0.633   4.571   2.654 -0.3931 -0.4400 -0.5218
   41CHL1  H19A 3001   0.581   4.649   2.713 -0.3020 -0.1498 -0.8235
   41CHL1  H19B 3002   0.738   4.578   2.689 -0.1225  1.2962 -1.5988
   41CHL1  H19C 3003   0.645   4.611   2.551  1.0110 -1.7212 -0.8899
   41CHL1    C1 3004   0.659   4.336   2.581  0.6609 -0.1842 -0.2341
   41CHL1   H1A 3005   0.764   4.341   2.617  0.8520 -2.0525 -0.4676
   41CHL1   H1B 3006   0.619   4.238   2.612  1.0657  0.6726  3.4746
   41CHL1    C2 3007   0.648   4.356   2.431 -0.4030  0.3598 -0.0815
   41CHL1   H2A 3008   0.693   4.272   2.374 -1.0659 -0.3397  0.4139
   41CHL1   H2B 3009   0.709   4.446   2.411  0.7558 -0.5562 -0.8099
   41CHL1   C20 3010   0.645   4.363   3.357 -0.0532 -0.0335  0.2249
   41CHL1   H20 3011   0.714   4.449   3.343 -0.3257  0.0941 -0.3673
   41CHL1   C21 3012   0.722   4.232   3.333 -0.1263  0.6853 -0.3398
   41CHL1  H21A 3013   0.810   4.233   3.401  0.0522 -0.6768 -0.5235
   41CHL1  H21B 3014   0.761   4.230   3.229 -0.5304 -0.1360 -0.4844
   41CHL1  H21C 3015   0.661   4.140   3.347 -0.5895  0.8397 -1.2686
   41CHL1   C22 3016   0.593   4.356   3.501  0.0071 -0.1141 -0.4195
   41CHL1  H22A 3017   0.498   4.299   3.509 -0.4680  0.7494  0.4249
   41CHL1  H22B 3018   0.669   4.304   3.563 -1.3310 -1.5889  0.0323
   41CHL1   C23 3019   0.589   4.490   3.573 -0.2410 -0.3747  0.1528
   41CHL1  H23A 3020   0.536   4.563   3.509 -0.4066  0.3113  1.0444
   41CHL1  H23B 3021   0.528   4.468   3.664 -0.5278 -2.3193 -0.4521
   41CHL1   C24 3022   0.727   4.530   3.622 -0.6559 -0.2672  0.2182
   41CHL1  H24A 3023   0.768   4.455   3.693  1.0123  0.0003 -0.4270
   41CHL1  H24B 3024   0.804   4.547   3.545  0.9165  0.3492  1.8440
   41CHL1   C25 3025   0.728   4.667   3.698 -0.4070 -0.3020  0.3392
   41CHL1   H25 3026   0.672   4.732   3.628 -0.6586 -2.4209 -1.5531
   41CHL1   C26 3027   0.649   4.667   3.831  0.5415  0.7363 -0.3951
   41CHL1  H26A 3028   0.676   4.760   3.885 -0.6159 -0.3205  2.1695
   41CHL1  H26B 3029   0.538   4.668   3.821  0.5228  0.5894 -0.2058
   41CHL1  H26C 3030   0.679   4.578   3.890 -3.1217 -0.9122 -0.7054
   41CHL1   C27 3031   0.879   4.717   3.726 -0.6374 -0.3833 -0.2837
   41CHL1  H27A 3032   0.873   4.816   3.776 -1.6676 -1.3103  1.5294
   41CHL1  H27B 3033   0.928   4.642   3.791  0.9132  0.3887 -0.5153
   41CHL1  H27C 3034   0.939   4.727   3.632  1.9658  0.7634  1.3832
   42CHL1    C3 3035   3.718   5.388   2.595 -0.0147  0.1134 -0.8707
   42CHL1    H3 3036   3.825   5.412   2.575  1.2133 -0.3104  3.9496
   42CHL1    O3 3037   3.649   5.357   2.480  0.1368 -0.1734 -0.4493
   42CHL1   H3' 3038   3.706   5.401   2.415  0.6460  0.0870  0.1671
   42CHL1    C4 3039   3.705   5.263   2.698  0.0842 -0.5726 -0.1865
   42CHL1   H4A 3040   3.603   5.223   2.713  0.0398 -0.2808  0.3233
   42CHL1   H4B 3041   3.769   5.181   2.657  0.0027 -1.0149  0.5377
   42CHL1    C5 3042   3.771   5.311   2.829 -0.2780 -0.4003  0.0728
   42CHL1    C6 3043   3.882   5.246   2.880  0.5315 -0.9010  0.4708
   42CHL1    H6 3044   3.908   5.156   2.822 -3.4906 -1.5642 -0.6355
   42CHL1    C7 3045   3.946   5.265   3.008 -0.3702  0.0864  0.1916
   42CHL1   H7A 3046   3.966   5.169   3.059  1.2675 -1.4085 -2.9716
   42CHL1   H7B 3047   4.044   5.317   2.996 -0.5176  0.4014  0.3321
   42CHL1    C8 3048   3.855   5.358   3.104 -0.3536 -0.3731  0.1406
   42CHL1    H8 3049   3.768   5.297   3.137 -0.4867  0.4328  1.3284
   42CHL1   C14 3050   3.932   5.403   3.224 -0.3262  0.1426  0.3900
   42CHL1   H14 3051   4.015   5.468   3.188  1.7516 -1.7718  1.4088
   42CHL1   C15 3052   3.995   5.292   3.313 -0.3697 -0.6148 -0.4285
   42CHL1  H15A 3053   3.925   5.209   3.339  1.9204 -1.6192  3.3584
   42CHL1  H15B 3054   4.084   5.237   3.274  0.9029 -0.6328  2.2976
   42CHL1   C16 3055   4.024   5.373   3.443 -0.3760 -0.2834  0.0343
   42CHL1  H16A 3056   4.007   5.310   3.533  0.4514 -0.3301  0.1679
   42CHL1  H16B 3057   4.132   5.400   3.447  0.2678 -2.6733  0.7259
   42CHL1   C17 3058   3.938   5.503   3.442  0.1766  0.3470  0.2404
   42CHL1   H17 3059   3.997   5.593   3.415  0.2454 -0.3209 -2.0336
   42CHL1   C13 3060   3.845   5.484   3.317 -0.4303 -0.0663 -0.6556
   42CHL1   C18 3061   3.724   5.404   3.361  0.0009 -0.4811 -0.1337
   42CHL1  H18A 3062   3.650   5.387   3.280 -1.5225 -0.1003  1.1170
   42CHL1  H18B 3063   3.759   5.304   3.394  2.3300  0.7130  1.3737
   42CHL1  H18C 3064   3.671   5.446   3.449  1.7571  0.8125  0.3805
   42CHL1   C12 3065   3.804   5.616   3.243 -0.5053 -0.3872 -0.1727
   42CHL1  H12A 3066   3.748   5.693   3.299  0.4012  0.4691 -0.4211
   42CHL1  H12B 3067   3.888   5.685   3.225  0.1452 -0.5897  1.8395
   42CHL1   C11 3068   3.732   5.580   3.112  0.2151 -0.0059  0.0486
   42CHL1  H11A 3069   3.630   5.544   3.140  0.6047 -1.9772 -0.8402
   42CHL1  H11B 3070   3.721   5.676   3.058  1.2217 -0.5798 -1.2372
   42CHL1    C9 3071   3.799   5.473   3.017  0.6134 -0.5288 -0.0194
   42CHL1    H9 3072   3.893   5.518   2.977  0.8285 -0.7862  0.1946
   42CHL1   C10 3073   3.701   5.433   2.897 -0.9262 -0.2719 -0.8324
   42CHL1   C19 3074   3.564   5.401   2.949  0.6990 -0.4842  0.4294
   42CHL1  H19A 3075   3.510   5.328   2.885  0.7715 -1.1436  1.0950
   42CHL1  H19B 3076   3.565   5.342   3.044  1.5385 -4.8630 -2.0402
   42CHL1  H19C 3077   3.495   5.488   2.944  1.4775  0.0943 -0.6935
   42CHL1    C1 3078   3.709   5.547   2.793 -0.0022  0.5361  0.2447
   42CHL1   H1A 3079   3.664   5.638   2.837  1.8374  0.4072  2.5991
   42CHL1   H1B 3080   3.819   5.564   2.784  0.2180 -1.2545 -1.1531
   42CHL1    C2 3081   3.652   5.515   2.659 -0.0927  0.4436  0.4905
   42CHL1   H2A 3082   3.663   5.589   2.577  3.7769 -2.5382 -2.0979
   42CHL1   H2B 3083   3.543   5.495   2.667  0.0263 -0.1926  0.5602
   42CHL1   C20 3084   3.873   5.541   3.578  0.1037  0.0028 -0.1982
   42CHL1   H20 3085   3.829   5.451   3.627 -0.6824  0.8143  0.6181
   42CHL1   C21 3086   3.769   5.651   3.568 -0.1632 -0.2933 -0.0729
   42CHL1  H21A 3087   3.693   5.634   3.489  0.2767 -1.2444 -0.3024
   42CHL1  H21B 3088   3.823   5.743   3.535  1.6124 -1.4598 -0.6168
   42CHL1  H21C 3089   3.720   5.687   3.660  1.7270  3.4616 -0.3213
   42CHL1   C22 3090   3.978   5.596   3.676  0.3048  0.1920 -0.1237
   42CHL1  H22A 3091   4.058   5.519   3.686 -0.3018 -0.5099 -0.5664
   42CHL1  H22B 3092   4.029   5.684   3.631 -1.3527  2.0984  1.5249
   42CHL1   C23 3093   3.947   5.628   3.821 -0.0349  0.1321 -1.0522
   42CHL1  H23A 3094   4.037   5.675   3.867 -1.2400  1.9854 -0.4819
   42CHL1  H23B 3095   3.869   5.708   3.822  0.2457  0.4623 -2.5002
   42CHL1   C24 3096   3.926   5.508   3.913  0.2448 -0.7915  0.0687
   42CHL1  H24A 3097   3.848   5.440   3.871  0.6742 -0.9176 -0.5282
   42CHL1  H24B 3098   4.023   5.453   3.914  2.1997  2.4102  0.0396
   42CHL1   C25 3099   3.894   5.553   4.056  0.9049 -0.1941 -0.1251
   42CHL1   H25 3100   3.807   5.622   4.048  0.2886 -0.8744  0.5773
   42CHL1   C26 3101   3.850   5.441   4.148 -0.1918 -0.1149  0.0610
   42CHL1  H26A 3102   3.837   5.488   4.248  2.1286  1.3947 -0.2716
   42CHL1  H26B 3103   3.758   5.387   4.118 -0.5274 -0.1497  1.1230
   42CHL1  H26C 3104   3.931   5.366   4.158 -1.0325 -0.6611  4.9907
   42CHL1   C27 3105   4.013   5.628   4.116 -0.7747  0.5622 -0.0483
   42CHL1  H27A 3106   4.107   5.576   4.087 -1.9088 -1.0320 -1.0999
   42CHL1  H27B 3107   4.016   5.735   4.088  0.0687  0.7950  0.8467
   42CHL1  H27C 3108   4.006   5.624   4.227  0.0640  0.1399  0.0005
   43CHL1    C3 3109   4.196   4.571   2.778  0.8139 -0.2374 -0.3438
   43CHL1    H3 3110   4.305   4.554   2.791  0.5409 -1.0378  1.1226
   43CHL1    O3 3111   4.170   4.587   2.639 -0.0149  0.4953  0.0023
   43CHL1   H3' 3112   4.223   4.523   2.591  1.6852  1.2061  0.8599
   43CHL1    C4 3113   4.128   4.449   2.838 -0.6884 -0.4962  0.8269
   43CHL1   H4A 3114   4.018   4.454   2.826 -0.7041 -2.7069 -0.5374
   43CHL1   H4B 3115   4.157   4.361   2.777  1.6099  2.1521 -2.2839
   43CHL1    C5 3116   4.164   4.443   2.990  0.1303  0.0774  0.5183
   43CHL1    C6 3117   4.221   4.320   3.021  0.5842  0.3286 -0.3681
   43CHL1    H6 3118   4.228   4.243   2.944 -0.1649  1.4628 -1.6134
   43CHL1    C7 3119   4.251   4.293   3.164 -0.4115  0.2888 -0.4303
   43CHL1   H7A 3120   4.181   4.209   3.185 -1.7074  2.0353  3.0980
   43CHL1   H7B 3121   4.359   4.272   3.176 -0.7315 -1.0969  0.2566
   43CHL1    C8 3122   4.194   4.403   3.269 -0.7003  0.4298  0.1888
   43CHL1    H8 3123   4.086   4.378   3.279 -0.3639 -1.0863  0.2736
   43CHL1   C14 3124   4.269   4.387   3.410 -0.2029  0.2398  0.0186
   43CHL1   H14 3125   4.373   4.412   3.379  0.1180 -0.5020  0.4707
   43CHL1   C15 3126   4.279   4.241   3.462 -0.8038  0.6635 -0.0132
   43CHL1  H15A 3127   4.175   4.201   3.460  0.0075 -1.5881 -0.5854
   43CHL1  H15B 3128   4.363   4.191   3.408 -0.1756  1.4199  0.2457
   43CHL1   C16 3129   4.317   4.267   3.607 -0.1127  0.3904 -0.4823
   43CHL1  H16A 3130   4.239   4.217   3.669 -0.0054  0.4777 -0.2739
   43CHL1  H16B 3131   4.409   4.214   3.639  1.6765  3.3937 -0.2708
   43CHL1   C17 3132   4.318   4.427   3.631  0.6398  0.0005  0.2284
   43CHL1   H17 3133   4.417   4.470   3.602 -0.4102  1.4250 -1.4370
   43CHL1   C13 3134   4.221   4.477   3.519  0.4418  0.5133 -0.7625
   43CHL1   C18 3135   4.075   4.445   3.560  0.1049 -0.0868  0.2772
   43CHL1  H18A 3136   4.006   4.443   3.473  1.4168  0.6454 -0.8219
   43CHL1  H18B 3137   4.055   4.348   3.609 -3.3728 -0.5735 -1.7771
   43CHL1  H18C 3138   4.037   4.516   3.637 -1.4458 -0.4018 -0.1651
   43CHL1   C12 3139   4.242   4.617   3.459  0.4373  0.1739 -0.4023
   43CHL1  H12A 3140   4.219   4.690   3.540  2.6842 -1.9052  2.2819
   43CHL1  H12B 3141   4.351   4.635   3.445  0.2217  0.2041 -2.4394
   43CHL1   C11 3142   4.171   4.645   3.327  0.0819  0.1577 -0.6506
   43CHL1  H11A 3143   4.062   4.649   3.345  0.0059 -1.1363 -0.7309
   43CHL1  H11B 3144   4.202   4.749   3.301 -0.5585  0.6480  0.4681
   43CHL1    C9 3145   4.213   4.545   3.214 -0.4093  0.3336  0.0573
   43CHL1    H9 3146   4.321   4.559   3.189 -0.7960  0.6982 -1.4972
   43CHL1   C10 3147   4.138   4.565   3.082 -0.1785 -0.3270 -0.3658
   43CHL1   C19 3148   3.990   4.567   3.107 -0.4479  0.0763  0.5012
   43CHL1  H19A 3149   3.949   4.494   3.180 -3.2770  1.2786  0.2699
   43CHL1  H19B 3150   3.967   4.668   3.148 -0.5213  0.1185  0.3577
   43CHL1  H19C 3151   3.929   4.555   3.015  0.1405 -1.5825  0.3020
   43CHL1    C1 3152   4.188   4.691   3.001  0.7104 -0.1373  0.4535
   43CHL1   H1A 3153   4.157   4.778   3.063 -0.3562 -1.0944  1.3067
   43CHL1   H1B 3154   4.299   4.691   2.990  0.7327  1.7117  0.4706
   43CHL1    C2 3155   4.149   4.692   2.848 -0.4179 -1.0822 -1.0645
   43CHL1   H2A 3156   4.179   4.790   2.804 -2.0386 -0.3969 -0.7197
   43CHL1   H2B 3157   4.039   4.697   2.856 -0.3785 -1.7034  0.0411
   43CHL1   C20 3158   4.281   4.475   3.778  0.0146 -0.6332  0.5339
   43CHL1   H20 3159   4.186   4.532   3.786 -0.4669 -1.3822  0.2480
   43CHL1   C21 3160   4.385   4.586   3.805 -0.3092 -0.1255  0.0168
   43CHL1  H21A 3161   4.486   4.541   3.792 -1.2117 -1.6179 -2.4059
   43CHL1  H21B 3162   4.356   4.626   3.905  1.1049 -3.6796  2.0302
   43CHL1  H21C 3163   4.367   4.670   3.734  2.0482 -0.0987 -0.6476
   43CHL1   C22 3164   4.277   4.362   3.888 -0.0618 -0.2141 -0.5164
   43CHL1  H22A 3165   4.228   4.267   3.857  0.9743 -0.9626  0.0336
   43CHL1  H22B 3166   4.383   4.334   3.909  0.4754  1.5652 -0.7462
   43CHL1   C23 3167   4.193   4.401   4.008 -0.1081 -0.7751 -0.3070
   43CHL1  H23A 3168   4.243   4.494   4.043  0.7476 -1.1234 -0.5734
   43CHL1  H23B 3169   4.091   4.431   3.977 -0.2045  0.4359  1.0619
   43CHL1   C24 3170   4.184   4.292   4.112  0.0871 -0.1554  0.1636
   43CHL1  H24A 3171   4.133   4.201   4.075  1.5851 -0.3526 -1.5357
   43CHL1  H24B 3172   4.287   4.253   4.132  0.6742  0.5498 -1.3636
   43CHL1   C25 3173   4.122   4.328   4.251 -0.1328 -0.5148  0.0493
   43CHL1   H25 3174   4.016   4.359   4.237 -0.6596 -1.4468  1.6650
   43CHL1   C26 3175   4.117   4.206   4.349 -0.3113  0.0834  0.1813
   43CHL1  H26A 3176   4.056   4.227   4.440  1.7660 -0.6933  1.8513
   43CHL1  H26B 3177   4.085   4.111   4.300  0.0986 -1.0448  1.9936
   43CHL1  H26C 3178   4.220   4.194   4.388 -0.4813 -1.4543  0.2398
   43CHL1   C27 3179   4.182   4.439   4.326 -0.9539  0.0434 -0.2788
   43CHL1  H27A 3180   4.161   4.536   4.276  0.0922  0.7632  0.6409
   43CHL1  H27B 3181   4.146   4.440   4.431  0.8112 -2.6428  0.4584
   43CHL1  H27C 3182   4.291   4.417   4.329 -0.9633 -0.1278 -0.9393
   44CHL1    C3 3183   6.051   2.378   2.473  0.4724  0.1548  0.3545
   44CHL1    H3 3184   6.156   2.344   2.489 -0.0242 -2.0222 -0.6978
   44CHL1    O3 3185   6.014   2.377   2.333  0.7010  0.4212 -0.5577
   44CHL1   H3' 3186   6.061   2.455   2.304  1.5682  0.2990  0.4395
   44CHL1    C4 3187   5.955   2.287   2.556  0.2005  0.6041  0.2337
   44CHL1   H4A 3188   5.849   2.314   2.532 -0.8360 -2.8900  0.2729
   44CHL1   H4B 3189   5.971   2.180   2.531 -0.1107 -0.3367  3.5865
   44CHL1    C5 3190   5.972   2.301   2.703  0.1430 -0.6441 -0.2269
   44CHL1    C6 3191   5.990   2.200   2.777 -0.6059  0.9746 -0.1089
   44CHL1    H6 3192   5.971   2.097   2.743 -0.8313  0.4926  1.4041
   44CHL1    C7 3193   6.002   2.214   2.924 -0.3761  0.3032 -0.3548
   44CHL1   H7A 3194   5.946   2.130   2.972  0.4702 -0.4147 -0.5870
   44CHL1   H7B 3195   6.108   2.191   2.949 -0.3680 -0.2449 -0.8577
   44CHL1    C8 3196   5.965   2.347   2.994 -0.0533  0.5858 -0.0929
   44CHL1    H8 3197   5.854   2.349   2.999 -0.5490 -3.7751 -3.3428
   44CHL1   C14 3198   6.025   2.356   3.132 -0.3560 -0.4051 -0.3791
   44CHL1   H14 3199   6.135   2.360   3.117 -0.1896  1.7797  0.9972
   44CHL1   C15 3200   5.999   2.245   3.235 -0.3605 -1.1093 -0.3175
   44CHL1  H15A 3201   5.890   2.229   3.224 -0.1485 -2.1102 -1.1591
   44CHL1  H15B 3202   6.056   2.150   3.222  1.9578  0.1656 -0.0058
   44CHL1   C16 3203   6.030   2.313   3.371  0.1578  0.0298 -0.9711
   44CHL1  H16A 3204   5.942   2.302   3.437  0.5816  0.1995 -0.3763
   44CHL1  H16B 3205   6.117   2.266   3.421 -1.0092 -2.9505 -1.5131
   44CHL1   C17 3206   6.063   2.460   3.337  0.2765  0.3772 -0.0136
   44CHL1   H17 3207   6.172   2.478   3.324  0.1695  0.4297 -0.9753
   44CHL1   C13 3208   5.994   2.483   3.203 -0.3962  0.4681  0.1541
   44CHL1   C18 3209   5.844   2.506   3.232 -0.3932 -0.1050 -0.0241
   44CHL1  H18A 3210   5.789   2.421   3.277  2.2549 -1.3485  1.0539
   44CHL1  H18B 3211   5.814   2.592   3.296 -2.1534 -0.8737  0.2410
   44CHL1  H18C 3212   5.786   2.536   3.142  0.3620 -0.0202 -0.4951
   44CHL1   C12 3213   6.061   2.603   3.114  0.3634  0.4818  0.6925
   44CHL1  H12A 3214   6.037   2.702   3.159  1.5576  0.4546  1.4193
   44CHL1  H12B 3215   6.171   2.594   3.124  0.1768 -1.0858  1.6781
   44CHL1   C11 3216   6.005   2.597   2.968  0.6742 -0.4431 -0.6606
   44CHL1  H11A 3217   5.904   2.643   2.970  0.8576 -0.0205 -0.9890
   44CHL1  H11B 3218   6.059   2.674   2.909  0.9448 -0.0831  0.0371
   44CHL1    C9 3219   6.016   2.462   2.906 -0.1745 -0.1235  0.5895
   44CHL1    H9 3220   6.123   2.434   2.917  0.0578 -0.1362 -1.3352
   44CHL1   C10 3221   5.970   2.451   2.756 -0.2434  0.6085 -0.0247
   44CHL1   C19 3222   5.828   2.505   2.743 -0.1369 -0.1423  0.7411
   44CHL1  H19A 3223   5.800   2.603   2.788 -0.0725  0.3676 -0.2918
   44CHL1  H19B 3224   5.811   2.526   2.635 -0.3653  0.7920  0.9487
   44CHL1  H19C 3225   5.758   2.427   2.780 -1.2897  0.7285  0.4761
   44CHL1    C1 3226   6.065   2.540   2.667 -0.0323 -0.6236 -0.3261
   44CHL1   H1A 3227   6.044   2.646   2.695  0.2636 -1.1098  1.9529
   44CHL1   H1B 3228   6.168   2.508   2.692  0.2877  2.3169  2.9332
   44CHL1    C2 3229   6.044   2.530   2.517  0.0228 -0.2856  0.2054
   44CHL1   H2A 3230   6.125   2.579   2.459  0.4121  0.1376  1.0883
   44CHL1   H2B 3231   5.946   2.564   2.477  0.1617  1.5987  1.3526
   44CHL1   C20 3232   6.024   2.564   3.450  0.2140 -0.0841 -0.0432
   44CHL1   H20 3233   5.913   2.560   3.462  0.0477 -0.7255 -1.5656
   44CHL1   C21 3234   6.063   2.711   3.431 -0.0203  0.5435 -0.9340
   44CHL1  H21A 3235   6.024   2.765   3.520  1.5539 -0.1554  0.2241
   44CHL1  H21B 3236   6.174   2.712   3.428  0.0429 -1.3786 -0.5049
   44CHL1  H21C 3237   6.021   2.756   3.338 -0.2203 -0.2820 -1.2548
   44CHL1   C22 3238   6.080   2.509   3.585 -0.0963 -0.0151 -0.8146
   44CHL1  H22A 3239   6.035   2.411   3.610 -2.8062  1.6582  1.4358
   44CHL1  H22B 3240   6.191   2.505   3.574 -0.0551  2.8293 -2.1923
   44CHL1   C23 3241   6.056   2.601   3.715 -0.5069  0.2521  0.1762
   44CHL1  H23A 3242   6.133   2.681   3.721  0.4498 -0.5362 -1.1512
   44CHL1  H23B 3243   5.954   2.645   3.706 -0.1039  1.1849  0.1176
   44CHL1   C24 3244   6.061   2.528   3.846 -0.2431  0.2022 -0.0372
   44CHL1  H24A 3245   5.965   2.474   3.858 -0.0784  0.2368  1.8461
   44CHL1  H24B 3246   6.147   2.458   3.846 -1.6242 -1.5772  1.0445
   44CHL1   C25 3247   6.073   2.605   3.980  0.5494  0.4059 -0.3926
   44CHL1   H25 3248   6.176   2.647   3.992  1.1174 -1.3292  1.3474
   44CHL1   C26 3249   5.992   2.738   3.991  0.2252  0.3522  0.1950
   44CHL1  H26A 3250   6.027   2.802   4.075 -2.5385  2.3500 -0.0500
   44CHL1  H26B 3251   6.004   2.796   3.897 -1.0795  0.3004 -0.0200
   44CHL1  H26C 3252   5.885   2.730   4.019  0.5611  0.3432  1.5588
   44CHL1   C27 3253   6.052   2.513   4.105 -0.1885 -0.5682  0.0777
   44CHL1  H27A 3254   6.082   2.566   4.199  2.7691  0.9682 -1.5794
   44CHL1  H27B 3255   5.947   2.480   4.116 -0.1797 -0.3409  0.9657
   44CHL1  H27C 3256   6.113   2.423   4.085  0.3678  0.0056 -0.9019
   45CHL1    C3 3257   3.002   3.981   2.412  0.1589  0.1566 -0.5134
   45CHL1    H3 3258   3.087   4.043   2.448 -0.6111 -0.7818  3.3549
   45CHL1    O3 3259   2.980   3.990   2.268  0.2271 -0.2376 -0.3224
   45CHL1   H3' 3260   2.999   4.082   2.245 -2.8183  0.1744 -1.7609
   45CHL1    C4 3261   3.029   3.830   2.446  0.8081 -0.7669 -0.4934
   45CHL1   H4A 3262   2.939   3.778   2.408 -0.7110  0.4282  1.2416
   45CHL1   H4B 3263   3.116   3.797   2.386  1.5320  0.8790 -0.4345
   45CHL1    C5 3264   3.033   3.799   2.594 -0.3840 -0.2069  0.6671
   45CHL1    C6 3265   3.140   3.746   2.654  0.2841  0.1896  0.1404
   45CHL1    H6 3266   3.232   3.717   2.601  1.6193  3.3910  0.4831
   45CHL1    C7 3267   3.152   3.723   2.794  0.3159  0.8331  0.0562
   45CHL1   H7A 3268   3.197   3.624   2.819  0.0789  1.0604  1.4606
   45CHL1   H7B 3269   3.218   3.799   2.842  1.1555  0.2700 -0.1811
   45CHL1    C8 3270   3.015   3.730   2.865 -0.5591  0.1372  0.6373
   45CHL1    H8 3271   2.958   3.640   2.834 -0.7128  0.5125 -0.2071
   45CHL1   C14 3272   3.031   3.722   3.013  0.2857 -0.0016 -0.0513
   45CHL1   H14 3273   3.080   3.818   3.040 -0.0142  0.9080 -2.5028
   45CHL1   C15 3274   3.117   3.604   3.069 -0.4720  0.0563  0.1830
   45CHL1  H15A 3275   3.096   3.505   3.024  1.3523  0.2333 -1.1694
   45CHL1  H15B 3276   3.226   3.623   3.057  0.1271 -1.2544  2.7568
   45CHL1   C16 3277   3.075   3.602   3.218  0.1653 -0.9380 -0.2337
   45CHL1  H16A 3278   3.049   3.499   3.250 -0.4490 -0.7767 -0.2039
   45CHL1  H16B 3279   3.165   3.634   3.276 -2.4001  3.7616  1.6324
   45CHL1   C17 3280   2.967   3.713   3.234  0.3182  0.4295  0.2106
   45CHL1   H17 3281   3.024   3.808   3.244  0.0056  0.5239  1.2249
   45CHL1   C13 3282   2.903   3.725   3.096  0.3924  0.4804 -0.1734
   45CHL1   C18 3283   2.816   3.603   3.064 -0.2268 -0.4143 -0.1379
   45CHL1  H18A 3284   2.788   3.605   2.957  0.0482 -0.1555 -0.2064
   45CHL1  H18B 3285   2.870   3.507   3.077  1.2611  0.3570 -0.3857
   45CHL1  H18C 3286   2.723   3.616   3.124 -1.1884  0.2190 -1.7260
   45CHL1   C12 3287   2.836   3.860   3.066 -0.1925  0.6137 -0.5491
   45CHL1  H12A 3288   2.735   3.875   3.112 -0.5808  1.5285 -1.6644
   45CHL1  H12B 3289   2.906   3.937   3.104 -0.5414  0.5910  0.1651
   45CHL1   C11 3290   2.809   3.868   2.916  0.2750 -0.7490 -0.0630
   45CHL1  H11A 3291   2.739   3.786   2.892  0.3632 -0.4852 -1.2749
   45CHL1  H11B 3292   2.770   3.969   2.892 -0.6716 -0.2646  3.0177
   45CHL1    C9 3293   2.939   3.853   2.832  0.0186  0.3476 -0.2196
   45CHL1    H9 3294   3.008   3.935   2.863  2.0929 -0.3535 -2.6210
   45CHL1   C10 3295   2.910   3.857   2.679  0.3073 -0.7168 -0.2326
   45CHL1   C19 3296   2.789   3.774   2.638 -0.0280  0.6545 -0.3956
   45CHL1  H19A 3297   2.778   3.767   2.528 -2.2923  1.2797 -0.2636
   45CHL1  H19B 3298   2.792   3.673   2.684 -1.6873  0.5496 -0.4783
   45CHL1  H19C 3299   2.692   3.819   2.669  0.0221  0.3535  0.2052
   45CHL1    C1 3300   2.887   4.011   2.634 -0.1368 -0.3329  0.4791
   45CHL1   H1A 3301   2.786   4.033   2.674 -0.1114  1.3393 -0.3144
   45CHL1   H1B 3302   2.962   4.079   2.680 -2.2410  1.8620  0.8726
   45CHL1    C2 3303   2.873   4.023   2.480 -0.4810  0.1917  0.0555
   45CHL1   H2A 3304   2.851   4.130   2.460  1.3069  0.5731 -0.1096
   45CHL1   H2B 3305   2.788   3.960   2.447  1.4832 -1.8923 -1.3177
   45CHL1   C20 3306   2.882   3.694   3.361  0.2610 -0.0507 -0.3644
   45CHL1   H20 3307   2.831   3.595   3.353  0.4013 -0.1482 -0.0630
   45CHL1   C21 3308   2.768   3.798   3.366  0.3469 -0.1377 -0.1646
   45CHL1  H21A 3309   2.734   3.799   3.471  0.2447  0.9633 -0.2023
   45CHL1  H21B 3310   2.679   3.770   3.307  1.7774 -1.2933 -1.9062
   45CHL1  H21C 3311   2.791   3.903   3.338  0.0022  0.0915  0.4003
   45CHL1   C22 3312   2.963   3.695   3.492  0.5208 -0.0057  0.1713
   45CHL1  H22A 3313   2.885   3.686   3.570  1.8689  0.2624  1.6061
   45CHL1  H22B 3314   3.017   3.599   3.501 -1.6515 -1.0733  3.8973
   45CHL1   C23 3315   3.043   3.824   3.536  0.6228  0.1188  0.2486
   45CHL1  H23A 3316   3.130   3.843   3.470  0.9325  0.2505  0.6970
   45CHL1  H23B 3317   2.969   3.906   3.521  0.0796 -0.2031  1.0893
   45CHL1   C24 3318   3.070   3.837   3.688 -0.3149 -1.0504  0.8103
   45CHL1  H24A 3319   3.140   3.755   3.711  0.3047 -1.2753 -1.6219
   45CHL1  H24B 3320   3.120   3.936   3.703 -2.6970  0.3457  0.1019
   45CHL1   C25 3321   2.944   3.829   3.776 -0.1866 -0.0771 -0.0146
   45CHL1   H25 3322   2.890   3.735   3.753 -3.3050  2.0298 -2.2011
   45CHL1   C26 3323   2.992   3.827   3.926  0.0182 -0.1247  0.4333
   45CHL1  H26A 3324   3.082   3.763   3.939 -0.5671 -1.1216 -0.2955
   45CHL1  H26B 3325   3.033   3.926   3.955  1.2556 -0.2342 -0.8423
   45CHL1  H26C 3326   2.910   3.785   3.988  0.9475 -1.0445  1.0922
   45CHL1   C27 3327   2.839   3.939   3.749 -0.6499  0.4604 -0.0863
   45CHL1  H27A 3328   2.753   3.908   3.813 -1.1677 -0.1111 -1.0213
   45CHL1  H27B 3329   2.875   4.041   3.772 -0.9170  0.2735  1.2725
   45CHL1  H27C 3330   2.792   3.944   3.648  1.3972  2.0601 -1.0074
   46CHL1    C3 3331   4.483   3.381   2.403 -0.5756  0.1532 -0.0069
   46CHL1    H3 3332   4.384   3.426   2.383  0.0709  0.8807 -1.8068
   46CHL1    O3 3333   4.526   3.336   2.276  0.5549  0.0413 -0.1481
   46CHL1   H3' 3334   4.619   3.311   2.282  0.9172  0.7776 -1.9951
   46CHL1    C4 3335   4.570   3.501   2.448 -0.2967  0.3293  0.6526
   46CHL1   H4A 3336   4.678   3.473   2.446  0.1429  1.9640 -1.3081
   46CHL1   H4B 3337   4.570   3.589   2.381 -0.5167 -0.9170 -1.0504
   46CHL1    C5 3338   4.538   3.550   2.587 -0.7981  0.7664  0.1618
   46CHL1    C6 3339   4.520   3.683   2.619  0.0882 -0.1927 -0.1908
   46CHL1    H6 3340   4.523   3.751   2.533 -0.7302 -0.4116 -0.4007
   46CHL1    C7 3341   4.489   3.735   2.756  0.1690  0.1143  0.4220
   46CHL1   H7A 3342   4.555   3.824   2.765 -1.3592  1.4978 -1.4059
   46CHL1   H7B 3343   4.383   3.768   2.761  0.1412 -0.0405  1.0178
   46CHL1    C8 3344   4.517   3.637   2.867 -0.0300  0.6809 -0.0678
   46CHL1    H8 3345   4.628   3.637   2.879 -0.0180 -0.6980 -0.0534
   46CHL1   C14 3346   4.445   3.685   2.993  0.2170 -0.1363  0.0128
   46CHL1   H14 3347   4.338   3.697   2.966  0.0005  1.3752  1.3738
   46CHL1   C15 3348   4.475   3.824   3.040  0.4633 -0.0707  0.5058
   46CHL1  H15A 3349   4.585   3.842   3.040  0.6173 -0.2163 -3.2779
   46CHL1  H15B 3350   4.435   3.897   2.966 -0.4694 -1.1812 -0.1261
   46CHL1   C16 3351   4.417   3.821   3.180  0.1187  0.4629 -0.2000
   46CHL1  H16A 3352   4.493   3.851   3.256  0.4245  0.0148 -0.3283
   46CHL1  H16B 3353   4.337   3.897   3.193 -0.4053 -0.1245  0.0454
   46CHL1   C17 3354   4.381   3.674   3.217  0.3173 -1.1217 -0.0986
   46CHL1   H17 3355   4.273   3.673   3.191  0.1320  0.6887  0.4546
   46CHL1   C13 3356   4.457   3.593   3.114 -0.1601  0.2710  0.2857
   46CHL1   C18 3357   4.612   3.589   3.154 -0.0891 -0.4729  0.0838
   46CHL1  H18A 3358   4.673   3.537   3.077  1.5823  2.7456 -0.9368
   46CHL1  H18B 3359   4.652   3.691   3.172  2.2472 -1.4122  0.5575
   46CHL1  H18C 3360   4.619   3.531   3.248 -0.8090 -0.8230 -0.0662
   46CHL1   C12 3361   4.400   3.452   3.086  0.6322 -0.7355  0.0144
   46CHL1  H12A 3362   4.425   3.387   3.172  1.4311 -2.2840 -1.3239
   46CHL1  H12B 3363   4.291   3.469   3.075  0.3519 -1.4431  1.4987
   46CHL1   C11 3364   4.462   3.400   2.958  0.5735 -0.2850 -0.6394
   46CHL1  H11A 3365   4.567   3.368   2.972  0.5597 -0.2650 -0.4891
   46CHL1  H11B 3366   4.404   3.306   2.939  1.7455 -1.0340 -0.5827
   46CHL1    C9 3367   4.460   3.495   2.838 -0.2204  0.4153 -0.2728
   46CHL1    H9 3368   4.351   3.505   2.818 -0.9344 -0.9469  2.4583
   46CHL1   C10 3369   4.521   3.444   2.704 -0.3435  0.4229 -0.4846
   46CHL1   C19 3370   4.662   3.385   2.735 -0.2399 -0.2349 -0.8603
   46CHL1  H19A 3371   4.652   3.287   2.787 -1.2692  0.8392  1.0800
   46CHL1  H19B 3372   4.733   3.374   2.650  0.0372  0.9314 -0.7854
   46CHL1  H19C 3373   4.712   3.446   2.812 -0.7193 -0.0731 -0.6716
   46CHL1    C1 3374   4.425   3.327   2.647 -0.4289 -0.1546 -0.2218
   46CHL1   H1A 3375   4.416   3.240   2.716 -1.4485 -0.0485 -0.2087
   46CHL1   H1B 3376   4.323   3.366   2.628 -0.6011 -0.0862  0.7900
   46CHL1    C2 3377   4.474   3.273   2.511 -0.2215  0.6413  0.6635
   46CHL1   H2A 3378   4.402   3.194   2.480 -0.5727  0.3745  2.0805
   46CHL1   H2B 3379   4.571   3.219   2.520 -0.5825 -0.0254  0.5839
   46CHL1   C20 3380   4.394   3.646   3.376  0.5481  0.1392 -0.5442
   46CHL1   H20 3381   4.498   3.670   3.404  0.8112 -1.6388  0.1809
   46CHL1   C21 3382   4.343   3.503   3.419  0.0823 -0.0335  0.2288
   46CHL1  H21A 3383   4.243   3.474   3.378  0.0063  0.9932 -0.3261
   46CHL1  H21B 3384   4.337   3.475   3.527 -1.0490  0.3134  0.2746
   46CHL1  H21C 3385   4.413   3.428   3.376  1.8514  2.0906 -0.7518
   46CHL1   C22 3386   4.320   3.745   3.466  0.5888  0.0138 -0.5799
   46CHL1  H22A 3387   4.340   3.846   3.423 -0.5345  0.4653 -0.0744
   46CHL1  H22B 3388   4.211   3.723   3.458  0.5536  0.2149 -0.6803
   46CHL1   C23 3389   4.374   3.752   3.611 -0.6940  0.4253 -0.0837
   46CHL1  H23A 3390   4.338   3.659   3.659 -0.7483  0.4759 -0.0263
   46CHL1  H23B 3391   4.485   3.764   3.611 -0.9566  5.1357  1.0104
   46CHL1   C24 3392   4.301   3.867   3.680  0.7187 -0.2812  0.0086
   46CHL1  H24A 3393   4.300   3.960   3.618  1.0191  0.0392  0.4743
   46CHL1  H24B 3394   4.195   3.835   3.684  0.5842  0.2715  1.4334
   46CHL1   C25 3395   4.350   3.894   3.825  0.1701  0.1122 -0.3473
   46CHL1   H25 3396   4.378   3.794   3.864 -0.5216 -0.0310 -0.2119
   46CHL1   C26 3397   4.466   3.987   3.855  0.0472 -0.0116 -0.2812
   46CHL1  H26A 3398   4.436   4.088   3.822 -0.4888  0.2340  0.8894
   46CHL1  H26B 3399   4.479   3.998   3.965  0.2032 -1.9321 -0.0774
   46CHL1  H26C 3400   4.553   3.942   3.802 -0.6051  1.3374 -2.6486
   46CHL1   C27 3401   4.228   3.938   3.908 -0.4226 -0.7587  0.0037
   46CHL1  H27A 3402   4.193   4.034   3.866  1.7348 -1.2651 -3.3049
   46CHL1  H27B 3403   4.137   3.875   3.896 -0.5776 -0.7006  0.7726
   46CHL1  H27C 3404   4.254   3.936   4.016 -1.2161 -1.7225  0.1997
   47CHL1    C3 3405   6.519   5.706   2.599 -0.1247  0.6236 -1.1925
   47CHL1    H3 3406   6.473   5.806   2.615 -0.9482  0.3048 -1.4999
   47CHL1    O3 3407   6.552   5.696   2.461  0.3687 -0.1707 -0.4911
   47CHL1   H3' 3408   6.608   5.618   2.460  0.1450 -0.3593  0.2818
   47CHL1    C4 3409   6.650   5.691   2.686  0.8818  0.3508  0.2875
   47CHL1   H4A 3410   6.717   5.612   2.645 -0.8463  0.1208 -2.3487
   47CHL1   H4B 3411   6.704   5.787   2.675  0.2316  0.8582  1.3831
   47CHL1    C5 3412   6.617   5.659   2.831 -0.1003  0.0783 -0.4467
   47CHL1    C6 3413   6.671   5.742   2.924 -0.0798  0.4844 -0.3988
   47CHL1    H6 3414   6.746   5.812   2.885 -0.3581 -0.5136 -2.9289
   47CHL1    C7 3415   6.642   5.731   3.071 -0.2879  1.1244  0.1629
   47CHL1   H7A 3416   6.740   5.733   3.122  0.1645  2.0591 -0.7173
   47CHL1   H7B 3417   6.586   5.821   3.104 -2.9684 -1.1826  2.4501
   47CHL1    C8 3418   6.567   5.606   3.116  0.3280  0.0195  0.0919
   47CHL1    H8 3419   6.646   5.529   3.118  0.2437 -0.0793 -0.3451
   47CHL1   C14 3420   6.520   5.611   3.260  0.1093 -0.1397  0.7792
   47CHL1   H14 3421   6.437   5.685   3.256  1.4658  1.3726 -1.7513
   47CHL1   C15 3422   6.617   5.666   3.370  0.6410  0.5368  0.4007
   47CHL1  H15A 3423   6.717   5.621   3.354 -0.5115 -1.6638 -0.9976
   47CHL1  H15B 3424   6.620   5.776   3.349 -0.3651  0.2797 -1.3454
   47CHL1   C16 3425   6.552   5.618   3.496 -0.9069 -0.2967 -0.8072
   47CHL1  H16A 3426   6.624   5.545   3.537 -1.1667 -0.5760 -0.8477
   47CHL1  H16B 3427   6.534   5.694   3.575 -2.8041 -1.6708  0.1511
   47CHL1   C17 3428   6.427   5.540   3.455  0.1482 -0.4121  0.1535
   47CHL1   H17 3429   6.351   5.619   3.435  0.5079 -0.8203 -3.5584
   47CHL1   C13 3430   6.450   5.485   3.309 -0.0476  0.7997 -0.7336
   47CHL1   C18 3431   6.549   5.363   3.312 -0.3099  0.3991  0.2951
   47CHL1  H18A 3432   6.627   5.369   3.392  0.6611  0.3208 -0.6208
   47CHL1  H18B 3433   6.501   5.264   3.323 -2.2323  0.6680 -3.7683
   47CHL1  H18C 3434   6.589   5.353   3.209 -1.3124 -1.6780  0.0553
   47CHL1   C12 3435   6.328   5.461   3.216  0.0640 -0.3264  0.4744
   47CHL1  H12A 3436   6.275   5.369   3.251 -0.7407 -0.5328 -1.1818
   47CHL1  H12B 3437   6.258   5.548   3.219 -0.5498 -0.5791 -2.9100
   47CHL1   C11 3438   6.372   5.445   3.067  0.4178  0.1825  0.0405
   47CHL1  H11A 3439   6.431   5.351   3.059 -0.7468 -0.5779  0.0342
   47CHL1  H11B 3440   6.281   5.431   3.005  1.1502 -1.9353 -0.6569
   47CHL1    C9 3441   6.452   5.568   3.017  0.2388 -0.7906 -0.3565
   47CHL1    H9 3442   6.379   5.652   3.027  1.1955 -0.0321  0.5409
   47CHL1   C10 3443   6.506   5.569   2.866  0.3756 -0.2347 -0.3901
   47CHL1   C19 3444   6.565   5.428   2.855 -0.4587  0.3828  0.8617
   47CHL1  H19A 3445   6.604   5.411   2.753 -1.0751 -0.9083  0.8209
   47CHL1  H19B 3446   6.654   5.414   2.920 -0.3682 -0.8189  0.4923
   47CHL1  H19C 3447   6.483   5.354   2.869 -0.0174 -0.3835 -0.4182
   47CHL1    C1 3448   6.380   5.579   2.773 -0.5765 -0.3504 -0.0166
   47CHL1   H1A 3449   6.316   5.492   2.797 -1.3163  0.1111 -0.2815
   47CHL1   H1B 3450   6.318   5.667   2.801 -1.7040 -0.6909 -1.3576
   47CHL1    C2 3451   6.423   5.585   2.624  0.4310  0.5974 -0.7217
   47CHL1   H2A 3452   6.342   5.588   2.548  1.6861 -1.9829 -2.3018
   47CHL1   H2B 3453   6.487   5.496   2.608  2.6663  2.2377 -1.5573
   47CHL1   C20 3454   6.386   5.449   3.566 -0.2575  0.4695  0.2341
   47CHL1   H20 3455   6.457   5.364   3.573 -2.2254 -1.2080  0.6823
   47CHL1   C21 3456   6.256   5.373   3.525 -0.0149  0.2912  0.0455
   47CHL1  H21A 3457   6.185   5.453   3.495  0.2224  0.6532  0.4299
   47CHL1  H21B 3458   6.218   5.306   3.605 -1.6214 -2.1808 -2.5602
   47CHL1  H21C 3459   6.271   5.306   3.437 -0.4327 -0.0156  0.2050
   47CHL1   C22 3460   6.375   5.528   3.701  0.1499  0.3108 -0.2293
   47CHL1  H22A 3461   6.459   5.595   3.728  0.2888  0.2689 -0.5614
   47CHL1  H22B 3462   6.289   5.597   3.687 -1.0616 -1.3244 -1.3041
   47CHL1   C23 3463   6.317   5.441   3.812  0.1937  0.1368 -0.4800
   47CHL1  H23A 3464   6.223   5.392   3.778  0.0386 -0.2149  0.4149
   47CHL1  H23B 3465   6.388   5.356   3.819  1.1831  0.9889  0.1690
   47CHL1   C24 3466   6.310   5.506   3.953 -0.1258  0.4584 -0.6186
   47CHL1  H24A 3467   6.411   5.550   3.963  0.2660 -0.6093  0.4236
   47CHL1  H24B 3468   6.226   5.579   3.949  0.3220  0.9353 -2.4890
   47CHL1   C25 3469   6.279   5.412   4.081 -0.3214 -0.1070  0.0052
   47CHL1   H25 3470   6.373   5.355   4.099  0.3635  0.7663 -0.7444
   47CHL1   C26 3471   6.249   5.502   4.204  0.0252 -0.3117  0.6165
   47CHL1  H26A 3472   6.346   5.542   4.238 -0.6805 -0.4102  2.9408
   47CHL1  H26B 3473   6.175   5.578   4.173  1.5331  0.6719 -0.6844
   47CHL1  H26C 3474   6.206   5.443   4.288  0.3670  0.1298  1.1038
   47CHL1   C27 3475   6.167   5.314   4.063  0.6356 -0.2148  0.5918
   47CHL1  H27A 3476   6.171   5.257   3.968  0.1249  1.4720 -0.4974
   47CHL1  H27B 3477   6.172   5.239   4.145  2.1274 -1.4030 -0.5284
   47CHL1  H27C 3478   6.072   5.370   4.077  0.8164  0.3381 -0.2913
   48CHL1    C3 3479   3.136   4.435   2.713 -0.4972 -0.0512 -0.7048
   48CHL1    H3 3480   3.195   4.524   2.742  0.5960 -1.3903  1.3710
   48CHL1    O3 3481   3.155   4.405   2.579 -0.2038  0.5515  0.0259
   48CHL1   H3' 3482   3.249   4.385   2.580 -0.0938  1.0478  0.2489
   48CHL1    C4 3483   3.177   4.317   2.798 -0.0750 -0.4321 -0.2497
   48CHL1   H4A 3484   3.128   4.230   2.751 -0.3312 -1.3028  1.5325
   48CHL1   H4B 3485   3.284   4.295   2.781 -0.0987 -0.7241 -0.0330
   48CHL1    C5 3486   3.136   4.323   2.945  0.0303 -0.3747  0.1422
   48CHL1    C6 3487   3.227   4.303   3.042  0.3376  0.2021  0.8888
   48CHL1    H6 3488   3.328   4.269   3.016 -0.3070 -1.2589  0.2388
   48CHL1    C7 3489   3.209   4.312   3.194 -0.3326 -0.0944  0.6589
   48CHL1   H7A 3490   3.250   4.219   3.239  1.9023  0.7201  0.3997
   48CHL1   H7B 3491   3.258   4.403   3.236 -0.0498 -0.5610  1.3676
   48CHL1    C8 3492   3.054   4.317   3.217  0.0893 -0.5411 -0.0476
   48CHL1    H8 3493   3.010   4.217   3.199  0.9459 -1.0308  0.5325
   48CHL1   C14 3494   3.030   4.360   3.356  0.4928  0.2051  0.1822
   48CHL1   H14 3495   3.060   4.466   3.369  0.7880  0.1782 -0.2700
   48CHL1   C15 3496   3.100   4.279   3.466  0.5066  0.2684 -0.3769
   48CHL1  H15A 3497   3.102   4.174   3.430  1.9601  0.1264  0.0557
   48CHL1  H15B 3498   3.208   4.307   3.466  0.3581  1.1087  2.1692
   48CHL1   C16 3499   3.027   4.305   3.591  0.4180  0.4639 -0.1728
   48CHL1  H16A 3500   3.004   4.203   3.627  1.1210  0.6423  0.8067
   48CHL1  H16B 3501   3.083   4.358   3.670  0.5200 -0.0562  0.1081
   48CHL1   C17 3502   2.895   4.374   3.556 -0.2411  0.0843  0.4481
   48CHL1   H17 3503   2.925   4.481   3.556  0.7978 -0.1731 -0.9040
   48CHL1   C13 3504   2.883   4.349   3.402 -0.0999 -0.4624 -0.4630
   48CHL1   C18 3505   2.825   4.214   3.382  0.1817  0.6032  0.1768
   48CHL1  H18A 3506   2.891   4.130   3.414  0.8581  1.9026  2.3731
   48CHL1  H18B 3507   2.722   4.216   3.423 -0.5048  0.4185 -1.4651
   48CHL1  H18C 3508   2.804   4.190   3.275  0.8837 -2.7262  0.6752
   48CHL1   C12 3509   2.811   4.458   3.315  1.0565 -0.4312 -0.0826
   48CHL1  H12A 3510   2.702   4.463   3.331  1.2753  2.0668  1.0847
   48CHL1  H12B 3511   2.841   4.556   3.359  0.7817 -0.3634 -0.0447
   48CHL1   C11 3512   2.834   4.456   3.161  0.1424  0.0097 -0.3937
   48CHL1  H11A 3513   2.763   4.378   3.125 -0.1833 -0.0854  0.4262
   48CHL1  H11B 3514   2.803   4.554   3.121  0.2369  0.9046  1.6092
   48CHL1    C9 3515   2.978   4.416   3.122  0.0044  0.3667  0.2181
   48CHL1    H9 3516   3.037   4.509   3.137  1.5973 -0.5628 -0.0169
   48CHL1   C10 3517   2.997   4.378   2.971  0.5756 -0.2250  0.3782
   48CHL1   C19 3518   2.910   4.258   2.940  0.3057  0.5705  0.0142
   48CHL1  H19A 3519   2.935   4.172   3.005 -0.9802  0.5440  0.4981
   48CHL1  H19B 3520   2.803   4.283   2.955  0.4325  0.1392  1.7836
   48CHL1  H19C 3521   2.914   4.218   2.836  1.6481  1.0689 -0.1405
   48CHL1    C1 3522   2.968   4.499   2.881  0.5647  0.3421  0.1803
   48CHL1   H1A 3523   2.866   4.535   2.908 -0.6923 -1.2495 -2.0787
   48CHL1   H1B 3524   3.032   4.580   2.922  1.0439 -0.1201  0.3406
   48CHL1    C2 3525   2.992   4.471   2.736  0.5269 -0.9312  0.2228
   48CHL1   H2A 3526   2.954   4.557   2.676 -0.7594 -2.6599 -1.5674
   48CHL1   H2B 3527   2.924   4.390   2.701  0.7802 -1.1795  0.3041
   48CHL1   C20 3528   2.785   4.349   3.652  0.5240  0.1027 -0.1057
   48CHL1   H20 3529   2.761   4.241   3.649 -2.8517  0.7518 -2.5034
   48CHL1   C21 3530   2.658   4.421   3.613 -0.0396  0.4807  0.6399
   48CHL1  H21A 3531   2.574   4.399   3.682 -0.2191  0.2994  0.3662
   48CHL1  H21B 3532   2.643   4.387   3.508  2.4235  3.9902 -1.0566
   48CHL1  H21C 3533   2.669   4.531   3.602 -0.4214  0.4310 -0.3510
   48CHL1   C22 3534   2.831   4.383   3.797  0.4806  0.3374 -0.4271
   48CHL1  H22A 3535   2.918   4.318   3.818  1.3159  1.1863 -1.1462
   48CHL1  H22B 3536   2.862   4.490   3.806  0.0651  0.3388  1.3118
   48CHL1   C23 3537   2.731   4.365   3.915 -0.1259 -0.5005 -0.0860
   48CHL1  H23A 3538   2.773   4.377   4.017  2.5300 -0.0202 -1.1505
   48CHL1  H23B 3539   2.653   4.442   3.898  2.5030  3.0350  2.4885
   48CHL1   C24 3540   2.674   4.222   3.927  0.0531  0.3528  0.5979
   48CHL1  H24A 3541   2.604   4.200   3.843 -0.4690  2.9513  0.2668
   48CHL1  H24B 3542   2.754   4.145   3.918 -0.2255  0.1813 -0.7337
   48CHL1   C25 3543   2.591   4.185   4.054 -0.0026 -0.3097 -0.1748
   48CHL1   H25 3544   2.659   4.209   4.138  2.3414  1.2948 -2.3788
   48CHL1   C26 3545   2.460   4.262   4.079  0.4987  0.8920 -0.7171
   48CHL1  H26A 3546   2.415   4.229   4.175  1.4108 -2.1660 -1.2217
   48CHL1  H26B 3547   2.480   4.371   4.090 -0.5602  0.9081  1.9176
   48CHL1  H26C 3548   2.388   4.238   3.998 -0.2847 -0.4495  0.3416
   48CHL1   C27 3549   2.560   4.031   4.065 -0.4470  0.0952  0.7118
   48CHL1  H27A 3550   2.655   3.973   4.060 -1.2726 -1.2360 -0.5255
   48CHL1  H27B 3551   2.502   4.009   4.157 -1.4951  2.1358  0.5939
   48CHL1  H27C 3552   2.503   4.014   3.971  1.7656  1.2982 -0.9443
   49CHL1    C3 3553   0.521   2.385   2.693 -0.0923 -0.1054  0.3467
   49CHL1    H3 3554   0.420   2.339   2.705  0.4458 -1.3057  0.3341
   49CHL1    O3 3555   0.537   2.375   2.557 -0.5694 -0.5020  0.4805
   49CHL1   H3' 3556   0.608   2.436   2.535 -0.7770 -0.0335  1.0884
   49CHL1    C4 3557   0.535   2.531   2.739  0.5060  0.1830 -0.7444
   49CHL1   H4A 3558   0.626   2.571   2.689  1.3291 -1.8966 -0.9851
   49CHL1   H4B 3559   0.441   2.582   2.706  0.3491 -1.2197 -2.6416
   49CHL1    C5 3560   0.540   2.541   2.890 -0.4761  0.0464  0.1578
   49CHL1    C6 3561   0.447   2.607   2.968 -0.9409 -0.9025  0.6378
   49CHL1    H6 3562   0.358   2.660   2.931 -0.9136 -1.3594 -0.1008
   49CHL1    C7 3563   0.463   2.626   3.111  0.3501 -0.2099 -0.2705
   49CHL1   H7A 3564   0.427   2.729   3.134 -1.8717 -0.9577 -0.1804
   49CHL1   H7B 3565   0.398   2.551   3.160  0.1117 -0.1176 -0.4437
   49CHL1    C8 3566   0.605   2.614   3.167 -0.7931  0.1331  0.5872
   49CHL1    H8 3567   0.673   2.693   3.132 -0.2328 -0.3571  0.5529
   49CHL1   C14 3568   0.605   2.592   3.322 -0.4160 -0.1434 -0.4468
   49CHL1   H14 3569   0.547   2.503   3.354  1.2487 -0.7510  1.0332
   49CHL1   C15 3570   0.542   2.705   3.406 -0.5646 -0.1378 -0.0909
   49CHL1  H15A 3571   0.587   2.793   3.355  0.2323 -0.5051 -0.0301
   49CHL1  H15B 3572   0.431   2.710   3.406 -0.5827  0.9855  2.0302
   49CHL1   C16 3573   0.588   2.673   3.546  0.0372 -0.3114  0.4582
   49CHL1  H16A 3574   0.634   2.761   3.596 -0.4733  0.1898  0.0683
   49CHL1  H16B 3575   0.504   2.628   3.604 -0.3454  0.8057  0.8080
   49CHL1   C17 3576   0.702   2.560   3.543  0.3269 -1.4009 -0.7580
   49CHL1   H17 3577   0.657   2.460   3.555  0.0329 -1.3890 -1.6651
   49CHL1   C13 3578   0.743   2.569   3.392 -0.3891  0.5652 -0.7480
   49CHL1   C18 3579   0.844   2.678   3.360  0.0015  0.4198 -0.2126
   49CHL1  H18A 3580   0.875   2.678   3.253  1.7687  2.0832  0.2373
   49CHL1  H18B 3581   0.803   2.777   3.387 -1.1309 -0.2846  0.7199
   49CHL1  H18C 3582   0.936   2.665   3.422  0.4563 -1.7781 -1.2615
   49CHL1   C12 3583   0.795   2.432   3.336 -0.1539 -0.2481 -0.5761
   49CHL1  H12A 3584   0.901   2.424   3.368 -0.6187  0.3526  1.2689
   49CHL1  H12B 3585   0.745   2.351   3.392  1.3722  0.0543  1.3310
   49CHL1   C11 3586   0.785   2.423   3.185  0.6253  0.1429 -0.0001
   49CHL1  H11A 3587   0.873   2.480   3.149 -0.1072  1.5298  0.3251
   49CHL1  H11B 3588   0.801   2.315   3.166  1.5317  0.2683 -0.0202
   49CHL1    C9 3589   0.661   2.475   3.111  0.1985 -0.0877 -0.1937
   49CHL1    H9 3590   0.585   2.400   3.142  1.9052 -1.1221  1.7675
   49CHL1   C10 3591   0.663   2.468   2.957 -0.0048 -0.5923  1.0702
   49CHL1   C19 3592   0.803   2.527   2.908 -0.2701  0.2130 -0.2186
   49CHL1  H19A 3593   0.788   2.552   2.800  1.9165  1.1122 -0.3539
   49CHL1  H19B 3594   0.816   2.622   2.964 -0.7546  0.3480 -0.3237
   49CHL1  H19C 3595   0.888   2.461   2.934 -1.2102  0.3571  3.9697
   49CHL1    C1 3596   0.637   2.321   2.910  0.2083 -0.1181 -0.5452
   49CHL1   H1A 3597   0.724   2.263   2.947  1.3602  1.0113 -1.3854
   49CHL1   H1B 3598   0.541   2.286   2.952  0.0232  2.0440  1.0168
   49CHL1    C2 3599   0.630   2.299   2.763  0.3900  0.3606  0.3104
   49CHL1   H2A 3600   0.600   2.193   2.751  0.1308  0.6657 -2.3920
   49CHL1   H2B 3601   0.728   2.318   2.713  1.7757  0.1090  2.7496
   49CHL1   C20 3602   0.804   2.584   3.657  0.4543  0.2587  0.2088
   49CHL1   H20 3603   0.847   2.685   3.639 -2.2829  1.7286  1.3777
   49CHL1   C21 3604   0.913   2.469   3.645  0.5254  0.0088 -0.0697
   49CHL1  H21A 3605   0.976   2.467   3.737 -0.7534 -2.6203  0.8184
   49CHL1  H21B 3606   0.971   2.474   3.550 -1.1013 -3.4446 -1.3997
   49CHL1  H21C 3607   0.865   2.369   3.642  0.8983 -0.1669 -0.2176
   49CHL1   C22 3608   0.744   2.582   3.803  0.3536 -0.5720 -0.5354
   49CHL1  H22A 3609   0.659   2.653   3.804  0.1052 -0.8610  0.7747
   49CHL1  H22B 3610   0.702   2.479   3.813  1.2730 -1.0807 -1.6138
   49CHL1   C23 3611   0.832   2.627   3.916 -0.1072  0.0134  0.0596
   49CHL1  H23A 3612   0.915   2.554   3.923  1.0233  1.2162 -0.2698
   49CHL1  H23B 3613   0.887   2.722   3.894  0.1996 -0.2291 -0.2302
   49CHL1   C24 3614   0.751   2.645   4.043 -0.1027  0.3598 -0.5403
   49CHL1  H24A 3615   0.660   2.707   4.028 -0.0521  0.9804  1.4654
   49CHL1  H24B 3616   0.717   2.542   4.065  0.5318  0.5350  1.4273
   49CHL1   C25 3617   0.829   2.685   4.171  0.5521  0.2238  0.1473
   49CHL1   H25 3618   0.769   2.676   4.263  2.1645 -0.6350  1.1727
   49CHL1   C26 3619   0.949   2.593   4.208 -1.0745 -0.9191  0.1060
   49CHL1  H26A 3620   1.024   2.610   4.129 -1.2959  0.1630  0.1227
   49CHL1  H26B 3621   1.002   2.632   4.298 -3.9539 -1.0272  1.9815
   49CHL1  H26C 3622   0.919   2.486   4.210 -2.0619 -0.6739 -0.7366
   49CHL1   C27 3623   0.876   2.830   4.161  1.1990  0.8803  0.3192
   49CHL1  H27A 3624   0.970   2.839   4.220  0.9951  0.7087  0.6797
   49CHL1  H27B 3625   0.898   2.848   4.054  0.3524 -1.5169 -0.3199
   49CHL1  H27C 3626   0.801   2.907   4.192  1.3545  2.1482 -2.2612
   50CHL1    C3 3627   3.434   2.553   2.450  0.1391  0.0243  0.0083
   50CHL1    H3 3628   3.512   2.628   2.424  0.0020  0.1805  0.0452
   50CHL1    O3 3629   3.367   2.534   2.328  0.3818 -0.2273 -0.1005
   50CHL1   H3' 3630   3.296   2.470   2.342 -0.9860  0.7487 -2.0914
   50CHL1    C4 3631   3.493   2.418   2.496 -0.1114 -0.0126  0.0709
   50CHL1   H4A 3632   3.401   2.356   2.503 -0.8914  1.2940  2.0607
   50CHL1   H4B 3633   3.567   2.371   2.427  0.0435  0.4356 -0.0688
   50CHL1    C5 3634   3.554   2.418   2.638  0.0631 -0.1258  0.7690
   50CHL1    C6 3635   3.679   2.380   2.662  0.4328  0.5836 -0.1135
   50CHL1    H6 3636   3.725   2.333   2.574 -1.4641 -1.7826  0.0625
   50CHL1    C7 3637   3.745   2.372   2.796 -0.6548  0.0520  0.5111
   50CHL1   H7A 3638   3.805   2.279   2.805  1.0237  0.7360 -2.3350
   50CHL1   H7B 3639   3.823   2.449   2.779 -0.3323 -0.4070 -0.1664
   50CHL1    C8 3640   3.643   2.388   2.914 -0.1311  0.0200  1.1505
   50CHL1    H8 3641   3.589   2.292   2.924 -1.7393  0.8172  0.6158
   50CHL1   C14 3642   3.722   2.416   3.042  0.0289 -0.9680 -0.6229
   50CHL1   H14 3643   3.772   2.509   3.009 -2.6794  0.8304 -0.0131
   50CHL1   C15 3644   3.823   2.317   3.098  0.1500  0.3041  0.0978
   50CHL1  H15A 3645   3.791   2.211   3.091  2.3572 -0.3059 -2.6273
   50CHL1  H15B 3646   3.913   2.319   3.033  0.0742 -0.2320 -0.0325
   50CHL1   C16 3647   3.857   2.367   3.241  0.5462 -0.1643  0.7360
   50CHL1  H16A 3648   3.852   2.286   3.317  2.0196 -0.1669  0.8705
   50CHL1  H16B 3649   3.957   2.411   3.259 -0.2234  0.8208  2.9800
   50CHL1   C17 3650   3.744   2.473   3.266 -0.0377 -0.8025 -0.7080
   50CHL1   H17 3651   3.785   2.575   3.253 -1.4192 -0.1437 -0.1402
   50CHL1   C13 3652   3.636   2.444   3.164  0.3543 -1.0311 -0.1670
   50CHL1   C18 3653   3.557   2.321   3.205  0.1416 -0.0795  0.4162
   50CHL1  H18A 3654   3.504   2.268   3.123 -0.8233 -0.3608  1.2026
   50CHL1  H18B 3655   3.617   2.237   3.247 -1.5747 -1.4674  0.1978
   50CHL1  H18C 3656   3.489   2.368   3.279  0.1207 -1.4271  1.3038
   50CHL1   C12 3657   3.545   2.564   3.133  0.1402  0.3738 -0.2029
   50CHL1  H12A 3658   3.484   2.583   3.224  0.5994 -1.9734  0.6686
   50CHL1  H12B 3659   3.598   2.659   3.112 -0.1772  0.7014  0.4516
   50CHL1   C11 3660   3.451   2.536   3.008  0.1008  0.7260 -0.0234
   50CHL1  H11A 3661   3.380   2.453   3.029  1.2505 -0.7535 -1.5770
   50CHL1  H11B 3662   3.395   2.630   2.993 -1.4872  0.3877  2.9975
   50CHL1    C9 3663   3.545   2.499   2.889  0.2295 -0.2339  0.5164
   50CHL1    H9 3664   3.606   2.591   2.874  1.3231 -1.0939 -0.4442
   50CHL1   C10 3665   3.467   2.477   2.754 -0.7481  0.4429  0.6456
   50CHL1   C19 3666   3.354   2.363   2.773 -0.1373  0.8556 -1.0709
   50CHL1  H19A 3667   3.323   2.306   2.682 -2.9012 -2.0269  1.4300
   50CHL1  H19B 3668   3.390   2.289   2.848 -2.4130 -0.3905 -1.1407
   50CHL1  H19C 3669   3.262   2.406   2.818 -0.4299  0.6052 -1.4297
   50CHL1    C1 3670   3.400   2.610   2.707  0.6298  0.1693  0.3161
   50CHL1   H1A 3671   3.323   2.638   2.782  0.6409 -1.3683  0.9311
   50CHL1   H1B 3672   3.481   2.686   2.717  0.3335  0.5135  0.1218
   50CHL1    C2 3673   3.334   2.596   2.565 -0.9518 -0.7650  1.1262
   50CHL1   H2A 3674   3.293   2.698   2.544  0.6869 -0.4729 -0.9919
   50CHL1   H2B 3675   3.258   2.516   2.576 -0.4768 -1.1713  1.4858
   50CHL1   C20 3676   3.699   2.472   3.418 -0.0526  0.1922  0.1377
   50CHL1   H20 3677   3.636   2.385   3.444 -0.0464 -0.1969 -1.0867
   50CHL1   C21 3678   3.615   2.593   3.437  0.3963 -0.1298  0.4080
   50CHL1  H21A 3679   3.509   2.560   3.422  0.4989  0.3705 -1.7344
   50CHL1  H21B 3680   3.637   2.678   3.369  1.1610 -0.0547  0.7417
   50CHL1  H21C 3681   3.612   2.637   3.539  3.6855 -0.7572  0.8910
   50CHL1   C22 3682   3.811   2.475   3.518 -0.2128  0.3678  0.2139
   50CHL1  H22A 3683   3.763   2.471   3.618 -0.9678 -1.9717 -0.1769
   50CHL1  H22B 3684   3.878   2.387   3.514 -0.4890  0.2047 -1.4248
   50CHL1   C23 3685   3.902   2.597   3.516 -0.4562 -0.1963 -0.2208
   50CHL1  H23A 3686   3.950   2.595   3.416  0.6017  0.4810  0.2542
   50CHL1  H23B 3687   3.845   2.692   3.518 -3.2035 -1.7586  2.0184
   50CHL1   C24 3688   4.002   2.591   3.627  0.5319 -0.4045 -0.2120
   50CHL1  H24A 3689   4.060   2.497   3.616  2.8146  0.9028  0.0385
   50CHL1  H24B 3690   4.072   2.673   3.602 -0.3377 -0.0080 -1.4500
   50CHL1   C25 3691   3.952   2.614   3.773  0.8454 -0.6312 -0.5781
   50CHL1   H25 3692   3.868   2.548   3.804  1.0671  0.0960  1.7453
   50CHL1   C26 3693   4.066   2.601   3.873 -0.9757 -0.0732  0.5289
   50CHL1  H26A 3694   4.030   2.624   3.975  0.0623 -0.9521  1.1191
   50CHL1  H26B 3695   4.102   2.496   3.870 -0.5787  0.0786 -0.5893
   50CHL1  H26C 3696   4.143   2.681   3.861 -1.2700 -0.0132 -1.1888
   50CHL1   C27 3697   3.897   2.745   3.801 -0.0813 -0.3025  0.4552
   50CHL1  H27A 3698   3.878   2.772   3.908 -1.7938 -0.2392  0.1509
   50CHL1  H27B 3699   3.975   2.818   3.771 -0.2459  0.5747  2.0261
   50CHL1  H27C 3700   3.801   2.767   3.750  0.4969 -0.1437 -0.5836
   51CHL1    C3 3701   4.057   2.874   2.318  0.4608 -0.1304  0.0920
   51CHL1    H3 3702   4.122   2.803   2.374  0.1115  0.6795  1.5594
   51CHL1    O3 3703   4.071   2.839   2.182  0.1188 -0.2899 -0.2554
   51CHL1   H3' 3704   4.062   2.743   2.184  0.9190 -0.3593  1.0021
   51CHL1    C4 3705   3.912   2.853   2.362 -0.0726 -0.2645 -0.0950
   51CHL1   H4A 3706   3.836   2.916   2.311 -0.2748  0.4418  1.0404
   51CHL1   H4B 3707   3.872   2.752   2.339  0.1699 -1.1508  2.9503
   51CHL1    C5 3708   3.908   2.882   2.516  0.5592  0.3746  0.0750
   51CHL1    C6 3709   3.873   2.780   2.601  0.4206 -0.4406  0.3321
   51CHL1    H6 3710   3.838   2.687   2.553  1.3339  0.3016 -1.8944
   51CHL1    C7 3711   3.868   2.780   2.752 -0.6914  0.3367  0.1103
   51CHL1   H7A 3712   3.769   2.741   2.785 -0.6833  2.2646  2.7251
   51CHL1   H7B 3713   3.946   2.709   2.787  0.3552  0.5981 -1.5664
   51CHL1    C8 3714   3.886   2.925   2.798 -0.0877  0.4044 -0.5384
   51CHL1    H8 3715   3.784   2.968   2.784 -0.1750  0.8189  1.1467
   51CHL1   C14 3716   3.919   2.937   2.950  0.0484 -0.5028  0.2870
   51CHL1   H14 3717   4.022   2.896   2.956 -0.2064 -1.1811  0.1411
   51CHL1   C15 3718   3.831   2.853   3.049 -0.4063  0.3800  0.3918
   51CHL1  H15A 3719   3.724   2.873   3.027 -0.3442  0.8243  0.4801
   51CHL1  H15B 3720   3.856   2.745   3.052 -1.6472  0.0979  1.0373
   51CHL1   C16 3721   3.860   2.921   3.179 -0.3080  0.3171 -0.2975
   51CHL1  H16A 3722   3.766   2.959   3.224 -1.1273 -0.5257 -1.2686
   51CHL1  H16B 3723   3.921   2.855   3.244  0.0609  0.2174 -0.7395
   51CHL1   C17 3724   3.947   3.052   3.155 -0.1445  0.1333 -0.3555
   51CHL1   H17 3725   4.053   3.020   3.165 -0.1976  0.1710  0.3543
   51CHL1   C13 3726   3.927   3.081   3.003 -0.1631 -0.3156 -0.0181
   51CHL1   C18 3727   3.790   3.142   2.983 -0.7414  0.4322  0.2534
   51CHL1  H18A 3728   3.763   3.148   2.875 -0.0247  0.4486  0.0692
   51CHL1  H18B 3729   3.712   3.093   3.044 -0.1778  0.6999  1.2125
   51CHL1  H18C 3730   3.796   3.245   3.023  2.6434 -0.2277  1.8164
   51CHL1   C12 3731   4.046   3.151   2.929  0.5177 -0.2064  0.5154
   51CHL1  H12A 3732   4.053   3.253   2.973  0.2901 -0.3114  0.8047
   51CHL1  H12B 3733   4.136   3.090   2.952  0.5037 -0.0251  1.0680
   51CHL1   C11 3734   4.016   3.154   2.776  0.3527 -0.1795 -1.0609
   51CHL1  H11A 3735   3.923   3.213   2.762  0.7829  0.4102 -1.4443
   51CHL1  H11B 3736   4.100   3.207   2.727  0.4612 -1.1541 -1.9707
   51CHL1    C9 3737   3.990   3.012   2.720 -0.4245  0.0922  0.1295
   51CHL1    H9 3738   4.089   2.961   2.726  0.4184  1.4941 -1.1712
   51CHL1   C10 3739   3.974   3.013   2.565  0.2221  0.1779  0.2976
   51CHL1   C19 3740   3.885   3.134   2.511 -0.1481  0.0556 -0.4175
   51CHL1  H19A 3741   3.857   3.135   2.404 -0.3134 -2.8441 -0.4916
   51CHL1  H19B 3742   3.796   3.137   2.578  1.0005  0.9613  1.1220
   51CHL1  H19C 3743   3.950   3.221   2.533  0.3284 -0.3219 -0.3210
   51CHL1    C1 3744   4.120   3.036   2.498  0.3273  0.1827 -0.0075
   51CHL1   H1A 3745   4.159   3.135   2.530 -0.6805 -0.0644  2.1259
   51CHL1   H1B 3746   4.191   2.961   2.539 -2.9785 -2.4719  1.2312
   51CHL1    C2 3747   4.109   3.017   2.344 -0.2027 -0.0290  0.2410
   51CHL1   H2A 3748   4.213   3.020   2.305  0.0326 -1.7867  0.6168
   51CHL1   H2B 3749   4.045   3.086   2.286 -0.0188 -0.4304 -0.4552
   51CHL1   C20 3750   3.914   3.156   3.266  0.2770  0.0060 -0.1328
   51CHL1   H20 3751   3.806   3.181   3.267 -0.1566 -1.6916  1.9669
   51CHL1   C21 3752   3.988   3.285   3.234 -0.4230 -0.2290 -0.3655
   51CHL1  H21A 3753   4.099   3.270   3.237 -0.3833  0.2067  1.6713
   51CHL1  H21B 3754   3.952   3.350   3.316 -1.9992 -2.3772  0.7474
   51CHL1  H21C 3755   3.961   3.326   3.135  1.7764 -0.1603 -0.9968
   51CHL1   C22 3756   3.948   3.109   3.412  0.2403  0.0268  0.0627
   51CHL1  H22A 3757   3.935   2.998   3.416 -3.2369  0.2844 -1.1070
   51CHL1  H22B 3758   4.054   3.136   3.434  0.8525 -1.5032 -0.8069
   51CHL1   C23 3759   3.858   3.170   3.523  0.0959  0.1729 -0.0619
   51CHL1  H23A 3760   3.845   3.280   3.528 -1.1439  0.0617 -0.5058
   51CHL1  H23B 3761   3.754   3.137   3.506  0.1505 -1.5775  2.4415
   51CHL1   C24 3762   3.894   3.109   3.658 -0.0342  0.2557  0.1922
   51CHL1  H24A 3763   3.924   3.002   3.653  0.1490  0.2241  1.5417
   51CHL1  H24B 3764   3.986   3.164   3.687 -1.2006  2.3745  0.1270
   51CHL1   C25 3765   3.793   3.111   3.767  0.2608  0.4801 -0.3590
   51CHL1   H25 3766   3.836   3.066   3.859 -2.0235 -1.1283 -0.0098
   51CHL1   C26 3767   3.747   3.260   3.798 -0.3668 -0.7175 -0.4771
   51CHL1  H26A 3768   3.669   3.270   3.876 -0.7218 -0.1218 -0.9053
   51CHL1  H26B 3769   3.831   3.332   3.809 -0.0635 -1.1853  0.3386
   51CHL1  H26C 3770   3.700   3.295   3.704  1.5664 -0.3865 -1.3835
   51CHL1   C27 3771   3.662   3.034   3.738 -0.0596  0.6399  0.7139
   51CHL1  H27A 3772   3.595   3.089   3.669  3.6630  0.2463 -3.6152
   51CHL1  H27B 3773   3.692   2.933   3.705  0.3875  0.2736  2.1551
   51CHL1  H27C 3774   3.607   3.029   3.835  0.2592 -0.6884  0.8346
   52CHL1    C3 3775   0.105   3.018   2.849  0.3736  0.6598 -0.3172
   52CHL1    H3 3776   0.105   3.129   2.853 -0.9946  0.6584  0.0844
   52CHL1    O3 3777   0.098   2.980   2.713  0.1707 -0.2402  1.0097
   52CHL1   H3' 3778   0.013   3.015   2.688  0.0587 -0.4910  1.0398
   52CHL1    C4 3779   0.230   2.959   2.915 -0.0320 -0.4668 -0.1574
   52CHL1   H4A 3780   0.236   2.851   2.889 -2.3034 -0.9233  0.9749
   52CHL1   H4B 3781   0.322   3.005   2.872  1.3531 -2.9352 -0.0789
   52CHL1    C5 3782   0.225   2.982   3.068 -0.2626  0.3339 -0.2430
   52CHL1    C6 3783   0.326   3.051   3.130 -0.1144 -0.4985 -0.6112
   52CHL1    H6 3784   0.422   3.060   3.076  1.1611  2.2612  1.8393
   52CHL1    C7 3785   0.346   3.071   3.274  0.2415  0.0946 -0.1151
   52CHL1   H7A 3786   0.452   3.053   3.304 -0.3092 -2.0811  0.7606
   52CHL1   H7B 3787   0.320   3.175   3.303 -1.6266 -0.0501 -1.1332
   52CHL1    C8 3788   0.241   2.986   3.354  0.0052 -0.3654 -0.4823
   52CHL1    H8 3789   0.280   2.883   3.362  0.5902 -0.2591 -1.6985
   52CHL1   C14 3790   0.223   3.043   3.500  0.4379  0.0348 -0.3566
   52CHL1   H14 3791   0.174   3.143   3.490  0.3522 -0.1795 -2.6773
   52CHL1   C15 3792   0.356   3.061   3.579  1.2378 -0.3777 -0.5089
   52CHL1  H15A 3793   0.429   2.980   3.561  2.2199  0.0540  1.2157
   52CHL1  H15B 3794   0.413   3.153   3.554  0.7926  0.1275  0.2665
   52CHL1   C16 3795   0.317   3.065   3.726 -0.0928 -0.0722  0.6797
   52CHL1  H16A 3796   0.386   3.005   3.789  2.8440  2.5842  0.2572
   52CHL1  H16B 3797   0.321   3.169   3.765 -1.9162  0.0056  0.7286
   52CHL1   C17 3798   0.161   3.031   3.724  0.0225  0.6343  1.3961
   52CHL1   H17 3799   0.108   3.128   3.710 -0.7608  0.1297  0.8360
   52CHL1   C13 3800   0.133   2.961   3.589  0.2168  0.8065  0.9258
   52CHL1   C18 3801   0.170   2.817   3.613 -0.3358  0.2599  0.4650
   52CHL1  H18A 3802   0.272   2.805   3.657 -1.1266 -1.7754  1.9142
   52CHL1  H18B 3803   0.097   2.775   3.685 -1.7125  0.7695 -0.5943
   52CHL1  H18C 3804   0.172   2.753   3.522  0.2116 -1.1368  1.4262
   52CHL1   C12 3805  -0.002   2.964   3.519 -0.1172  0.0633  0.3203
   52CHL1  H12A 3806  -0.076   2.903   3.575  1.1797 -2.4012 -0.5532
   52CHL1  H12B 3807  -0.040   3.069   3.522  1.4336  0.6477  0.8299
   52CHL1   C11 3808   0.002   2.914   3.375  0.5003  0.5975  0.4415
   52CHL1  H11A 3809   0.031   2.807   3.377  1.6144  0.8434 -1.3272
   52CHL1  H11B 3810  -0.100   2.908   3.331  1.1651 -0.8895 -1.0197
   52CHL1    C9 3811   0.106   2.983   3.288  0.0302  0.7512  0.5077
   52CHL1    H9 3812   0.077   3.091   3.286 -0.1140  0.7548 -2.8898
   52CHL1   C10 3813   0.106   2.938   3.143  0.0580  0.4400 -0.1106
   52CHL1   C19 3814   0.111   2.782   3.132  0.2044 -0.3773 -0.1476
   52CHL1  H19A 3815   0.195   2.750   3.198 -0.0551  0.3593  0.5482
   52CHL1  H19B 3816   0.010   2.755   3.168 -1.1643  1.8872 -2.0250
   52CHL1  H19C 3817   0.119   2.747   3.026 -0.5126  2.6326 -1.2999
   52CHL1    C1 3818  -0.018   2.996   3.067 -0.1643 -0.5433  0.2777
   52CHL1   H1A 3819  -0.112   2.960   3.113  0.3054 -0.2659  1.4710
   52CHL1   H1B 3820  -0.012   3.107   3.075  1.2918 -0.6082  0.3392
   52CHL1    C2 3821  -0.019   2.965   2.915  0.1866  0.2602  0.0915
   52CHL1   H2A 3822  -0.105   3.016   2.868  1.2129 -0.1464 -2.4028
   52CHL1   H2B 3823  -0.027   2.857   2.889  1.2414 -0.1184  1.2145
   52CHL1   C20 3824   0.103   2.978   3.854 -0.2206 -0.0859 -0.7957
   52CHL1   H20 3825   0.130   2.871   3.864 -0.3386 -0.2834 -2.4380
   52CHL1   C21 3826  -0.048   2.975   3.859 -0.0118  0.2904  0.1827
   52CHL1  H21A 3827  -0.089   2.965   3.962  0.9947 -0.9377  0.4825
   52CHL1  H21B 3828  -0.099   2.903   3.793 -1.3889  1.6038 -0.2507
   52CHL1  H21C 3829  -0.088   3.076   3.834 -0.4559 -0.4090 -2.0513
   52CHL1   C22 3830   0.169   3.045   3.982 -0.1355 -0.6573 -0.3916
   52CHL1  H22A 3831   0.279   3.032   3.972 -0.0422  0.3420 -0.7822
   52CHL1  H22B 3832   0.138   3.151   3.964 -0.5311 -0.8487 -0.8779
   52CHL1   C23 3833   0.119   2.986   4.113  0.3008 -0.1305 -0.1273
   52CHL1  H23A 3834   0.012   3.015   4.109  0.3906  0.1082 -0.9860
   52CHL1  H23B 3835   0.131   2.876   4.106 -1.4182 -0.3291 -0.4487
   52CHL1   C24 3836   0.184   3.050   4.238 -0.0740  0.1452  0.4219
   52CHL1  H24A 3837   0.288   3.011   4.235 -0.9513 -2.3600 -1.7339
   52CHL1  H24B 3838   0.195   3.160   4.229 -0.7802  0.2078  0.2346
   52CHL1   C25 3839   0.111   3.030   4.372 -0.3940 -0.6895  0.4720
   52CHL1   H25 3840   0.013   3.083   4.373 -0.4524 -0.7907  0.1830
   52CHL1   C26 3841   0.103   2.880   4.402  0.9429 -0.0733  0.0978
   52CHL1  H26A 3842   0.076   2.816   4.314 -0.1528 -2.9018  2.3175
   52CHL1  H26B 3843   0.186   2.853   4.471  1.1016  1.0825  0.3763
   52CHL1  H26C 3844   0.012   2.871   4.465  0.6168  1.2275 -0.1590
   52CHL1   C27 3845   0.182   3.099   4.485  0.3083 -0.1969  1.2231
   52CHL1  H27A 3846   0.130   3.092   4.582 -0.2477  0.2403  0.9589
   52CHL1  H27B 3847   0.281   3.048   4.486  1.8845  2.3165 -2.5299
   52CHL1  H27C 3848   0.193   3.208   4.466 -1.7993 -0.4653 -2.3042
   53CHL1    C3 3849   6.243   3.233   2.828 -0.3078  0.2344  0.1810
   53CHL1    H3 3850   6.276   3.339   2.824 -0.9968  0.4217 -0.6344
   53CHL1    O3 3851   6.225   3.186   2.697  0.0678  0.0377 -0.1571
   53CHL1   H3' 3852   6.312   3.166   2.661  0.0459 -0.7681  0.2286
   53CHL1    C4 3853   6.353   3.148   2.899 -0.5236 -0.4055 -0.0255
   53CHL1   H4A 3854   6.315   3.046   2.877 -0.1547 -0.3341 -1.0938
   53CHL1   H4B 3855   6.450   3.162   2.846 -1.3312  1.3433 -1.1742
   53CHL1    C5 3856   6.369   3.158   3.048 -0.6566  1.1236 -0.6628
   53CHL1    C6 3857   6.487   3.173   3.104 -0.2202  0.1566 -0.5297
   53CHL1    H6 3858   6.574   3.172   3.036  0.6321  1.4033  0.4977
   53CHL1    C7 3859   6.508   3.187   3.248 -0.5937 -0.0436 -0.1053
   53CHL1   H7A 3860   6.586   3.119   3.289 -1.9964 -2.5468 -1.3341
   53CHL1   H7B 3861   6.532   3.292   3.276  0.9129 -0.0772 -1.2041
   53CHL1    C8 3862   6.379   3.142   3.327  0.8007  0.5881 -0.4056
   53CHL1    H8 3863   6.373   3.031   3.328 -0.5098  0.6426  0.7710
   53CHL1   C14 3864   6.390   3.186   3.474  0.1602 -0.0459 -0.1826
   53CHL1   H14 3865   6.390   3.297   3.481  0.1293 -0.0008 -0.8442
   53CHL1   C15 3866   6.520   3.141   3.547  0.6227 -0.1285 -0.5163
   53CHL1  H15A 3867   6.524   3.035   3.515  0.8863 -0.6585  1.1743
   53CHL1  H15B 3868   6.613   3.197   3.524 -0.2825  1.4660 -0.3955
   53CHL1   C16 3869   6.483   3.149   3.699  0.1755  0.3255  0.6087
   53CHL1  H16A 3870   6.500   3.050   3.746  0.0782  0.6722  1.3825
   53CHL1  H16B 3871   6.541   3.225   3.756 -0.0552 -0.7878  2.3841
   53CHL1   C17 3872   6.331   3.187   3.699 -0.3612  0.8942 -0.0584
   53CHL1   H17 3873   6.326   3.298   3.693 -2.0734  1.1394  3.5184
   53CHL1   C13 3874   6.279   3.135   3.568  0.0837 -0.6829 -0.8847
   53CHL1   C18 3875   6.256   2.989   3.582  0.2356 -0.0095  0.2074
   53CHL1  H18A 3876   6.220   2.932   3.495  0.2994 -1.6678  1.2239
   53CHL1  H18B 3877   6.348   2.930   3.603 -0.1410 -0.1894  1.4791
   53CHL1  H18C 3878   6.184   2.963   3.663 -0.1927  0.9328  0.1428
   53CHL1   C12 3879   6.152   3.211   3.509 -0.1742  0.6601  0.2908
   53CHL1  H12A 3880   6.073   3.204   3.587  1.0901 -0.2729  1.5416
   53CHL1  H12B 3881   6.174   3.320   3.503  1.7711  0.2511 -0.6900
   53CHL1   C11 3882   6.120   3.167   3.365 -0.3272  0.4582 -0.0529
   53CHL1  H11A 3883   6.071   3.069   3.348 -2.2846  1.5041 -0.8608
   53CHL1  H11B 3884   6.045   3.245   3.340  0.7590  1.1944 -1.1793
   53CHL1    C9 3885   6.247   3.194   3.272 -0.9316 -0.0196 -0.1755
   53CHL1    H9 3886   6.259   3.304   3.264  0.7575 -0.3172 -4.2068
   53CHL1   C10 3887   6.239   3.161   3.122 -0.2568 -0.2573  0.4417
   53CHL1   C19 3888   6.170   3.025   3.111 -0.5728 -0.3328 -0.0036
   53CHL1  H19A 3889   6.208   2.969   3.200  1.2192  1.2954  0.3107
   53CHL1  H19B 3890   6.060   3.035   3.117 -0.9632 -2.5478 -2.1422
   53CHL1  H19C 3891   6.194   2.974   3.015  0.8750 -2.0741  1.2043
   53CHL1    C1 3892   6.148   3.266   3.056 -0.6000 -0.1725  0.5712
   53CHL1   H1A 3893   6.055   3.271   3.116  0.5441 -1.5526  2.5971
   53CHL1   H1B 3894   6.185   3.370   3.063  0.0260 -0.2394 -1.2356
   53CHL1    C2 3895   6.111   3.231   2.914 -0.2022 -0.5173  0.2645
   53CHL1   H2A 3896   6.048   3.309   2.867  0.2154 -1.3144 -1.6832
   53CHL1   H2B 3897   6.054   3.137   2.901 -0.4217 -0.6089  1.7211
   53CHL1   C20 3898   6.264   3.156   3.837  0.0598  0.5958 -0.0140
   53CHL1   H20 3899   6.222   3.052   3.838 -2.3428  1.4883 -0.1313
   53CHL1   C21 3900   6.139   3.246   3.834  0.3867  0.4230  0.1452
   53CHL1  H21A 3901   6.074   3.183   3.769  0.9980 -1.3155  1.1555
   53CHL1  H21B 3902   6.160   3.349   3.796  1.5785  0.8116  1.7417
   53CHL1  H21C 3903   6.097   3.251   3.937 -2.6098 -1.8554 -0.8292
   53CHL1   C22 3904   6.360   3.176   3.965 -0.4177  0.2977  0.2142
   53CHL1  H22A 3905   6.434   3.093   3.971 -2.4920 -1.7148 -0.4729
   53CHL1  H22B 3906   6.410   3.272   3.941 -0.5378  0.1515 -0.6684
   53CHL1   C23 3907   6.300   3.186   4.108 -0.1919  0.7338 -0.0894
   53CHL1  H23A 3908   6.370   3.242   4.173 -1.3992  1.5203  0.5756
   53CHL1  H23B 3909   6.197   3.227   4.114  0.1210  1.4650  0.5253
   53CHL1   C24 3910   6.285   3.040   4.171 -0.0072 -0.4910 -0.0936
   53CHL1  H24A 3911   6.230   2.971   4.103 -1.3744 -0.6417  1.1187
   53CHL1  H24B 3912   6.386   2.995   4.178  0.1093 -0.2273 -0.0693
   53CHL1   C25 3913   6.209   3.017   4.308 -0.2106  0.0194  0.5546
   53CHL1   H25 3914   6.106   3.057   4.299 -1.1879 -1.9676  2.1335
   53CHL1   C26 3915   6.196   2.866   4.333  0.0344 -0.0519 -0.1764
   53CHL1  H26A 3916   6.110   2.852   4.402 -0.9106 -1.9099 -1.6469
   53CHL1  H26B 3917   6.166   2.826   4.234  0.0436  0.1890 -0.2767
   53CHL1  H26C 3918   6.283   2.807   4.366 -0.3021  0.5755  2.0230
   53CHL1   C27 3919   6.269   3.099   4.418 -0.6030 -0.0616  0.1423
   53CHL1  H27A 3920   6.205   3.101   4.508 -1.2941  2.1796 -0.3319
   53CHL1  H27B 3921   6.370   3.066   4.452  0.1234  3.2415  1.6064
   53CHL1  H27C 3922   6.275   3.205   4.385  2.0284 -0.3375 -0.5679
   54CHL1    C3 3923   4.570   2.241   2.363 -0.1311  0.5174  0.4389
   54CHL1    H3 3924   4.480   2.306   2.361 -0.8687 -0.4873 -0.4325
   54CHL1    O3 3925   4.573   2.171   2.237  0.8972 -0.8272  1.0237
   54CHL1   H3' 3926   4.643   2.106   2.245  1.0588 -0.7229  0.4650
   54CHL1    C4 3927   4.695   2.319   2.374 -0.1104  0.2738  0.0420
   54CHL1   H4A 3928   4.780   2.248   2.373 -0.5518 -0.2494 -0.9476
   54CHL1   H4B 3929   4.719   2.396   2.297  1.4884  0.9489  1.1599
   54CHL1    C5 3930   4.700   2.390   2.509 -0.3826 -0.2038  0.2989
   54CHL1    C6 3931   4.718   2.525   2.518 -0.1022 -0.4366  0.5464
   54CHL1    H6 3932   4.719   2.589   2.429 -1.8235 -0.8690  0.1852
   54CHL1    C7 3933   4.733   2.599   2.645  0.0394 -0.4816  0.2038
   54CHL1   H7A 3934   4.808   2.678   2.625  1.1800 -1.6579 -0.2687
   54CHL1   H7B 3935   4.643   2.661   2.666  0.9214  0.0612  2.8985
   54CHL1    C8 3936   4.767   2.511   2.770 -0.1765  0.2758  0.0894
   54CHL1    H8 3937   4.874   2.479   2.767 -1.1473 -3.4014 -1.0867
   54CHL1   C14 3938   4.739   2.580   2.900  0.1103  0.1247 -0.4199
   54CHL1   H14 3939   4.628   2.589   2.899  0.0399 -0.4507  0.8658
   54CHL1   C15 3940   4.779   2.723   2.920 -0.1245 -0.3563  0.6243
   54CHL1  H15A 3941   4.881   2.724   2.876 -1.1158 -1.3043 -1.8829
   54CHL1  H15B 3942   4.722   2.787   2.849 -2.0078 -2.0684  0.4924
   54CHL1   C16 3943   4.780   2.752   3.073 -0.1844 -0.1752 -0.4485
   54CHL1  H16A 3944   4.881   2.778   3.110 -0.3925 -1.7232  1.3957
   54CHL1  H16B 3945   4.707   2.831   3.100  1.1063  0.1605  2.4392
   54CHL1   C17 3946   4.741   2.609   3.137  0.4543  0.1870 -0.7321
   54CHL1   H17 3947   4.630   2.613   3.136  0.4398  0.3585  0.2092
   54CHL1   C13 3948   4.776   2.507   3.033 -0.0216 -0.0453 -0.0448
   54CHL1   C18 3949   4.925   2.461   3.033 -0.4809  0.0065 -0.0728
   54CHL1  H18A 3950   4.933   2.371   3.098 -1.6039 -0.6396 -0.8055
   54CHL1  H18B 3951   4.973   2.444   2.935  1.6028 -0.4172  0.9582
   54CHL1  H18C 3952   4.980   2.547   3.079  0.8959  0.5982 -2.6323
   54CHL1   C12 3953   4.693   2.379   3.030 -0.1962 -0.2093 -0.0798
   54CHL1  H12A 3954   4.712   2.311   3.116 -3.2581 -1.3384 -0.1626
   54CHL1  H12B 3955   4.590   2.418   3.042  0.1645  1.6216 -2.2373
   54CHL1   C11 3956   4.714   2.295   2.898 -0.4015 -0.0464  0.1205
   54CHL1  H11A 3957   4.817   2.254   2.908 -0.2341  0.7362  2.3412
   54CHL1  H11B 3958   4.646   2.207   2.893  0.2123 -0.4540 -2.5862
   54CHL1    C9 3959   4.691   2.377   2.767  0.2740 -0.6240 -0.5265
   54CHL1    H9 3960   4.583   2.402   2.771  0.8642  2.0861  2.9953
   54CHL1   C10 3961   4.700   2.299   2.632  0.0255  0.4925 -0.2584
   54CHL1   C19 3962   4.824   2.213   2.639 -0.3092  0.3603 -0.1486
   54CHL1  H19A 3963   4.830   2.140   2.723 -1.7891 -0.0524 -0.3770
   54CHL1  H19B 3964   4.837   2.148   2.550 -0.0202  0.4986 -0.2107
   54CHL1  H19C 3965   4.910   2.283   2.647  0.3270 -0.4590  0.3722
   54CHL1    C1 3966   4.570   2.215   2.607  0.1835  0.8756  0.7841
   54CHL1   H1A 3967   4.559   2.143   2.691 -1.8763 -2.6095 -2.1643
   54CHL1   H1B 3968   4.484   2.286   2.613 -0.7653 -0.2768  1.3464
   54CHL1    C2 3969   4.566   2.133   2.475 -0.0563 -0.4540 -0.5828
   54CHL1   H2A 3970   4.471   2.077   2.470 -0.1067 -0.2504 -2.2461
   54CHL1   H2B 3971   4.657   2.069   2.478 -0.6078 -1.2730 -0.9180
   54CHL1   C20 3972   4.786   2.601   3.288  0.0307  0.2613  0.3314
   54CHL1   H20 3973   4.897   2.609   3.286  0.0807 -0.3909 -0.7721
   54CHL1   C21 3974   4.755   2.467   3.345 -0.2996 -0.2981 -0.3198
   54CHL1  H21A 3975   4.824   2.388   3.308  2.6116  0.2193  3.3790
   54CHL1  H21B 3976   4.654   2.436   3.310 -0.2252  0.8404 -1.5828
   54CHL1  H21C 3977   4.771   2.459   3.455  0.0095  4.0387  0.0877
   54CHL1   C22 3978   4.731   2.726   3.371 -0.3318  0.4211 -1.0076
   54CHL1  H22A 3979   4.772   2.824   3.338 -3.9620  2.2415 -0.5936
   54CHL1  H22B 3980   4.621   2.733   3.363 -0.4846 -2.3850 -2.2399
   54CHL1   C23 3981   4.772   2.717   3.518 -0.1693 -0.2512 -0.4983
   54CHL1  H23A 3982   4.725   2.808   3.561  2.7212  1.2295 -0.2764
   54CHL1  H23B 3983   4.735   2.631   3.578 -1.7773 -0.3587 -1.5680
   54CHL1   C24 3984   4.919   2.746   3.537 -0.0492 -0.4179 -0.0095
   54CHL1  H24A 3985   4.995   2.668   3.513 -0.6299 -1.5164  1.5687
   54CHL1  H24B 3986   4.953   2.834   3.478 -0.0731 -0.0466  0.5272
   54CHL1   C25 3987   4.958   2.772   3.687  0.8315  0.4034 -0.4504
   54CHL1   H25 3988   5.067   2.794   3.683  1.0235 -0.3241  0.4099
   54CHL1   C26 3989   4.898   2.900   3.746 -0.0296 -0.2045  0.3075
   54CHL1  H26A 3990   4.938   2.923   3.847  0.1119  0.3606  0.1282
   54CHL1  H26B 3991   4.922   2.992   3.688 -1.9116  0.3367  0.3360
   54CHL1  H26C 3992   4.788   2.888   3.756  0.2622 -1.7818  2.1232
   54CHL1   C27 3993   4.936   2.654   3.775 -0.1782  1.1064 -0.3271
   54CHL1  H27A 3994   4.958   2.683   3.881  1.1224  0.0165 -0.2768
   54CHL1  H27B 3995   4.836   2.606   3.784  0.1189  0.5675  0.1660
   54CHL1  H27C 3996   4.998   2.565   3.756 -2.3160 -0.6661  0.5557
   55CHL1    C3 3997   5.203   4.407   2.815  0.2222 -0.0967 -0.5930
   55CHL1    H3 3998   5.237   4.512   2.829  0.9156 -0.3343 -0.4349
   55CHL1    O3 3999   5.176   4.380   2.678 -0.4639 -0.1034  0.0685
   55CHL1   H3' 4000   5.154   4.287   2.666 -1.4777  0.1563 -0.1606
   55CHL1    C4 4001   5.317   4.316   2.868 -0.4183  0.2383  0.0901
   55CHL1   H4A 4002   5.286   4.209   2.867  1.1325 -0.2311 -0.8826
   55CHL1   H4B 4003   5.404   4.330   2.800  0.1464 -0.9380  0.5292
   55CHL1    C5 4004   5.351   4.341   3.015 -0.1554 -0.5632 -0.0411
   55CHL1    C6 4005   5.471   4.380   3.065 -0.1890  0.7923 -0.3088
   55CHL1    H6 4006   5.549   4.391   2.989  0.9911  0.0804  0.7533
   55CHL1    C7 4007   5.496   4.419   3.205 -0.3076  0.0173 -0.1410
   55CHL1   H7A 4008   5.601   4.398   3.235  0.1622  1.9635 -0.3140
   55CHL1   H7B 4009   5.489   4.530   3.214  0.0601  0.1175 -0.9814
   55CHL1    C8 4010   5.392   4.367   3.301  0.7044 -0.4853  0.1168
   55CHL1    H8 4011   5.396   4.256   3.309 -0.3265 -0.5533 -0.1085
   55CHL1   C14 4012   5.417   4.423   3.435  0.5150 -0.5008 -0.8009
   55CHL1   H14 4013   5.411   4.533   3.422 -0.5655 -0.4486  0.0176
   55CHL1   C15 4014   5.559   4.410   3.492  0.2331  0.1440  0.0904
   55CHL1  H15A 4015   5.585   4.302   3.489  1.6256  0.4860 -1.0545
   55CHL1  H15B 4016   5.631   4.468   3.431 -0.7721  2.3688  0.9155
   55CHL1   C16 4017   5.539   4.460   3.635  0.3450 -0.9435 -0.3824
   55CHL1  H16A 4018   5.585   4.389   3.708  2.1845  1.4088  0.8703
   55CHL1  H16B 4019   5.583   4.561   3.649  0.0294 -0.3735 -3.0904
   55CHL1   C17 4020   5.383   4.466   3.666  0.0524  0.5382 -0.1545
   55CHL1   H17 4021   5.351   4.573   3.662 -3.4258 -0.2771  1.8891
   55CHL1   C13 4022   5.316   4.401   3.545 -0.0165  0.3793  0.3530
   55CHL1   C18 4023   5.305   4.249   3.576  0.0144 -0.3857  0.4925
   55CHL1  H18A 4024   5.274   4.197   3.483  3.4646 -3.0692  0.6674
   55CHL1  H18B 4025   5.398   4.203   3.617  0.7634 -1.2357 -1.9840
   55CHL1  H18C 4026   5.231   4.222   3.655  1.3717 -0.0861  1.9180
   55CHL1   C12 4027   5.181   4.454   3.500  0.0592 -0.7130 -0.3981
   55CHL1  H12A 4028   5.101   4.442   3.575  1.6667 -0.0608  1.5010
   55CHL1  H12B 4029   5.196   4.563   3.485  1.6438 -0.7448  0.6860
   55CHL1   C11 4030   5.138   4.404   3.357  0.3564  0.3302  0.4493
   55CHL1  H11A 4031   5.131   4.293   3.361 -0.5262  0.1052 -3.3421
   55CHL1  H11B 4032   5.040   4.444   3.323  0.3068 -1.1354 -1.3285
   55CHL1    C9 4033   5.251   4.409   3.246  0.0968 -0.1628 -0.3023
   55CHL1    H9 4034   5.264   4.517   3.224  0.1591  0.2753  1.7026
   55CHL1   C10 4035   5.221   4.345   3.104 -0.5012 -0.2347  0.1354
   55CHL1   C19 4036   5.174   4.196   3.121  0.6979  0.1964 -0.1948
   55CHL1  H19A 4037   5.084   4.197   3.187  0.2720  1.7664 -0.7625
   55CHL1  H19B 4038   5.142   4.152   3.024 -0.3929 -0.8538  0.5994
   55CHL1  H19C 4039   5.255   4.138   3.172  0.4594  0.2304  0.2284
   55CHL1    C1 4040   5.102   4.428   3.039  0.1854  0.1428 -0.4977
   55CHL1   H1A 4041   5.006   4.414   3.093  0.2993 -0.6081 -0.4786
   55CHL1   H1B 4042   5.145   4.530   3.042  1.1367 -0.1924 -1.7560
   55CHL1    C2 4043   5.068   4.395   2.887 -0.9241  0.3410 -0.0230
   55CHL1   H2A 4044   4.995   4.459   2.834  0.3562  0.6381 -1.4880
   55CHL1   H2B 4045   5.046   4.286   2.888 -0.8558  0.3203  0.8700
   55CHL1   C20 4046   5.339   4.434   3.815  0.0733 -0.1352  0.2909
   55CHL1   H20 4047   5.374   4.330   3.834 -1.0537 -0.5680  0.0643
   55CHL1   C21 4048   5.185   4.440   3.825  0.0989 -0.1860 -0.1826
   55CHL1  H21A 4049   5.154   4.421   3.930 -1.8189  0.0612 -0.6705
   55CHL1  H21B 4050   5.125   4.366   3.767 -1.0410  0.9262 -0.4558
   55CHL1  H21C 4051   5.157   4.544   3.801  2.8357  0.8923  0.8585
   55CHL1   C22 4052   5.402   4.526   3.925  0.8514 -0.0260  0.5400
   55CHL1  H22A 4053   5.512   4.521   3.910  0.5980  1.1682 -2.3994
   55CHL1  H22B 4054   5.363   4.626   3.900 -2.8043 -1.0985  1.4210
   55CHL1   C23 4055   5.370   4.498   4.072 -0.3321 -0.0454 -0.5973
   55CHL1  H23A 4056   5.263   4.524   4.085  0.4466  3.1112  0.1615
   55CHL1  H23B 4057   5.392   4.390   4.086 -2.1558 -0.3826 -0.2015
   55CHL1   C24 4058   5.445   4.594   4.174 -0.4158  0.4028 -0.3088
   55CHL1  H24A 4059   5.549   4.627   4.150  0.4908  0.0252  2.7067
   55CHL1  H24B 4060   5.392   4.691   4.172  0.4785  0.9539  1.2451
   55CHL1   C25 4061   5.449   4.547   4.321  0.3016 -0.4576  0.1203
   55CHL1   H25 4062   5.508   4.629   4.367 -0.2115  0.8406 -1.4633
   55CHL1   C26 4063   5.302   4.560   4.371 -0.6543 -0.8533  0.8882
   55CHL1  H26A 4064   5.278   4.669   4.372 -1.4109 -1.0146  1.2183
   55CHL1  H26B 4065   5.225   4.501   4.318 -1.7233 -0.4900  1.9684
   55CHL1  H26C 4066   5.303   4.535   4.480  0.6960 -0.0997  1.0673
   55CHL1   C27 4067   5.514   4.405   4.347 -0.0849 -1.1210  0.4129
   55CHL1  H27A 4068   5.470   4.324   4.286 -0.2788 -1.2829  0.7616
   55CHL1  H27B 4069   5.624   4.410   4.334  0.0175  0.9004  1.7204
   55CHL1  H27C 4070   5.504   4.375   4.454  1.8041 -3.9519 -0.0893
   56CHL1    C3 4071   5.630   2.906   2.737  0.3921 -0.0379  0.0743
   56CHL1    H3 4072   5.561   2.818   2.742 -1.5052  1.2638 -1.7648
   56CHL1    O3 4073   5.649   2.911   2.599 -0.6048 -0.2076  0.1097
   56CHL1   H3' 4074   5.562   2.935   2.568  0.0283  2.6874  0.3136
   56CHL1    C4 4075   5.557   3.025   2.799  0.5226  0.2175  0.8780
   56CHL1   H4A 4076   5.603   3.124   2.777 -0.0647  0.5456  1.0881
   56CHL1   H4B 4077   5.460   3.031   2.744  1.0412 -1.3096 -0.2881
   56CHL1    C5 4078   5.552   3.015   2.950  1.2678 -0.1334  0.0834
   56CHL1    C6 4079   5.441   3.035   3.019  1.1770 -0.0766  0.0241
   56CHL1    H6 4080   5.344   3.045   2.967  2.0016  1.5661 -1.3028
   56CHL1    C7 4081   5.433   3.050   3.165 -0.0373  0.3540  0.2783
   56CHL1   H7A 4082   5.361   3.126   3.202  0.8004  1.3487 -0.0903
   56CHL1   H7B 4083   5.388   2.953   3.198 -0.2760  0.3599 -0.0232
   56CHL1    C8 4084   5.571   3.059   3.229 -0.2677  0.0735 -0.2074
   56CHL1    H8 4085   5.593   3.168   3.226  0.2104 -0.0252 -0.3127
   56CHL1   C14 4086   5.561   3.024   3.380  0.1346 -0.0910  0.4981
   56CHL1   H14 4087   5.536   2.916   3.386  0.0662 -0.0445  1.0718
   56CHL1   C15 4088   5.457   3.096   3.472 -0.2665  0.0859 -0.7473
   56CHL1  H15A 4089   5.466   3.206   3.457 -0.1085  0.1276 -0.3570
   56CHL1  H15B 4090   5.353   3.066   3.447 -1.0113  1.1987  0.8791
   56CHL1   C16 4091   5.498   3.060   3.610  0.1266 -0.0402 -0.0799
   56CHL1  H16A 4092   5.473   3.134   3.689 -1.7602 -1.3022  0.5894
   56CHL1  H16B 4093   5.435   2.971   3.630 -3.2162  1.6834 -2.0298
   56CHL1   C17 4094   5.643   3.015   3.607 -0.4297  0.1256 -0.2705
   56CHL1   H17 4095   5.639   2.904   3.617 -2.5233  0.0994 -0.9532
   56CHL1   C13 4096   5.690   3.044   3.457  0.5780  0.1278  0.4357
   56CHL1   C18 4097   5.748   3.193   3.444  0.0647  0.6821  0.4272
   56CHL1  H18A 4098   5.755   3.205   3.333  0.3650 -0.0809  0.3583
   56CHL1  H18B 4099   5.671   3.269   3.472 -0.2940  1.2730 -1.9092
   56CHL1  H18C 4100   5.849   3.211   3.486  0.7907  0.8291 -1.2789
   56CHL1   C12 4101   5.793   2.948   3.400  0.3046 -0.5663  0.2263
   56CHL1  H12A 4102   5.895   2.960   3.443  1.1490  1.4528 -2.0988
   56CHL1  H12B 4103   5.773   2.841   3.422  0.4937 -0.6189  0.1496
   56CHL1   C11 4104   5.807   2.973   3.248  0.3235 -0.0234  0.5357
   56CHL1  H11A 4105   5.856   3.070   3.225 -0.0243 -0.4844 -2.5283
   56CHL1  H11B 4106   5.869   2.894   3.201 -1.2509 -1.2495  0.4109
   56CHL1    C9 4107   5.678   2.975   3.166 -0.3922  0.1047  0.7852
   56CHL1    H9 4108   5.653   2.867   3.173 -0.3253  0.0911  0.8109
   56CHL1   C10 4109   5.692   3.007   3.016  0.4594 -0.0748 -0.3455
   56CHL1   C19 4110   5.758   3.148   2.991  0.9488 -0.0525  0.0571
   56CHL1  H19A 4111   5.783   3.139   2.883 -0.5052 -0.3620 -0.2662
   56CHL1  H19B 4112   5.687   3.232   3.007 -2.4973 -2.8482  0.6929
   56CHL1  H19C 4113   5.842   3.181   3.056  1.6939  0.4636 -1.1245
   56CHL1    C1 4114   5.772   2.889   2.953  0.0549  0.1943  0.9266
   56CHL1   H1A 4115   5.881   2.881   2.974  0.8510 -0.1209 -2.7057
   56CHL1   H1B 4116   5.725   2.794   2.985 -0.8934  1.3335  3.1873
   56CHL1    C2 4117   5.772   2.893   2.795 -0.1781 -0.5201  0.8375
   56CHL1   H2A 4118   5.826   2.805   2.756 -0.7585 -0.1968 -0.7716
   56CHL1   H2B 4119   5.831   2.982   2.765 -0.3833 -0.2008  1.3560
   56CHL1   C20 4120   5.722   3.061   3.730 -0.0232  0.2347  0.4532
   56CHL1   H20 4121   5.717   3.172   3.736 -0.5331  0.6087 -3.6494
   56CHL1   C21 4122   5.871   3.007   3.709  0.2000 -0.7208  0.3859
   56CHL1  H21A 4123   5.870   2.899   3.682 -0.9911 -0.8241  0.7770
   56CHL1  H21B 4124   5.931   3.029   3.800  0.5560  1.4919 -0.3454
   56CHL1  H21C 4125   5.920   3.068   3.631  0.4648 -1.9966 -0.4722
   56CHL1   C22 4126   5.669   2.997   3.858 -0.1221 -0.2961 -0.5379
   56CHL1  H22A 4127   5.559   3.009   3.856 -0.0646  0.2100 -0.7807
   56CHL1  H22B 4128   5.696   2.891   3.838 -3.1524 -1.5433  1.2796
   56CHL1   C23 4129   5.729   3.027   4.002  0.6940  0.2726 -0.0289
   56CHL1  H23A 4130   5.834   2.991   4.014  1.1679  1.4878 -0.3480
   56CHL1  H23B 4131   5.740   3.137   4.015  2.2592  0.1705 -0.2899
   56CHL1   C24 4132   5.643   2.987   4.115 -0.2769  0.1430  0.1501
   56CHL1  H24A 4133   5.538   3.007   4.088 -0.3609  1.8545  1.6123
   56CHL1  H24B 4134   5.672   2.882   4.141  0.1231 -0.5202 -2.6385
   56CHL1   C25 4135   5.681   3.073   4.244 -0.6311  0.2977  0.5717
   56CHL1   H25 4136   5.675   3.183   4.230  0.3320  0.7969  3.4049
   56CHL1   C26 4137   5.585   3.041   4.357 -0.1998 -0.4903  0.0473
   56CHL1  H26A 4138   5.601   3.116   4.438  1.8361 -0.0056 -0.7373
   56CHL1  H26B 4139   5.480   3.046   4.322 -0.0629 -0.9897 -0.4457
   56CHL1  H26C 4140   5.589   2.932   4.381  2.1179 -0.5521 -0.3570
   56CHL1   C27 4141   5.829   3.044   4.293  0.3345  0.2079  0.1692
   56CHL1  H27A 4142   5.829   3.075   4.400 -3.5376  0.4858  0.2552
   56CHL1  H27B 4143   5.840   2.934   4.307  0.9474  0.3047  0.4595
   56CHL1  H27C 4144   5.911   3.086   4.232  1.7554  0.0876  1.9244
   57OSM      N 4145   2.994   2.682   6.448 -0.2250 -1.2291 -0.4886
   57OSM    C15 4146   2.904   2.715   6.559 -0.5720 -0.3495 -0.4004
   57OSM   H15A 4147   2.936   2.677   6.655 -0.2487  1.2714  0.1679
   57OSM   H15B 4148   2.804   2.676   6.546 -0.1448 -1.5800 -0.1285
   57OSM   H15C 4149   2.889   2.822   6.571 -2.0994 -0.7610  2.1060
   57OSM    C14 4150   3.000   2.535   6.442 -0.1182 -0.1964  0.2836
   57OSM   H14A 4151   3.037   2.504   6.538  0.5702  2.8870  1.1205
   57OSM   H14B 4152   3.068   2.496   6.368  0.7131  1.4147  0.1562
   57OSM   H14C 4153   2.898   2.503   6.424 -0.0868  0.0755 -0.4281
   57OSM    C13 4154   2.941   2.742   6.323  0.5304 -0.3938  0.0333
   57OSM   H13A 4155   2.903   2.843   6.327  1.6732  0.0256  1.2401
   57OSM   H13B 4156   2.865   2.676   6.286  0.3210 -0.9352  1.3708
   57OSM   H13C 4157   3.012   2.743   6.242  1.0866 -0.5545  0.5084
   57OSM    C12 4158   3.132   2.743   6.469 -0.4550 -0.4309  0.1231
   57OSM   H12A 4159   3.192   2.724   6.381 -0.6427 -0.0664 -0.0851
   57OSM   H12B 4160   3.179   2.694   6.553  0.7062  0.2637 -0.1033
   57OSM    C11 4161   3.136   2.893   6.492 -0.2018  0.0303 -0.9679
   57OSM   H11A 4162   3.095   2.933   6.587  1.8985  1.4848 -0.5897
   57OSM   H11B 4163   3.092   2.955   6.410  1.4954  1.1793 -1.0634
   57OSM      P 4164   3.381   2.926   6.379 -0.0786 -0.0787  0.0922
   57OSM    O13 4165   3.469   3.042   6.384 -0.1364  0.0046 -0.0825
   57OSM    O14 4166   3.452   2.791   6.379 -0.0471 -0.6958 -0.4427
   57OSM    O11 4167   3.283   2.932   6.252  0.4480 -0.2885  0.0628
   57OSM    O12 4168   3.272   2.938   6.500  0.2253  0.3570 -0.1366
   57OSM    C1S 4169   3.275   3.043   6.163  0.1589 -0.6611 -0.0100
   57OSM    H1S 4170   3.363   3.109   6.177 -0.3623 -0.0244  0.3021
   57OSM    H1T 4171   3.181   3.101   6.177  0.3130  0.4227 -2.8127
   57OSM     NF 4172   3.255   3.101   5.927 -1.0007 -0.8196  0.8124
   57OSM    HNF 4173   3.169   3.129   5.885  0.0343 -2.3332 -2.7617
   57OSM    C2S 4174   3.258   2.990   6.016  0.3618  0.2115  0.6376
   57OSM    H2S 4175   3.347   2.929   5.991 -0.4009 -0.4187 -0.6648
   57OSM    C3S 4176   3.132   2.905   6.005  0.4415  0.5292 -0.0108
   57OSM    H3S 4177   3.054   2.976   6.040  0.6810  1.0930 -0.6160
   57OSM     O3 4178   3.122   2.799   6.100 -0.4837 -0.0639 -0.5822
   57OSM    HO3 4179   3.193   2.822   6.160 -1.6891  0.3017  0.7508
   57OSM    C4S 4180   3.091   2.852   5.873 -0.4087  0.4308  0.8387
   57OSM    H4S 4181   3.014   2.915   5.825 -1.0058 -0.8083  0.1119
   57OSM    C5S 4182   3.132   2.742   5.810 -0.7691 -0.4899 -0.2344
   57OSM    H5S 4183   3.198   2.668   5.859 -0.7891 -1.2472 -1.3021
   57OSM    C6S 4184   3.085   2.692   5.676 -0.2479 -0.3271 -0.9128
   57OSM    H6S 4185   3.019   2.603   5.694  0.0521 -0.5901 -1.1016
   57OSM    H6T 4186   3.174   2.645   5.629  0.2084 -1.8487  1.3326
   57OSM    C7S 4187   3.012   2.800   5.597 -0.0444  0.3935 -0.3823
   57OSM    H7S 4188   3.085   2.884   5.595  0.3781  0.1627  2.2426
   57OSM    H7T 4189   2.920   2.825   5.653 -0.8283  0.4527 -1.6541
   57OSM    C8S 4190   2.969   2.766   5.450 -0.7425  0.4129 -0.1948
   57OSM    H8S 4191   2.898   2.845   5.421  0.8185  2.2801  0.8127
   57OSM    H8T 4192   2.911   2.672   5.464 -1.7927  0.8709 -1.3279
   57OSM    C9S 4193   3.076   2.762   5.338  0.0753  0.4551 -0.3512
   57OSM    H9S 4194   3.136   2.672   5.363  0.1586  0.9512  1.3838
   57OSM    H9T 4195   3.140   2.854   5.344  1.3092 -0.3944 -0.0409
   57OSM   C10S 4196   3.018   2.752   5.196  0.1595  0.9009 -0.6463
   57OSM   H10S 4197   2.987   2.855   5.169 -1.1899  0.4506 -0.9209
   57OSM   H10T 4198   2.929   2.685   5.198  1.1458 -0.4613 -0.9449
   57OSM   C11S 4199   3.119   2.700   5.100  0.4573 -0.5204 -0.1065
   57OSM   H11S 4200   3.156   2.596   5.115  0.9839 -0.1615  1.2672
   57OSM   H11T 4201   3.206   2.766   5.121  0.3257  0.1209 -1.4367
   57OSM   C12S 4202   3.077   2.714   4.955  0.5486  0.2313  0.5400
   57OSM   H12S 4203   3.035   2.813   4.927  1.2376  0.4795  0.3385
   57OSM   H12T 4204   3.004   2.634   4.933  2.5403 -2.3897  2.7681
   57OSM   C13S 4205   3.190   2.688   4.859  0.3652  0.3524 -0.0429
   57OSM   H13S 4206   3.244   2.603   4.906  1.8059  1.5470  0.5451
   57OSM   H13T 4207   3.270   2.764   4.848 -0.7700  1.4378 -1.0771
   57OSM   C14S 4208   3.155   2.644   4.721  0.6654  0.3298  0.0783
   57OSM   H14S 4209   3.095   2.722   4.669 -0.3924  0.6534  1.7063
   57OSM   H14T 4210   3.099   2.548   4.718  1.4597 -0.1272 -0.3554
   57OSM   C15S 4211   3.272   2.624   4.618 -0.1571 -0.4158 -0.2214
   57OSM   H15S 4212   3.232   2.569   4.530  0.6817 -0.3366 -0.6670
   57OSM   H15T 4213   3.351   2.561   4.665 -0.5921  0.4769  1.8459
   57OSM   C16S 4214   3.339   2.757   4.577  0.2114 -0.9905  0.0526
   57OSM   H16S 4215   3.398   2.810   4.655 -0.8289  1.7453 -0.9157
   57OSM   H16T 4216   3.265   2.834   4.546 -0.8753 -1.0329  2.3426
   57OSM   C17S 4217   3.415   2.743   4.446  0.0352  0.0919  0.2543
   57OSM   H17S 4218   3.344   2.720   4.363  0.3325  0.7089 -0.1814
   57OSM   H17T 4219   3.475   2.651   4.462  0.8393  0.4585 -0.5274
   57OSM   C18S 4220   3.499   2.871   4.414  0.1033 -0.0294  0.4795
   57OSM   H18S 4221   3.422   2.946   4.388 -0.9655 -1.1142  0.4373
   57OSM   H18T 4222   3.573   2.864   4.331  0.3521 -0.3954  0.7286
   57OSM   H18U 4223   3.549   2.884   4.513  2.5554 -0.7375 -0.5892
   57OSM    C1F 4224   3.368   3.166   5.899  0.5663 -0.0483 -0.1575
   57OSM     OF 4225   3.478   3.113   5.928 -0.0491 -0.1723  0.6068
   57OSM    C2F 4226   3.362   3.303   5.835  1.0337 -0.1396  0.0534
   57OSM    H2F 4227   3.347   3.380   5.914  0.7191  0.8349 -0.9394
   57OSM    H2G 4228   3.270   3.292   5.775  1.1654 -2.9748  0.2422
   57OSM    C3F 4229   3.472   3.358   5.749  0.2645  0.2702  0.5998
   57OSM    H3F 4230   3.567   3.351   5.806  0.4437  0.8437  0.3742
   57OSM    H3G 4231   3.442   3.463   5.732 -1.7647 -0.1616  1.1697
   57OSM    C4F 4232   3.489   3.276   5.619  0.0228 -0.3771 -0.2012
   57OSM    H4F 4233   3.506   3.169   5.643 -0.8873 -0.5051 -0.0897
   57OSM    H4G 4234   3.576   3.327   5.571 -1.4598 -0.0355 -2.7085
   57OSM    C5F 4235   3.364   3.298   5.523  0.1422  0.1797 -1.0203
   57OSM    H5F 4236   3.343   3.408   5.518  0.2841  0.3945  1.6987
   57OSM    H5G 4237   3.270   3.261   5.570 -0.1783  3.4739  1.2650
   57OSM    C6F 4238   3.383   3.232   5.390 -0.3348 -1.0152  0.2269
   57OSM    H6F 4239   3.343   3.129   5.403 -0.4648 -1.0030 -0.0537
   57OSM    H6G 4240   3.491   3.228   5.366 -0.4642  1.1181 -0.9480
   57OSM    C7F 4241   3.304   3.315   5.287  0.2069 -0.2738 -0.2329
   57OSM    H7F 4242   3.310   3.421   5.318 -0.1042 -0.2198 -0.3507
   57OSM    H7G 4243   3.198   3.281   5.286  1.0027 -3.0267  0.3655
   57OSM    C8F 4244   3.365   3.293   5.147  0.4701 -0.3018 -0.4032
   57OSM    H8F 4245   3.472   3.324   5.152 -0.2035  2.2737 -0.7217
   57OSM    H8G 4246   3.317   3.373   5.087 -0.4581  0.2440  1.0146
   57OSM    C9F 4247   3.326   3.164   5.079  1.0659  0.1554 -0.1084
   57OSM    H9F 4248   3.341   3.083   5.151  1.3601  0.3321  0.0331
   57OSM   C10F 4249   3.300   3.135   4.950 -0.2803  0.0184  1.0750
   57OSM   H10F 4250   3.267   3.035   4.919  2.5576 -0.4816 -0.7420
   57OSM   C11F 4251   3.285   3.234   4.832  0.4119  0.2093  0.6150
   57OSM   H11F 4252   3.239   3.329   4.867 -0.5062  0.2788 -0.7103
   57OSM   H11G 4253   3.207   3.206   4.758  0.8812  2.2724 -0.7469
   57OSM   C12F 4254   3.425   3.257   4.764  0.7688  0.5100 -0.2990
   57OSM   H12F 4255   3.468   3.159   4.734 -2.2576 -1.0889  0.1995
   57OSM   H12G 4256   3.504   3.301   4.829  0.5925 -0.1410  0.3769
   57OSM   C13F 4257   3.402   3.360   4.653 -0.3681 -0.3098  0.5166
   57OSM   H13F 4258   3.366   3.450   4.708  0.2932  0.6904 -0.6375
   57OSM   H13G 4259   3.324   3.327   4.581 -0.8462 -0.8918  1.2877
   57OSM   C14F 4260   3.526   3.405   4.573 -0.4382 -0.4532 -0.1795
   57OSM   H14F 4261   3.613   3.423   4.639 -0.8841 -1.5297  0.7415
   57OSM   H14G 4262   3.508   3.503   4.524  0.7834 -0.3103 -0.3762
   57OSM   C15F 4263   3.562   3.310   4.467 -0.5397  0.4398  0.5258
   57OSM   H15F 4264   3.468   3.303   4.408 -0.3789 -0.1174  0.3335
   57OSM   H15G 4265   3.583   3.208   4.506 -0.6416  0.2706  0.1411
   57OSM   C16F 4266   3.688   3.352   4.388 -0.6462  0.1038 -0.0953
   57OSM   H16F 4267   3.776   3.338   4.454 -0.8010 -0.6941 -0.0441
   57OSM   H16G 4268   3.685   3.461   4.372  1.1348 -0.1171 -2.5687
   57OSM   C17F 4269   3.712   3.264   4.259  0.0249 -0.0785 -0.0106
   57OSM   H17F 4270   3.786   3.318   4.196  3.1710 -3.0038  0.8315
   57OSM   H17G 4271   3.613   3.261   4.210  0.1880 -0.6508 -0.3218
   57OSM   C18F 4272   3.767   3.126   4.275  0.7046 -0.4370  0.2512
   57OSM   H18F 4273   3.720   3.069   4.358  1.1654 -1.1968 -0.0024
   57OSM   H18G 4274   3.874   3.126   4.302  0.8487  4.1134  0.4797
   57OSM   H18H 4275   3.746   3.062   4.187  0.4455 -0.2197  0.1497
   58OSM      N 4276   4.213   1.686   6.526 -0.1539 -0.3406  0.2024
   58OSM    C15 4277   4.149   1.815   6.562  0.2496 -0.2099 -0.4841
   58OSM   H15A 4278   4.203   1.897   6.516 -2.5573  0.9950 -1.9283
   58OSM   H15B 4279   4.123   1.833   6.665 -1.2174 -3.0223 -0.2988
   58OSM   H15C 4280   4.049   1.818   6.521 -0.4891  0.4187  1.2835
   58OSM    C14 4281   4.223   1.670   6.379 -0.1678  0.0846  0.0656
   58OSM   H14A 4282   4.132   1.665   6.320  1.0824 -1.1256 -1.8838
   58OSM   H14B 4283   4.267   1.574   6.355  2.1481  0.8473  0.9290
   58OSM   H14C 4284   4.285   1.749   6.341 -0.5614  2.0444  3.1576
   58OSM    C13 4285   4.349   1.685   6.585 -0.1693 -0.3269  0.2679
   58OSM   H13A 4286   4.344   1.706   6.691  2.9026 -1.9053  0.8475
   58OSM   H13B 4287   4.396   1.768   6.534 -0.0865 -0.1833  0.5791
   58OSM   H13C 4288   4.396   1.588   6.578 -1.5755 -1.3623  3.4196
   58OSM    C12 4289   4.141   1.569   6.589 -0.0986 -0.3789 -0.1558
   58OSM   H12A 4290   4.148   1.583   6.696 -0.3608  2.4699 -0.4081
   58OSM   H12B 4291   4.193   1.479   6.563  1.3278  0.6755 -1.1270
   58OSM    C11 4292   3.986   1.537   6.555 -0.5862  0.1980  0.7493
   58OSM   H11A 4293   3.919   1.611   6.604 -0.9501 -0.6553  1.5669
   58OSM   H11B 4294   3.974   1.433   6.593 -1.0978  0.5767  1.6467
   58OSM      P 4295   3.849   1.587   6.333  0.3370 -0.1505  0.0534
   58OSM    O13 4296   3.767   1.479   6.276 -0.3694 -0.0134  0.3088
   58OSM    O14 4297   3.772   1.678   6.418  0.3652 -0.0019  0.7153
   58OSM    O11 4298   3.913   1.673   6.218  0.0669  0.4344  0.3010
   58OSM    O12 4299   3.969   1.531   6.413  0.0914  0.0217 -0.0643
   58OSM    C1S 4300   3.968   1.609   6.108  0.1235 -0.4629  0.6439
   58OSM    H1S 4301   4.003   1.508   6.139  1.7263 -0.0711  0.2465
   58OSM    H1T 4302   4.064   1.665   6.103  0.9380 -1.4021  3.6105
   58OSM     NF 4303   3.942   1.533   5.871  0.9895 -0.3040 -1.0142
   58OSM    HNF 4304   3.972   1.578   5.787  1.0858  0.6891 -0.4603
   58OSM    C2S 4305   3.882   1.619   5.979 -0.1804  0.2295  0.5758
   58OSM    H2S 4306   3.789   1.569   6.015 -1.1629  1.0174 -0.7578
   58OSM    C3S 4307   3.851   1.762   5.933  0.1830 -0.4961  0.2475
   58OSM    H3S 4308   3.943   1.821   5.915  0.4427 -0.9161  0.1911
   58OSM     O3 4309   3.791   1.845   6.032 -0.1479 -0.1948 -0.7940
   58OSM    HO3 4310   3.834   1.810   6.110 -2.0786 -1.3578 -0.1659
   58OSM    C4S 4311   3.771   1.762   5.807 -0.1592 -0.6530  0.2310
   58OSM    H4S 4312   3.835   1.768   5.718  0.0919 -0.2961  0.4361
   58OSM    C5S 4313   3.634   1.760   5.798  0.3161 -0.3895 -0.3625
   58OSM    H5S 4314   3.574   1.757   5.890 -2.0836 -3.0269 -1.8251
   58OSM    C6S 4315   3.542   1.746   5.678  0.3294  0.7108 -0.5150
   58OSM    H6S 4316   3.484   1.839   5.662  0.5189  1.0035  0.4416
   58OSM    H6T 4317   3.461   1.673   5.695  1.9187 -1.6833 -2.4309
   58OSM    C7S 4318   3.619   1.720   5.546 -0.4517 -0.0923 -0.5125
   58OSM    H7S 4319   3.674   1.623   5.553 -1.0741 -0.4913 -1.0558
   58OSM    H7T 4320   3.687   1.807   5.530 -0.9137  0.6791  1.4301
   58OSM    C8S 4321   3.521   1.701   5.422 -0.9689 -0.3730 -0.1592
   58OSM    H8S 4322   3.457   1.791   5.410  0.4067  0.3232 -2.9908
   58OSM    H8T 4323   3.459   1.609   5.431  0.7100 -1.4210  1.4536
   58OSM    C9S 4324   3.588   1.686   5.290 -0.3349 -0.2691 -0.1655
   58OSM    H9S 4325   3.668   1.610   5.301 -0.8222 -1.0504 -1.7604
   58OSM    H9T 4326   3.642   1.782   5.274 -0.0042 -0.0527  2.0110
   58OSM   C10S 4327   3.496   1.659   5.176 -0.0273 -0.7408  0.5117
   58OSM   H10S 4328   3.440   1.755   5.170  0.8350 -0.2944 -1.1385
   58OSM   H10T 4329   3.435   1.566   5.177 -0.4165 -0.5259 -0.9049
   58OSM   C11S 4330   3.577   1.646   5.040  0.8330  0.6572  0.2873
   58OSM   H11S 4331   3.643   1.558   5.053 -0.4635 -0.3350  0.4052
   58OSM   H11T 4332   3.640   1.733   5.012 -2.9762  3.9784  0.9936
   58OSM   C12S 4333   3.482   1.638   4.916  0.8504  0.2201  0.7388
   58OSM   H12S 4334   3.435   1.738   4.905 -0.3485 -0.3372  0.6039
   58OSM   H12T 4335   3.412   1.553   4.932 -0.2293  0.6139 -1.5128
   58OSM   C13S 4336   3.547   1.611   4.783 -0.2960  0.0071 -0.3271
   58OSM   H13S 4337   3.611   1.521   4.784  0.8091  0.7530 -1.3624
   58OSM   H13T 4338   3.612   1.698   4.763 -1.4812  0.6645 -1.5275
   58OSM   C14S 4339   3.447   1.580   4.673 -0.0741 -0.5704  0.5935
   58OSM   H14S 4340   3.386   1.672   4.665 -1.5239 -1.4804  0.7527
   58OSM   H14T 4341   3.378   1.503   4.713  0.9004 -1.0180  1.4733
   58OSM   C15S 4342   3.512   1.539   4.536  0.2376  0.6031 -0.1449
   58OSM   H15S 4343   3.567   1.443   4.544  1.3672  1.2849  0.5265
   58OSM   H15T 4344   3.585   1.618   4.508 -0.9656  1.8968  0.2596
   58OSM   C16S 4345   3.415   1.534   4.428 -0.3796 -0.8772  0.0579
   58OSM   H16S 4346   3.338   1.458   4.452 -1.4902  0.8224  2.2040
   58OSM   H16T 4347   3.458   1.509   4.328  0.8558  0.0666  0.3335
   58OSM   C17S 4348   3.338   1.666   4.398  0.1043  0.2073 -0.1493
   58OSM   H17S 4349   3.412   1.749   4.391  2.3442 -1.4382  2.2085
   58OSM   H17T 4350   3.268   1.684   4.482 -1.6172 -0.0361 -1.4693
   58OSM   C18S 4351   3.243   1.668   4.276  0.5267  0.2831  0.2228
   58OSM   H18S 4352   3.308   1.640   4.190  3.0882 -0.1512  2.1834
   58OSM   H18T 4353   3.195   1.763   4.243  0.3761 -0.3003 -1.3351
   58OSM   H18U 4354   3.164   1.590   4.281  0.9107 -0.1627 -0.4761
   58OSM    C1F 4355   3.965   1.408   5.888 -0.1178 -1.0718 -0.1245
   58OSM     OF 4356   3.906   1.347   5.976 -0.0993  0.1897  0.1828
   58OSM    C2F 4357   4.067   1.348   5.794  1.2498  0.5144  0.0279
   58OSM    H2F 4358   4.168   1.394   5.796  0.9468  1.2509 -0.8412
   58OSM    H2G 4359   4.027   1.345   5.690 -0.9549 -1.0871  0.8412
   58OSM    C3F 4360   4.081   1.203   5.830  0.5491  0.3653  0.0934
   58OSM    H3F 4361   3.990   1.147   5.861  0.8620  0.0226  0.3915
   58OSM    H3G 4362   4.136   1.194   5.926 -1.1785 -1.6775  0.9849
   58OSM    C4F 4363   4.148   1.109   5.720  0.6170  0.0271 -0.2960
   58OSM    H4F 4364   4.163   1.012   5.772  3.1445  0.0964 -0.7869
   58OSM    H4G 4365   4.247   1.156   5.701  0.6578  0.4223  0.7827
   58OSM    C5F 4366   4.067   1.113   5.594  0.0090  1.1046 -0.0191
   58OSM    H5F 4367   4.081   1.215   5.552  2.9220  1.0470  0.6070
   58OSM    H5G 4368   3.961   1.082   5.610  0.3831  0.3018  0.9777
   58OSM    C6F 4369   4.124   1.027   5.479  0.1658 -0.9168 -0.5459
   58OSM    H6F 4370   4.125   0.921   5.510  1.3521 -0.8750 -0.3763
   58OSM    H6G 4371   4.228   1.048   5.446 -0.2599  0.2065 -1.2325
   58OSM    C7F 4372   4.032   1.037   5.352 -0.0321 -0.5119 -0.6191
   58OSM    H7F 4373   4.040   1.137   5.303  1.5434 -0.4997 -0.3786
   58OSM    H7G 4374   3.932   1.004   5.386  0.1250 -0.8738 -0.5018
   58OSM    C8F 4375   4.075   0.921   5.262  0.0953 -0.1171  0.0424
   58OSM    H8F 4376   3.993   0.903   5.189 -1.3910 -2.0584  2.0695
   58OSM    H8G 4377   4.086   0.822   5.311 -0.7145 -1.0691 -1.6163
   58OSM    C9F 4378   4.204   0.969   5.194  0.3146 -0.1371  0.6714
   58OSM    H9F 4379   4.290   0.962   5.262  1.8248  0.6332 -1.0774
   58OSM   C10F 4380   4.211   1.017   5.062 -0.1527 -0.0959 -0.6241
   58OSM   H10F 4381   4.308   1.051   5.024  0.7371 -1.9341 -0.1086
   58OSM   C11F 4382   4.090   1.043   4.975 -0.3807  0.7125  0.3069
   58OSM   H11F 4383   4.098   1.143   4.927  0.3227  1.1168  1.2457
   58OSM   H11G 4384   3.994   1.055   5.028 -0.8496  0.9800 -0.5724
   58OSM   C12F 4385   4.073   0.929   4.869 -0.7007  0.2651 -0.4121
   58OSM   H12F 4386   4.051   0.829   4.913 -0.9714  0.5375  0.0761
   58OSM   H12G 4387   4.168   0.919   4.813 -0.7318 -1.1447 -0.2559
   58OSM   C13F 4388   3.969   0.974   4.771 -0.5727  0.3804 -0.3843
   58OSM   H13F 4389   4.008   1.063   4.716 -1.3767 -0.1200 -1.8203
   58OSM   H13G 4390   3.870   1.003   4.812  0.2452  1.4974  0.8778
   58OSM   C14F 4391   3.944   0.876   4.664  0.1061 -0.8477  0.1830
   58OSM   H14F 4392   4.037   0.831   4.623  0.0034 -0.3749 -0.5862
   58OSM   H14G 4393   3.889   0.925   4.582  0.9340  2.0411  1.2492
   58OSM   C15F 4394   3.844   0.769   4.711  0.0632 -0.0858 -0.5933
   58OSM   H15F 4395   3.741   0.803   4.734 -1.1434 -2.4035 -2.1314
   58OSM   H15G 4396   3.884   0.724   4.804 -1.9364  0.0180  0.3793
   58OSM   C16F 4397   3.820   0.656   4.614  0.4750  0.3142  0.0062
   58OSM   H16F 4398   3.924   0.633   4.583  1.8943  5.0626  0.4887
   58OSM   H16G 4399   3.758   0.691   4.529 -0.4388 -0.3875  0.3658
   58OSM   C17F 4400   3.746   0.528   4.673  0.6456  0.1552  0.6658
   58OSM   H17F 4401   3.649   0.561   4.715  0.9993 -1.0071  2.5598
   58OSM   H17G 4402   3.795   0.499   4.769 -0.5790 -1.4455  0.8512
   58OSM   C18F 4403   3.733   0.429   4.562  0.2104  0.5501  0.1905
   58OSM   H18F 4404   3.695   0.337   4.612 -0.8789  1.2644  0.7095
   58OSM   H18G 4405   3.825   0.406   4.505 -1.1263 -0.3410 -1.7575
   58OSM   H18H 4406   3.673   0.463   4.474  2.3849 -1.6614 -2.3433
   59OSM      N 4407   3.499   3.607   6.427 -0.2900 -0.2955  0.3976
   59OSM    C15 4408   3.410   3.716   6.448 -0.2602  0.5996  0.4049
   59OSM   H15A 4409   3.467   3.807   6.460 -1.0212  0.9988  1.0970
   59OSM   H15B 4410   3.351   3.703   6.537  0.2352  1.2755  0.8495
   59OSM   H15C 4411   3.345   3.739   6.365 -3.5344 -0.7795  2.4125
   59OSM    C14 4412   3.585   3.649   6.309  0.1152  0.7251 -0.0205
   59OSM   H14A 4413   3.519   3.647   6.223  3.0466 -0.7069 -2.4546
   59OSM   H14B 4414   3.653   3.567   6.289 -1.6419 -0.9014  0.3670
   59OSM   H14C 4415   3.634   3.745   6.318 -1.0744  1.1421  3.0589
   59OSM    C13 4416   3.588   3.580   6.544 -0.1444 -0.4061 -0.5076
   59OSM   H13A 4417   3.532   3.515   6.611 -1.5806 -1.0537 -2.2625
   59OSM   H13B 4418   3.610   3.669   6.601 -0.7752  0.1479 -1.1203
   59OSM   H13C 4419   3.674   3.521   6.516 -0.8906 -2.0916  0.5241
   59OSM    C12 4420   3.428   3.477   6.395 -0.1292  0.6098 -0.3809
   59OSM   H12A 4421   3.368   3.449   6.480  0.3804 -1.3769 -0.6291
   59OSM   H12B 4422   3.504   3.401   6.385 -1.1769 -0.5643  0.2846
   59OSM    C11 4423   3.345   3.461   6.270  0.1607  0.0859 -0.3773
   59OSM   H11A 4424   3.325   3.353   6.252 -1.0589  0.4554 -1.3629
   59OSM   H11B 4425   3.400   3.488   6.178  0.3051 -0.9663 -0.6106
   59OSM      P 4426   3.093   3.506   6.362 -0.1307  0.2697 -0.2471
   59OSM    O13 4427   3.118   3.479   6.501  0.4815  0.3928 -0.3745
   59OSM    O14 4428   2.994   3.620   6.338  0.5104 -0.2641  0.4467
   59OSM    O11 4429   3.042   3.384   6.286  0.1265 -0.5317 -0.4838
   59OSM    O12 4430   3.232   3.535   6.285 -0.3556 -0.3391  1.1833
   59OSM    C1S 4431   3.004   3.388   6.150  0.3376 -0.0358  0.1113
   59OSM    H1S 4432   3.102   3.374   6.098  0.6432  2.4688 -0.1223
   59OSM    H1T 4433   2.963   3.484   6.115 -0.5007  0.5523  2.4972
   59OSM     NF 4434   2.857   3.292   5.983 -0.0557 -0.4571  0.1496
   59OSM    HNF 4435   2.773   3.345   5.990 -0.2663 -0.9622  1.9942
   59OSM    C2S 4436   2.919   3.267   6.112  0.3483  0.5605  0.4565
   59OSM    H2S 4437   2.993   3.184   6.103  0.8633  1.1781 -1.6617
   59OSM    C3S 4438   2.819   3.232   6.228  0.1364  0.4764 -0.1020
   59OSM    H3S 4439   2.755   3.320   6.249  1.0081  1.3036 -0.8129
   59OSM     O3 4440   2.878   3.191   6.349  0.0513  0.0100  0.1149
   59OSM    HO3 4441   2.971   3.211   6.336  0.2238 -1.2939 -0.8826
   59OSM    C4S 4442   2.731   3.120   6.182  0.1250  0.0801 -0.3767
   59OSM    H4S 4443   2.631   3.122   6.228  0.6101 -0.6605  0.7717
   59OSM    C5S 4444   2.767   3.003   6.119 -0.0760  0.2595 -0.3987
   59OSM    H5S 4445   2.867   2.979   6.079  0.2967 -0.4215  0.8826
   59OSM    C6S 4446   2.667   2.889   6.111  0.9301  0.2297 -0.5784
   59OSM    H6S 4447   2.560   2.906   6.137  1.0982  0.1954  0.1745
   59OSM    H6T 4448   2.688   2.804   6.180  0.1375 -0.5333 -1.2407
   59OSM    C7S 4449   2.672   2.850   5.958  0.5541 -0.3922 -0.7467
   59OSM    H7S 4450   2.609   2.758   5.953 -2.0560  1.0050  2.3705
   59OSM    H7T 4451   2.778   2.827   5.933  0.3460  0.1781 -2.2517
   59OSM    C8S 4452   2.621   2.947   5.854 -0.2954 -0.5859 -0.0740
   59OSM    H8S 4453   2.690   3.034   5.847  1.2891 -1.6713  1.2640
   59OSM    H8T 4454   2.523   2.993   5.880  0.1654  0.2285  0.2573
   59OSM    C9S 4455   2.608   2.877   5.723 -0.3478  0.0135  1.0242
   59OSM    H9S 4456   2.530   2.798   5.733 -1.1837  0.7755  0.6583
   59OSM    H9T 4457   2.705   2.830   5.697 -0.3334  0.7069 -0.2094
   59OSM   C10S 4458   2.582   2.969   5.603  0.4019 -0.0805 -0.1379
   59OSM   H10S 4459   2.668   3.037   5.585 -0.1842  0.8651  0.5121
   59OSM   H10T 4460   2.493   3.030   5.631  1.0881  0.3339  1.1906
   59OSM   C11S 4461   2.539   2.886   5.477 -0.3105 -0.3053 -0.2765
   59OSM   H11S 4462   2.456   2.819   5.507 -0.4501  0.1168  0.3038
   59OSM   H11T 4463   2.628   2.826   5.450  1.2224  2.4998 -1.9633
   59OSM   C12S 4464   2.510   2.982   5.363  0.0087  0.1606 -0.7449
   59OSM   H12S 4465   2.604   3.031   5.331 -0.6279  1.9803  0.0134
   59OSM   H12T 4466   2.433   3.058   5.389  1.7990  1.0862  2.2846
   59OSM   C13S 4467   2.472   2.911   5.227  0.2813 -0.3302 -0.1574
   59OSM   H13S 4468   2.423   2.988   5.164  0.7664  0.8527  0.8608
   59OSM   H13T 4469   2.385   2.850   5.260  0.6477 -1.0803 -0.5576
   59OSM   C14S 4470   2.581   2.825   5.168 -0.0193 -0.1106  1.0730
   59OSM   H14S 4471   2.597   2.732   5.227  1.3905 -0.8065 -0.3372
   59OSM   H14T 4472   2.673   2.887   5.176 -0.8396  0.9778  2.4621
   59OSM   C15S 4473   2.556   2.784   5.020 -0.1450  0.0309  0.0632
   59OSM   H15S 4474   2.509   2.874   4.974  0.0295 -0.4070 -0.9891
   59OSM   H15T 4475   2.487   2.697   5.015  1.1296 -1.0989  1.2243
   59OSM   C16S 4476   2.676   2.741   4.941 -0.4897 -0.4690 -0.0328
   59OSM   H16S 4477   2.719   2.663   5.008  0.0199  0.9328  1.3496
   59OSM   H16T 4478   2.744   2.828   4.930 -2.6904  1.4320  0.5654
   59OSM   C17S 4479   2.642   2.710   4.795  0.5389  0.9875  0.5960
   59OSM   H17S 4480   2.665   2.801   4.735  2.0894 -0.6837 -1.4601
   59OSM   H17T 4481   2.535   2.680   4.800  0.6736 -0.6024 -3.1585
   59OSM   C18S 4482   2.728   2.604   4.729 -0.2846 -0.0144  0.3665
   59OSM   H18S 4483   2.739   2.512   4.791 -1.8915 -0.2305  0.3601
   59OSM   H18T 4484   2.828   2.644   4.700  0.0746 -1.3051 -0.2868
   59OSM   H18U 4485   2.675   2.578   4.635 -2.1783  2.5176  0.6440
   59OSM    C1F 4486   2.910   3.270   5.863 -0.2009  0.2092  0.1120
   59OSM     OF 4487   3.013   3.210   5.854 -0.8706 -0.4736  0.4173
   59OSM    C2F 4488   2.833   3.307   5.747  0.6346 -0.3479  0.4308
   59OSM    H2F 4489   2.851   3.415   5.729 -2.1128  0.3367  1.3490
   59OSM    H2G 4490   2.724   3.286   5.756  0.5437  0.1052  0.3932
   59OSM    C3F 4491   2.877   3.235   5.618  0.4328 -0.0120  1.0595
   59OSM    H3F 4492   2.871   3.125   5.628  1.1931 -0.1754 -0.0958
   59OSM    H3G 4493   2.982   3.263   5.593 -0.1282  0.9042 -0.3318
   59OSM    C4F 4494   2.777   3.276   5.507 -0.1041 -0.4128 -0.0565
   59OSM    H4F 4495   2.751   3.384   5.516 -2.4537 -1.0096  1.0689
   59OSM    H4G 4496   2.677   3.235   5.532 -1.0883  1.9359  0.1274
   59OSM    C5F 4497   2.815   3.230   5.364 -0.4419 -0.2180  0.6315
   59OSM    H5F 4498   2.807   3.119   5.362  1.0009 -0.3431 -1.7927
   59OSM    H5G 4499   2.917   3.261   5.332  0.1627 -1.6048  1.1101
   59OSM    C6F 4500   2.707   3.279   5.266  0.4638 -0.7781  0.4473
   59OSM    H6F 4501   2.704   3.390   5.268 -0.2421 -0.7844 -0.1452
   59OSM    H6G 4502   2.607   3.243   5.299  0.8298 -0.7039  1.7277
   59OSM    C7F 4503   2.742   3.222   5.126  0.2744  0.9933  0.6209
   59OSM    H7F 4504   2.764   3.114   5.140  3.0701  1.3631 -0.2554
   59OSM    H7G 4505   2.828   3.277   5.082 -0.5167  0.5132 -1.7008
   59OSM    C8F 4506   2.629   3.247   5.025 -0.6378 -0.1533  0.6576
   59OSM    H8F 4507   2.629   3.349   4.982 -0.4786 -1.0732 -1.6784
   59OSM    H8G 4508   2.536   3.242   5.085 -0.5430 -1.3361  0.7364
   59OSM    C9F 4509   2.637   3.142   4.912  0.0505 -0.3844 -1.0646
   59OSM    H9F 4510   2.725   3.076   4.918  0.3246  0.1010  2.1468
   59OSM   C10F 4511   2.555   3.150   4.810  0.0342  0.1745  0.8910
   59OSM   H10F 4512   2.553   3.076   4.729 -0.7504  1.6025 -0.4674
   59OSM   C11F 4513   2.439   3.248   4.814  0.7692  0.8143  0.1907
   59OSM   H11F 4514   2.485   3.343   4.780  2.7418 -0.2081 -0.1602
   59OSM   H11G 4515   2.398   3.260   4.916 -2.0414  1.2395 -0.9033
   59OSM   C12F 4516   2.335   3.200   4.704 -0.4398  0.0134  0.3416
   59OSM   H12F 4517   2.232   3.229   4.734 -0.2569  1.6878 -0.5245
   59OSM   H12G 4518   2.324   3.092   4.723  1.7150 -0.5232 -1.0922
   59OSM   C13F 4519   2.375   3.240   4.559  0.3672 -0.2637 -0.2510
   59OSM   H13F 4520   2.307   3.185   4.491  0.3044 -1.0816  0.4474
   59OSM   H13G 4521   2.482   3.215   4.538  1.2845  2.6535  0.4306
   59OSM   C14F 4522   2.355   3.388   4.531 -0.4968  0.0626  0.2041
   59OSM   H14F 4523   2.403   3.455   4.606  0.8956 -0.3832 -0.2515
   59OSM   H14G 4524   2.246   3.406   4.534 -0.3081  1.4603 -0.4460
   59OSM   C15F 4525   2.407   3.433   4.394  0.2139 -0.2102  0.5955
   59OSM   H15F 4526   2.361   3.531   4.368  3.4539  1.1067 -0.6948
   59OSM   H15G 4527   2.375   3.359   4.318 -1.6733 -1.2790  2.3121
   59OSM   C16F 4528   2.560   3.460   4.379  0.7632 -0.2305  0.2570
   59OSM   H16F 4529   2.599   3.368   4.429 -3.0445 -1.3108  1.5994
   59OSM   H16G 4530   2.592   3.547   4.440  2.1819 -0.8233  0.4022
   59OSM   C17F 4531   2.613   3.468   4.228  0.4421 -0.2089  0.6291
   59OSM   H17F 4532   2.567   3.558   4.181  0.4072 -0.2186  0.6449
   59OSM   H17G 4533   2.592   3.373   4.175  0.0266  0.3260 -0.2018
   59OSM   C18F 4534   2.762   3.473   4.218  0.5823  0.3213 -0.5155
   59OSM   H18F 4535   2.808   3.534   4.298  0.7569 -0.9487  0.3880
   59OSM   H18G 4536   2.796   3.524   4.125  1.9589  0.0616 -0.1812
   59OSM   H18H 4537   2.801   3.369   4.210  2.3271  0.9663 -0.9684
   60OSM      N 4538   6.224   6.823   6.541 -0.2290  0.0465 -0.0619
   60OSM    C15 4539   6.329   6.846   6.645 -0.3474  0.1906  0.0915
   60OSM   H15A 4540   6.389   6.933   6.624 -2.0109  1.4566  0.4060
   60OSM   H15B 4541   6.402   6.767   6.641 -2.0494 -1.4274 -0.7636
   60OSM   H15C 4542   6.293   6.869   6.744 -0.6807  0.9157 -0.1896
   60OSM    C14 4543   6.137   6.937   6.539  0.2362 -0.3987 -0.6016
   60OSM   H14A 4544   6.041   6.920   6.491 -0.0790 -0.8625  0.1747
   60OSM   H14B 4545   6.191   7.007   6.477 -2.5470  2.7067  0.1910
   60OSM   H14C 4546   6.114   6.979   6.636  2.5259 -1.3217  0.4000
   60OSM    C13 4547   6.295   6.808   6.408  0.4687  0.1284 -0.0003
   60OSM   H13A 4548   6.339   6.711   6.393  2.7453  1.4616 -2.9293
   60OSM   H13B 4549   6.375   6.881   6.402  1.0692 -0.5252 -0.0276
   60OSM   H13C 4550   6.229   6.812   6.323 -0.9259 -1.6763  0.9103
   60OSM    C12 4551   6.145   6.690   6.575 -0.0481  0.6455 -0.2882
   60OSM   H12A 4552   6.100   6.712   6.671  0.6607 -0.9279  0.4310
   60OSM   H12B 4553   6.210   6.608   6.602 -1.2074  0.1073  0.9389
   60OSM    C11 4554   6.029   6.650   6.482  0.8571  0.8299 -0.6513
   60OSM   H11A 4555   5.984   6.553   6.511  0.8125  0.4257 -2.0101
   60OSM   H11B 4556   6.072   6.639   6.381 -2.3581 -0.6793 -1.9798
   60OSM      P 4557   5.827   6.778   6.591  0.1488  0.1287 -0.5771
   60OSM    O13 4558   5.865   6.706   6.716  0.0742  0.5049  0.0533
   60OSM    O14 4559   5.791   6.924   6.603  0.3045 -0.3004 -0.4832
   60OSM    O11 4560   5.710   6.698   6.516  0.0007 -0.9251  0.6272
   60OSM    O12 4561   5.939   6.754   6.485 -0.5825  0.1899  0.7064
   60OSM    C1S 4562   5.638   6.743   6.405  0.4387  0.2775 -0.5036
   60OSM    H1S 4563   5.677   6.837   6.362  0.3713  1.9705  2.7580
   60OSM    H1T 4564   5.535   6.775   6.433 -1.1779 -1.1615 -4.2088
   60OSM     NF 4565   5.565   6.682   6.171  0.4467 -0.0642 -0.5194
   60OSM    HNF 4566   5.469   6.655   6.161  0.2133  0.6535 -0.3191
   60OSM    C2S 4567   5.629   6.636   6.298  0.3708  0.5868 -0.4006
   60OSM    H2S 4568   5.733   6.607   6.270  0.7762  3.1940 -1.9232
   60OSM    C3S 4569   5.558   6.511   6.360 -0.7591 -0.0381  0.4241
   60OSM    H3S 4570   5.451   6.526   6.386 -1.7755 -2.3500 -1.9496
   60OSM     O3 4571   5.620   6.456   6.484 -0.0006  0.2712 -0.1866
   60OSM    HO3 4572   5.689   6.521   6.497  0.7697 -0.8425  1.7649
   60OSM    C4S 4573   5.563   6.401   6.252 -0.5997 -0.0696 -0.3516
   60OSM    H4S 4574   5.657   6.344   6.251 -1.1201 -1.1673  2.4583
   60OSM    C5S 4575   5.457   6.356   6.183  0.0807 -0.2424  0.4659
   60OSM    H5S 4576   5.366   6.419   6.186  0.8444  1.2453 -3.0318
   60OSM    C6S 4577   5.463   6.234   6.095  0.3504  0.3820  0.3466
   60OSM    H6S 4578   5.380   6.161   6.112  1.0854 -0.6068 -0.2112
   60OSM    H6T 4579   5.554   6.172   6.108 -0.6381 -1.3270 -0.4102
   60OSM    C7S 4580   5.469   6.277   5.947 -0.1888 -0.5247 -0.0434
   60OSM    H7S 4581   5.546   6.354   5.925 -0.9993  0.7970  1.4850
   60OSM    H7T 4582   5.373   6.329   5.924  0.1111 -0.3485 -0.9172
   60OSM    C8S 4583   5.493   6.167   5.842  0.5222  0.4966 -0.2146
   60OSM    H8S 4584   5.448   6.072   5.878  0.5758  0.5978  0.1322
   60OSM    H8T 4585   5.603   6.146   5.844  0.3091 -0.6941 -0.0358
   60OSM    C9S 4586   5.445   6.205   5.702  0.3127 -0.3469  0.3392
   60OSM    H9S 4587   5.512   6.287   5.669 -0.2400  0.0600  0.2064
   60OSM    H9T 4588   5.340   6.240   5.716 -0.0370 -1.2585  0.0965
   60OSM   C10S 4589   5.436   6.089   5.603  0.0852  0.0752  0.0718
   60OSM   H10S 4590   5.365   6.011   5.638 -1.1168  2.1396  2.5362
   60OSM   H10T 4591   5.539   6.047   5.604  0.1663  0.0737 -2.2052
   60OSM   C11S 4592   5.404   6.138   5.464 -0.5034 -0.8008 -0.3228
   60OSM   H11S 4593   5.502   6.144   5.412 -1.0069 -0.5941 -1.2613
   60OSM   H11T 4594   5.366   6.242   5.470  1.5699 -0.0854  1.3553
   60OSM   C12S 4595   5.303   6.062   5.377  0.8899  1.1769  0.1437
   60OSM   H12S 4596   5.202   6.074   5.421  1.1430  1.0499  0.7813
   60OSM   H12T 4597   5.334   5.955   5.370 -0.6116  0.7048  0.3389
   60OSM   C13S 4598   5.289   6.116   5.232 -0.6398  0.2691 -0.7568
   60OSM   H13S 4599   5.390   6.121   5.185 -0.4299  0.6742 -0.2827
   60OSM   H13T 4600   5.248   6.219   5.237  1.1864  0.9792  1.4936
   60OSM   C14S 4601   5.204   6.015   5.149 -0.0393  0.2637  0.0095
   60OSM   H14S 4602   5.102   6.008   5.192  0.2094  2.2046  0.9994
   60OSM   H14T 4603   5.245   5.912   5.155 -1.4803 -0.2460  2.0946
   60OSM   C15S 4604   5.197   6.046   5.001 -0.0689  0.2763  0.2137
   60OSM   H15S 4605   5.137   5.965   4.954 -1.1695 -0.4195  2.6873
   60OSM   H15T 4606   5.294   6.053   4.947  0.6531  1.7822  1.6114
   60OSM   C16S 4607   5.110   6.170   4.985  0.1309  0.0128 -0.0518
   60OSM   H16S 4608   5.159   6.266   5.013  0.3276 -0.2636  0.5669
   60OSM   H16T 4609   5.028   6.152   5.058  1.0028 -2.7172  0.3683
   60OSM   C17S 4610   5.042   6.187   4.845  0.1748 -0.0056  0.0050
   60OSM   H17S 4611   5.120   6.184   4.766  1.6508  1.0967  1.3675
   60OSM   H17T 4612   4.990   6.285   4.830  0.5924  0.1788 -0.2686
   60OSM   C18S 4613   4.942   6.080   4.810  0.1181  0.0160 -0.1810
   60OSM   H18S 4614   4.907   6.088   4.705  0.1464  2.1717 -0.0699
   60OSM   H18T 4615   4.852   6.114   4.866 -0.0356 -2.5820  1.2992
   60OSM   H18U 4616   4.969   5.975   4.836 -0.6081  0.5654  3.3632
   60OSM    C1F 4617   5.630   6.759   6.094  0.3218  0.2604  0.2660
   60OSM     OF 4618   5.752   6.784   6.115  0.4437  0.4236 -0.6807
   60OSM    C2F 4619   5.547   6.826   5.984 -0.7679  0.3447 -0.1166
   60OSM    H2F 4620   5.451   6.874   6.010  0.0819  0.7236  2.5851
   60OSM    H2G 4621   5.534   6.746   5.908  1.8814  0.0108 -0.3226
   60OSM    C3F 4622   5.638   6.936   5.909 -0.4549 -0.2407  0.1203
   60OSM    H3F 4623   5.730   6.887   5.872  0.1102  1.0868 -0.2772
   60OSM    H3G 4624   5.671   7.019   5.975 -1.0810  0.8345 -0.8754
   60OSM    C4F 4625   5.566   7.013   5.792  0.2957 -0.3533  0.2360
   60OSM    H4F 4626   5.484   7.079   5.826  3.6192  3.3551  1.8765
   60OSM    H4G 4627   5.522   6.940   5.721  0.3174 -0.3531  0.2225
   60OSM    C5F 4628   5.661   7.098   5.709  0.3455 -0.3805 -0.0359
   60OSM    H5F 4629   5.733   7.028   5.661  0.5173  0.9297 -1.7551
   60OSM    H5G 4630   5.712   7.168   5.778 -1.8018 -1.3506  2.7683
   60OSM    C6F 4631   5.602   7.176   5.597 -0.7590  0.1377  0.3355
   60OSM    H6F 4632   5.506   7.231   5.610 -0.8372  0.5610 -1.6775
   60OSM    H6G 4633   5.591   7.107   5.510  1.0164  0.1473  0.0731
   60OSM    C7F 4634   5.694   7.291   5.553 -0.1398 -0.3396  0.4516
   60OSM    H7F 4635   5.800   7.270   5.580  0.9816  1.9504 -1.7563
   60OSM    H7G 4636   5.661   7.370   5.623 -0.6169  2.2604 -2.4733
   60OSM    C8F 4637   5.666   7.331   5.404  0.7965  0.6508 -0.0513
   60OSM    H8F 4638   5.567   7.380   5.410 -0.4364 -1.7837  1.0897
   60OSM    H8G 4639   5.671   7.241   5.339 -2.4369  0.4448 -0.1886
   60OSM    C9F 4640   5.766   7.423   5.340 -0.1744 -0.0285 -0.0099
   60OSM    H9F 4641   5.870   7.404   5.372  0.0111  0.1728 -0.4739
   60OSM   C10F 4642   5.736   7.510   5.242 -0.2149 -0.2794  0.2480
   60OSM   H10F 4643   5.813   7.579   5.204 -0.8753 -0.5737 -1.7394
   60OSM   C11F 4644   5.600   7.550   5.188 -1.2895  0.4746 -0.1181
   60OSM   H11F 4645   5.590   7.660   5.172 -1.0937  0.2044 -2.4248
   60OSM   H11G 4646   5.516   7.521   5.255 -1.6328  1.0867 -0.2720
   60OSM   C12F 4647   5.583   7.496   5.046 -0.1250  0.2990  0.0798
   60OSM   H12F 4648   5.479   7.529   5.024  0.3926  3.2232  1.5738
   60OSM   H12G 4649   5.587   7.385   5.051  1.6224  0.2953 -0.7366
   60OSM   C13F 4650   5.686   7.548   4.940 -0.3947 -0.0568 -0.0561
   60OSM   H13F 4651   5.785   7.524   4.983 -1.2491  2.8176  4.0752
   60OSM   H13G 4652   5.680   7.657   4.919  0.8613 -0.1704 -1.1717
   60OSM   C14F 4653   5.666   7.482   4.801  0.1496 -0.6511 -0.6903
   60OSM   H14F 4654   5.695   7.375   4.806  0.8359 -0.4932 -1.1629
   60OSM   H14G 4655   5.735   7.532   4.729  0.6880 -0.0709  0.2185
   60OSM   C15F 4656   5.532   7.503   4.746  0.1805  0.4106  0.3230
   60OSM   H15F 4657   5.495   7.607   4.751  1.6497  0.9115  1.8736
   60OSM   H15G 4658   5.460   7.433   4.793  1.8583 -0.9132  1.0554
   60OSM   C16F 4659   5.534   7.458   4.597 -0.2126  0.5888  0.1796
   60OSM   H16F 4660   5.580   7.357   4.588 -4.1412 -1.8464  3.4435
   60OSM   H16G 4661   5.602   7.521   4.536 -0.4090 -0.4139 -1.1157
   60OSM   C17F 4662   5.390   7.448   4.543  0.4528 -0.1956 -0.2799
   60OSM   H17F 4663   5.347   7.546   4.515  2.6187  0.5017 -1.4714
   60OSM   H17G 4664   5.327   7.396   4.618  1.1936 -0.8442 -0.0913
   60OSM   C18F 4665   5.375   7.376   4.404  0.4787  0.1953 -0.1862
   60OSM   H18F 4666   5.276   7.351   4.359  0.7640 -1.3801 -0.0206
   60OSM   H18G 4667   5.406   7.269   4.406  0.6215  0.2042 -1.1576
   60OSM   H18H 4668   5.437   7.434   4.332  1.2193  0.7379  0.8692
   61OSM      N 4669   6.522   1.391   6.634 -0.7360  0.3776  0.3781
   61OSM    C15 4670   6.649   1.422   6.720 -0.0857  0.3556 -0.1977
   61OSM   H15A 4671   6.675   1.526   6.726  1.1810 -0.0293  3.1008
   61OSM   H15B 4672   6.735   1.367   6.686 -1.7424 -1.6832 -1.4014
   61OSM   H15C 4673   6.630   1.397   6.824 -0.0417  2.4140  0.3483
   61OSM    C14 4674   6.490   1.240   6.659  0.1239  0.2481 -0.5152
   61OSM   H14A 4675   6.422   1.227   6.576  1.9173 -0.5592 -1.9011
   61OSM   H14B 4676   6.455   1.230   6.761  0.4250 -0.0122 -0.4386
   61OSM   H14C 4677   6.575   1.180   6.633  0.0659  0.2561 -0.7292
   61OSM    C13 4678   6.410   1.478   6.679  0.3365  0.2960  0.3450
   61OSM   H13A 4679   6.445   1.579   6.692  3.5778 -0.8429  1.4215
   61OSM   H13B 4680   6.372   1.456   6.778  0.2956  0.8166  0.4499
   61OSM   H13C 4681   6.327   1.482   6.609  0.4896  1.6034  0.2159
   61OSM    C12 4682   6.563   1.417   6.493  0.4553  0.0223 -0.3070
   61OSM   H12A 4683   6.643   1.351   6.460  0.9499  0.0279  0.8277
   61OSM   H12B 4684   6.603   1.517   6.489 -0.6545  0.6857  2.7741
   61OSM    C11 4685   6.442   1.419   6.384  0.1388  0.1670 -0.1696
   61OSM   H11A 4686   6.479   1.431   6.280 -0.1886 -0.7349 -0.3992
   61OSM   H11B 4687   6.378   1.502   6.423  0.7841  0.0558  1.1784
   61OSM      P 4688   6.402   1.170   6.319  0.4635  0.5086  0.0720
   61OSM    O13 4689   6.535   1.177   6.253 -0.3656 -0.0050 -0.6914
   61OSM    O14 4690   6.389   1.069   6.418  0.2324  0.0987 -0.2290
   61OSM    O11 4691   6.298   1.153   6.202  0.7663 -0.6858 -0.9940
   61OSM    O12 4692   6.356   1.305   6.390 -0.2268 -0.1154  0.0944
   61OSM    C1S 4693   6.263   1.269   6.122 -0.5003 -0.1861 -0.5517
   61OSM    H1S 4694   6.299   1.366   6.161 -0.0058 -1.3950  2.3337
   61OSM    H1T 4695   6.152   1.276   6.111 -0.6717 -0.1902  0.9623
   61OSM     NF 4696   6.321   1.392   5.912  0.1267 -0.1110  0.0621
   61OSM    HNF 4697   6.248   1.416   5.849 -0.4733 -1.3274  0.2716
   61OSM    C2S 4698   6.321   1.261   5.974 -0.2600  0.7083 -0.3386
   61OSM    H2S 4699   6.425   1.224   5.985 -0.2621  0.8279  0.0986
   61OSM    C3S 4700   6.242   1.151   5.887 -0.6047  0.7321  0.3161
   61OSM    H3S 4701   6.142   1.195   5.868 -0.6314  0.5431  0.0076
   61OSM     O3 4702   6.218   1.021   5.948 -0.7709 -0.5055 -0.0146
   61OSM    HO3 4703   6.223   1.038   6.042 -0.6167 -1.6636  0.2035
   61OSM    C4S 4704   6.304   1.135   5.748 -0.2823 -0.3122  0.2564
   61OSM    H4S 4705   6.244   1.191   5.674 -1.5066 -0.5339  1.0438
   61OSM    C5S 4706   6.413   1.059   5.714  0.0343  0.0312 -0.1820
   61OSM    H5S 4707   6.458   0.998   5.795 -1.5862 -2.0994 -0.7907
   61OSM    C6S 4708   6.464   1.029   5.574  0.1753  0.1212 -0.5132
   61OSM    H6S 4709   6.449   0.920   5.554 -0.8797 -0.1953  1.7497
   61OSM    H6T 4710   6.573   1.052   5.573  0.0272  0.8489 -0.2936
   61OSM    C7S 4711   6.395   1.103   5.460 -0.4230 -0.5988  0.0319
   61OSM    H7S 4712   6.424   1.209   5.474  0.3769 -0.5358 -1.7598
   61OSM    H7T 4713   6.285   1.099   5.473 -0.3354  0.8167  1.3820
   61OSM    C8S 4714   6.451   1.059   5.329 -1.0185 -0.2954 -0.0058
   61OSM    H8S 4715   6.438   0.949   5.337 -3.1001 -0.0592  0.2805
   61OSM    H8T 4716   6.562   1.074   5.326 -1.3369  2.4845 -0.8761
   61OSM    C9S 4717   6.388   1.110   5.199 -0.2416 -0.0177  0.2048
   61OSM    H9S 4718   6.398   1.219   5.216  0.6596 -0.5720  4.1154
   61OSM    H9T 4719   6.279   1.092   5.212  0.2879 -1.7988  2.9439
   61OSM   C10S 4720   6.449   1.043   5.073 -0.1620 -0.3301 -0.3158
   61OSM   H10S 4721   6.438   0.934   5.091 -0.2640 -0.4829 -1.2459
   61OSM   H10T 4722   6.554   1.078   5.068 -0.7785  1.7259  0.3354
   61OSM   C11S 4723   6.371   1.085   4.945  0.2452  0.1611 -0.4288
   61OSM   H11S 4724   6.262   1.088   4.966  0.4555  0.7880  0.6611
   61OSM   H11T 4725   6.381   1.017   4.858  0.0832  0.0471 -0.3583
   61OSM   C12S 4726   6.408   1.222   4.900 -0.3187  0.9179 -0.1706
   61OSM   H12S 4727   6.513   1.207   4.868 -0.4354  1.4570 -0.8325
   61OSM   H12T 4728   6.400   1.295   4.984 -1.9115  2.1674 -1.3262
   61OSM   C13S 4729   6.317   1.262   4.781  0.1903  0.5035 -0.0516
   61OSM   H13S 4730   6.210   1.267   4.808 -0.0723  0.9919 -1.1147
   61OSM   H13T 4731   6.335   1.189   4.699  0.1561  0.3920  0.0395
   61OSM   C14S 4732   6.368   1.391   4.717  1.1211  0.9240 -0.5214
   61OSM   H14S 4733   6.477   1.376   4.707  1.0559  1.1406 -1.6165
   61OSM   H14T 4734   6.354   1.475   4.790 -2.4865 -1.7774  2.3088
   61OSM   C15S 4735   6.294   1.409   4.573  0.1866 -0.0959 -0.4917
   61OSM   H15S 4736   6.326   1.506   4.530  2.1255  0.3371  1.7343
   61OSM   H15T 4737   6.186   1.424   4.596  0.4311  2.9495 -0.9971
   61OSM   C16S 4738   6.341   1.303   4.476  0.1348  0.2270  0.2878
   61OSM   H16S 4739   6.294   1.209   4.509  0.6095 -0.7822 -1.7645
   61OSM   H16T 4740   6.450   1.283   4.470  0.0374 -0.7344  1.4243
   61OSM   C17S 4741   6.289   1.315   4.324 -0.5729 -0.5871  0.0075
   61OSM   H17S 4742   6.342   1.225   4.284  4.0328  1.2604  1.2746
   61OSM   H17T 4743   6.337   1.401   4.272  0.4731 -1.2574 -0.1690
   61OSM   C18S 4744   6.143   1.312   4.303 -0.1677  0.4860 -0.5247
   61OSM   H18S 4745   6.090   1.406   4.328  1.2323  1.0017  0.6662
   61OSM   H18T 4746   6.079   1.238   4.355 -0.6462  1.0285 -0.3360
   61OSM   H18U 4747   6.124   1.304   4.194  0.6689  2.5429 -0.8697
   61OSM    C1F 4748   6.405   1.487   5.948  0.2992 -0.6372  0.0314
   61OSM     OF 4749   6.506   1.477   6.014  0.5439 -0.1060  1.0021
   61OSM    C2F 4750   6.373   1.626   5.891  0.0988  0.2807  0.2816
   61OSM    H2F 4751   6.379   1.703   5.971  1.5756  1.0283 -0.5070
   61OSM    H2G 4752   6.268   1.626   5.855  0.3954  0.3165 -0.6157
   61OSM    C3F 4753   6.464   1.675   5.781 -0.0182 -0.0255  0.0276
   61OSM    H3F 4754   6.565   1.669   5.828  0.1335  1.8163  0.0026
   61OSM    H3G 4755   6.448   1.778   5.742  0.4076  0.0162 -0.0422
   61OSM    C4F 4756   6.456   1.594   5.651 -0.1028 -0.0372 -0.4874
   61OSM    H4F 4757   6.363   1.621   5.597 -0.2700  3.4562  1.2597
   61OSM    H4G 4758   6.452   1.484   5.667  0.9257 -0.2310 -1.4378
   61OSM    C5F 4759   6.582   1.627   5.570  0.5013 -0.7143 -0.0516
   61OSM    H5F 4760   6.677   1.586   5.612  0.1142  0.5703  2.2901
   61OSM    H5G 4761   6.598   1.737   5.569 -1.5312 -0.3638  0.4007
   61OSM    C6F 4762   6.561   1.583   5.424 -1.1508  0.2126 -0.3299
   61OSM    H6F 4763   6.604   1.670   5.370  1.9745  1.0340  3.1190
   61OSM    H6G 4764   6.454   1.581   5.392 -1.3081  3.5096 -0.2833
   61OSM    C7F 4765   6.642   1.459   5.384 -0.2076 -0.6174  0.3384
   61OSM    H7F 4766   6.607   1.364   5.430  1.4531 -1.9712 -1.0966
   61OSM    H7G 4767   6.749   1.471   5.412  0.1068 -0.1910 -1.0050
   61OSM    C8F 4768   6.632   1.420   5.232  0.5207 -0.4521  0.1367
   61OSM    H8F 4769   6.658   1.509   5.171 -3.2513  0.0683 -0.9890
   61OSM    H8G 4770   6.524   1.402   5.209 -0.1865 -1.4018  3.6682
   61OSM    C9F 4771   6.715   1.303   5.183 -0.2260  0.0109  0.5394
   61OSM    H9F 4772   6.706   1.217   5.251 -0.4700 -0.6255 -0.2671
   61OSM   C10F 4773   6.790   1.304   5.071 -0.3770  0.9630 -0.6746
   61OSM   H10F 4774   6.844   1.216   5.030  0.8727  0.9004  1.0031
   61OSM   C11F 4775   6.811   1.424   4.979 -0.6455  1.0344 -0.6069
   61OSM   H11F 4776   6.920   1.435   4.960 -0.3222  1.0551  1.1169
   61OSM   H11G 4777   6.771   1.523   5.011 -1.0495  0.7982 -0.3685
   61OSM   C12F 4778   6.753   1.402   4.838  0.0327 -0.1404 -0.3983
   61OSM   H12F 4779   6.650   1.367   4.859  0.6411 -0.4288  2.5214
   61OSM   H12G 4780   6.811   1.327   4.781 -1.0939  0.3886 -2.3108
   61OSM   C13F 4781   6.753   1.536   4.760  0.3070  0.3537 -0.7571
   61OSM   H13F 4782   6.857   1.575   4.773  1.0324 -1.4149 -0.8718
   61OSM   H13G 4783   6.676   1.609   4.793 -0.6963 -1.4315  1.0651
   61OSM   C14F 4784   6.755   1.502   4.613  0.4334  0.1119 -0.3311
   61OSM   H14F 4785   6.673   1.428   4.597  1.2941 -0.6400 -1.4066
   61OSM   H14G 4786   6.852   1.462   4.577  1.2238  1.6125  0.0613
   61OSM   C15F 4787   6.718   1.625   4.529  0.0626 -0.2626 -0.4192
   61OSM   H15F 4788   6.805   1.693   4.542  0.5057 -1.0236  0.7383
   61OSM   H15G 4789   6.625   1.669   4.570  0.1989 -0.6871  0.3566
   61OSM   C16F 4790   6.695   1.596   4.380 -0.1980 -0.3336 -0.9462
   61OSM   H16F 4791   6.602   1.536   4.381 -1.3231  1.0693  3.4420
   61OSM   H16G 4792   6.768   1.520   4.345  0.3584 -0.8676  1.1891
   61OSM   C17F 4793   6.656   1.711   4.289 -1.5439  0.1023  0.5026
   61OSM   H17F 4794   6.665   1.666   4.188  0.4893 -0.5897  0.9532
   61OSM   H17G 4795   6.733   1.790   4.296 -1.2312  0.1131 -2.0377
   61OSM   C18F 4796   6.521   1.777   4.286 -0.1206  0.6978 -0.5331
   61OSM   H18F 4797   6.506   1.856   4.363  0.1605  2.4778 -2.2291
   61OSM   H18G 4798   6.438   1.704   4.279  0.9372 -0.4251 -1.9297
   61OSM   H18H 4799   6.523   1.846   4.199 -0.9714  1.6094  0.1454
   62OSM      N 4800   5.998   5.752   6.992  0.3352 -0.5943 -0.4693
   62OSM    C15 4801   5.937   5.821   7.113 -0.2389  0.0563  0.4663
   62OSM   H15A 4802   5.918   5.759   7.200 -1.0917 -0.5307 -0.1167
   62OSM   H15B 4803   5.833   5.846   7.097 -0.5569 -0.0597  2.1437
   62OSM   H15C 4804   5.987   5.912   7.142  0.3447 -0.3555  0.7597
   62OSM    C14 4805   6.138   5.729   7.019 -0.0540 -0.4863 -0.0044
   62OSM   H14A 4806   6.152   5.634   7.069 -0.2866 -0.0301  0.9430
   62OSM   H14B 4807   6.191   5.801   7.080 -0.6087  0.2354 -0.3635
   62OSM   H14C 4808   6.195   5.730   6.927  0.0506  0.7671  0.0606
   62OSM    C13 4809   5.942   5.622   6.969 -0.2757  0.5194 -0.5607
   62OSM   H13A 4810   5.960   5.556   7.053 -1.6714  1.9687  0.9620
   62OSM   H13B 4811   5.980   5.570   6.883 -1.0393 -0.5073 -0.2946
   62OSM   H13C 4812   5.835   5.631   6.964 -0.2382  0.5065 -1.4203
   62OSM    C12 4813   5.971   5.841   6.872  0.1917 -0.2388  0.0590
   62OSM   H12A 4814   6.016   5.937   6.891 -1.2066  0.0223  2.5035
   62OSM   H12B 4815   5.865   5.861   6.866  0.0295 -1.3354 -1.2516
   62OSM    C11 4816   6.019   5.796   6.729  0.5817  0.0375 -0.5489
   62OSM   H11A 4817   6.003   5.890   6.672  2.4431  1.8792  1.7260
   62OSM   H11B 4818   5.957   5.713   6.692  1.5744 -0.8610 -0.2451
   62OSM      P 4819   6.215   5.637   6.658 -0.3215 -0.1862 -0.3585
   62OSM    O13 4820   6.353   5.613   6.708 -0.0941  0.3666 -0.2148
   62OSM    O14 4821   6.122   5.528   6.697 -0.3342 -0.6310  0.5594
   62OSM    O11 4822   6.224   5.661   6.500 -0.0471  0.3222  0.5556
   62OSM    O12 4823   6.159   5.770   6.721  0.1372 -0.9942 -1.2746
   62OSM    C1S 4824   6.257   5.793   6.463 -0.2136 -0.4266 -0.0005
   62OSM    H1S 4825   6.362   5.821   6.486  0.3664 -1.6612 -1.0440
   62OSM    H1T 4826   6.190   5.875   6.498  0.9686 -0.1302  1.6829
   62OSM     NF 4827   6.309   5.947   6.274  0.2122  0.6301  0.0848
   62OSM    HNF 4828   6.249   6.021   6.244  0.2662  0.4436 -0.4758
   62OSM    C2S 4829   6.253   5.817   6.312 -0.1065 -0.2437 -0.1426
   62OSM    H2S 4830   6.319   5.740   6.267 -0.2324 -0.2735 -0.2777
   62OSM    C3S 4831   6.117   5.794   6.246 -0.7108  0.9593  0.2907
   62OSM    H3S 4832   6.059   5.874   6.295 -0.6245  1.1501  0.0865
   62OSM     O3 4833   6.051   5.674   6.294 -0.4047  0.0224  0.1927
   62OSM    HO3 4834   6.108   5.631   6.357  3.4522  2.4784 -1.2875
   62OSM    C4S 4835   6.109   5.804   6.101 -0.1836  0.0402  0.4719
   62OSM    H4S 4836   6.205   5.800   6.048 -0.5230  2.2687 -0.4162
   62OSM    C5S 4837   6.003   5.840   6.025  0.3923 -0.6084  0.1728
   62OSM    H5S 4838   5.908   5.864   6.075  0.4468  1.3926 -0.5786
   62OSM    C6S 4839   6.007   5.853   5.875  0.5188 -0.1944  0.4660
   62OSM    H6S 4840   6.105   5.827   5.828 -0.0667 -0.1695 -0.8114
   62OSM    H6T 4841   5.976   5.957   5.852 -0.7235 -0.8144 -0.8164
   62OSM    C7S 4842   5.901   5.768   5.795  0.4223 -0.3674 -0.2426
   62OSM    H7S 4843   5.800   5.791   5.835  0.6035 -1.3150  0.8266
   62OSM    H7T 4844   5.927   5.661   5.809  1.0254 -0.2046 -0.0930
   62OSM    C8S 4845   5.902   5.790   5.635  0.7403  0.5083 -0.0777
   62OSM    H8S 4846   5.828   5.721   5.590  1.7556 -0.5016 -0.2440
   62OSM    H8T 4847   6.004   5.764   5.600  0.5735 -1.0919  0.5848
   62OSM    C9S 4848   5.860   5.926   5.581  0.0650 -0.0112  0.0433
   62OSM    H9S 4849   5.915   6.010   5.629  0.6450  0.9519 -2.1503
   62OSM    H9T 4850   5.753   5.937   5.606  0.2866 -2.0139  2.2180
   62OSM   C10S 4851   5.887   5.924   5.428  0.5857  0.6883 -0.1582
   62OSM   H10S 4852   5.849   5.826   5.391 -1.3392  0.7450  1.5009
   62OSM   H10T 4853   5.995   5.925   5.401  0.8535 -2.3385  0.4111
   62OSM   C11S 4854   5.811   6.037   5.362  0.3428 -0.0643  0.3052
   62OSM   H11S 4855   5.819   6.132   5.418 -2.6456 -0.2364  1.2147
   62OSM   H11T 4856   5.707   6.007   5.389  0.5351 -0.0277  1.1396
   62OSM   C12S 4857   5.828   6.045   5.215  0.3112  0.0890  0.4251
   62OSM   H12S 4858   5.734   6.075   5.163 -1.4782 -1.8219  2.3568
   62OSM   H12T 4859   5.832   5.949   5.159  0.1000 -0.1501  0.8172
   62OSM   C13S 4860   5.937   6.146   5.184  0.4986  0.9327  0.4079
   62OSM   H13S 4861   6.023   6.123   5.251 -0.5712 -0.8849  1.2248
   62OSM   H13T 4862   5.906   6.252   5.199  2.8379  1.6477  0.5938
   62OSM   C14S 4863   5.987   6.151   5.035 -0.0384 -0.2291  0.7640
   62OSM   H14S 4864   6.033   6.251   5.021  1.4492 -1.1490 -1.5443
   62OSM   H14T 4865   5.904   6.140   4.962 -0.8349 -2.0359  1.8612
   62OSM   C15S 4866   6.085   6.046   5.002 -0.3413  0.1766 -0.4250
   62OSM   H15S 4867   6.039   5.945   5.006  0.1806 -0.0272  1.5035
   62OSM   H15T 4868   6.164   6.034   5.080 -0.4010  0.7765 -0.2662
   62OSM   C16S 4869   6.153   6.068   4.868  0.1979  0.1382  0.2205
   62OSM   H16S 4870   6.214   6.160   4.877  0.6179  0.0555 -1.4963
   62OSM   H16T 4871   6.078   6.073   4.787 -1.2331  0.3496  1.5228
   62OSM   C17S 4872   6.239   5.951   4.829 -0.5392  0.0560  0.0923
   62OSM   H17S 4873   6.176   5.861   4.813  1.1904 -0.7164 -3.4970
   62OSM   H17T 4874   6.303   5.926   4.915 -1.7447 -0.1625  0.9502
   62OSM   C18S 4875   6.336   5.973   4.708 -0.2440 -0.5029  0.6579
   62OSM   H18S 4876   6.271   6.025   4.634  3.4331  1.0141 -1.7989
   62OSM   H18T 4877   6.369   5.877   4.663 -0.7220  0.2713 -1.4717
   62OSM   H18U 4878   6.417   6.043   4.741 -0.4887  0.3772 -0.5413
   62OSM    C1F 4879   6.439   5.986   6.276 -0.3355 -0.0170  0.8597
   62OSM     OF 4880   6.531   5.920   6.328  0.2400  0.3570 -0.5382
   62OSM    C2F 4881   6.474   6.123   6.220 -0.3591  0.4946  0.1619
   62OSM    H2F 4882   6.517   6.180   6.306  0.1809 -2.1127  1.7175
   62OSM    H2G 4883   6.378   6.168   6.186 -0.3439  0.2084 -0.2589
   62OSM    C3F 4884   6.563   6.108   6.092  0.9041  0.2617 -0.0431
   62OSM    H3F 4885   6.657   6.061   6.127  2.2121  3.5002  1.1730
   62OSM    H3G 4886   6.603   6.209   6.068  1.5215  0.6919  2.5426
   62OSM    C4F 4887   6.497   6.046   5.968  0.3427 -0.2321  0.7678
   62OSM    H4F 4888   6.482   5.939   5.993  1.5289 -0.2258  1.5938
   62OSM    H4G 4889   6.575   6.037   5.890 -1.3394  0.6085 -1.1212
   62OSM    C5F 4890   6.367   6.107   5.918  0.0176  0.1926  0.3319
   62OSM    H5F 4891   6.388   6.215   5.900 -2.5149  1.1622  2.4330
   62OSM    H5G 4892   6.295   6.095   6.002 -0.0540  2.2913  0.6292
   62OSM    C6F 4893   6.312   6.027   5.804  0.4298 -0.1877 -0.1914
   62OSM    H6F 4894   6.266   5.938   5.850  1.9035 -1.3763 -0.9171
   62OSM    H6G 4895   6.388   5.996   5.729  0.2761  0.3059 -0.5561
   62OSM    C7F 4896   6.201   6.107   5.728  0.1109  0.3980  0.0501
   62OSM    H7F 4897   6.130   6.147   5.804  0.6027 -4.8449  3.7949
   62OSM    H7G 4898   6.147   6.029   5.670 -1.4483 -0.5095  2.5919
   62OSM    C8F 4899   6.242   6.224   5.630 -0.0829  0.4042 -0.6076
   62OSM    H8F 4900   6.328   6.186   5.571  0.6062 -0.6264  0.9870
   62OSM    H8G 4901   6.288   6.304   5.691 -0.4464 -0.8363  1.3591
   62OSM    C9F 4902   6.125   6.268   5.544 -0.6880 -0.4349 -0.2777
   62OSM    H9F 4903   6.045   6.194   5.530 -0.6791 -0.4740 -0.1226
   62OSM   C10F 4904   6.104   6.394   5.494 -0.4241 -0.1339  0.1691
   62OSM   H10F 4905   6.007   6.402   5.443 -0.4299 -0.4721  0.1246
   62OSM   C11F 4906   6.201   6.512   5.493 -0.0801  0.1976  0.1028
   62OSM   H11F 4907   6.308   6.482   5.497 -0.1720 -0.2896 -0.7515
   62OSM   H11G 4908   6.184   6.590   5.571  0.4657  1.0969 -0.6467
   62OSM   C12F 4909   6.191   6.590   5.358  0.0803 -0.0957 -0.1842
   62OSM   H12F 4910   6.273   6.664   5.353  0.0329 -0.1217 -2.7537
   62OSM   H12G 4911   6.092   6.640   5.357 -0.6510 -1.2841  2.4534
   62OSM   C13F 4912   6.199   6.489   5.243  0.2388  0.2047  0.2287
   62OSM   H13F 4913   6.118   6.414   5.237 -0.0523  0.5268  0.0947
   62OSM   H13G 4914   6.295   6.433   5.251 -1.0137 -2.3260 -1.3253
   62OSM   C14F 4915   6.193   6.577   5.113  0.1028 -0.1192  0.2355
   62OSM   H14F 4916   6.267   6.660   5.116 -0.3618  0.3763 -1.1669
   62OSM   H14G 4917   6.093   6.621   5.094  0.0893 -1.0551 -2.2333
   62OSM   C15F 4918   6.223   6.496   4.988  0.2140  0.1579 -0.3041
   62OSM   H15F 4919   6.131   6.436   4.973 -0.2829  0.6483  0.7214
   62OSM   H15G 4920   6.312   6.431   5.003  0.8617  1.0538 -0.1569
   62OSM   C16F 4921   6.254   6.597   4.870 -0.7671 -0.4369  0.9765
   62OSM   H16F 4922   6.332   6.553   4.803 -0.5825  0.2852  0.7053
   62OSM   H16G 4923   6.295   6.691   4.912 -0.2366  0.3406 -1.1305
   62OSM   C17F 4924   6.139   6.629   4.779  0.4404 -0.0562  0.7616
   62OSM   H17F 4925   6.054   6.688   4.820  0.9003  2.9506 -2.1502
   62OSM   H17G 4926   6.096   6.529   4.756 -0.1441  0.3230  0.1621
   62OSM   C18F 4927   6.171   6.701   4.646 -0.0880  0.4376  0.1485
   62OSM   H18F 4928   6.086   6.706   4.575 -0.7736  0.6628  0.9656
   62OSM   H18G 4929   6.264   6.661   4.600  0.3759  2.3060 -0.6187
   62OSM   H18H 4930   6.194   6.809   4.658 -0.0350  0.5892 -1.2009
   63OSM      N 4931   3.902   6.455   6.853  0.3325 -0.4623 -0.8837
   63OSM    C15 4932   4.030   6.469   6.781 -0.0259  0.0348 -0.2816
   63OSM   H15A 4933   4.080   6.554   6.824  0.2427  0.0957 -0.7229
   63OSM   H15B 4934   4.019   6.495   6.677  3.1320 -2.1599 -1.3114
   63OSM   H15C 4935   4.086   6.377   6.787 -2.2067 -1.3173  0.6107
   63OSM    C14 4936   3.801   6.364   6.783  0.3474 -0.7407 -0.6272
   63OSM   H14A 4937   3.838   6.262   6.781  0.2681 -0.7736 -0.4796
   63OSM   H14B 4938   3.771   6.398   6.686  1.1396 -0.9116 -0.9424
   63OSM   H14C 4939   3.717   6.370   6.851  1.0995  2.9829  0.1954
   63OSM    C13 4940   3.938   6.388   6.989  0.9432  0.2187 -0.2323
   63OSM   H13A 4941   3.985   6.292   6.970  0.4020  0.0867 -0.9069
   63OSM   H13B 4942   3.842   6.373   7.035  1.2434  1.2295  0.7694
   63OSM   H13C 4943   4.001   6.450   7.052  0.4695  1.5348 -1.0108
   63OSM    C12 4944   3.834   6.588   6.879  0.1916  0.2675 -0.6871
   63OSM   H12A 4945   3.905   6.655   6.925 -0.7001  2.1605 -1.9676
   63OSM   H12B 4946   3.758   6.579   6.956 -1.5600 -1.4989 -2.5136
   63OSM    C11 4947   3.775   6.660   6.757 -0.3485  0.5387 -0.4460
   63OSM   H11A 4948   3.847   6.645   6.674  1.8698  0.7661  1.3504
   63OSM   H11B 4949   3.774   6.769   6.775 -1.1175  1.2163 -3.8835
   63OSM      P 4950   3.519   6.651   6.820  0.5545 -0.2957  0.0087
   63OSM    O13 4951   3.410   6.552   6.806  0.0157 -0.4054 -0.0692
   63OSM    O14 4952   3.558   6.685   6.956  0.4697  0.3241 -0.5179
   63OSM    O11 4953   3.457   6.780   6.746  0.0146 -0.3522 -0.1380
   63OSM    O12 4954   3.643   6.612   6.723 -1.1193  0.5615 -0.1668
   63OSM    C1S 4955   3.529   6.894   6.706 -0.5896 -0.0168 -0.9546
   63OSM    H1S 4956   3.620   6.914   6.766 -0.3826 -0.3013 -1.1724
   63OSM    H1T 4957   3.470   6.981   6.743 -0.2318 -0.6994  1.4472
   63OSM     NF 4958   3.616   7.052   6.533 -0.0279 -0.6578  0.3047
   63OSM    HNF 4959   3.558   7.129   6.511  0.1892  0.0926  2.2150
   63OSM    C2S 4960   3.565   6.918   6.559  0.5277 -0.1154  0.5006
   63OSM    H2S 4961   3.633   6.834   6.534  1.4374  0.2455  1.6557
   63OSM    C3S 4962   3.429   6.896   6.478 -0.5336  0.0046 -0.5148
   63OSM    H3S 4963   3.360   6.979   6.504 -2.5429 -2.2447  1.8239
   63OSM     O3 4964   3.346   6.783   6.504 -0.1129 -0.1491 -0.7557
   63OSM    HO3 4965   3.377   6.764   6.593 -1.5077 -0.9408 -0.4256
   63OSM    C4S 4966   3.459   6.910   6.327 -0.3476 -0.1850  1.1994
   63OSM    H4S 4967   3.445   7.017   6.305 -1.1519 -0.3594  0.8308
   63OSM    C5S 4968   3.508   6.820   6.243  0.4865  0.0885 -0.3382
   63OSM    H5S 4969   3.530   6.718   6.280 -4.0421 -0.1014  2.6082
   63OSM    C6S 4970   3.552   6.833   6.099 -0.7063 -0.1685 -0.7584
   63OSM    H6S 4971   3.651   6.784   6.088 -0.1961 -0.0427  2.2809
   63OSM    H6T 4972   3.568   6.935   6.060 -2.7963  0.5483  0.0858
   63OSM    C7S 4973   3.466   6.759   5.992 -0.6890 -0.0683 -0.2074
   63OSM    H7S 4974   3.365   6.805   5.993 -0.8639 -0.4413 -0.2789
   63OSM    H7T 4975   3.457   6.652   6.021 -2.2202  0.1316  0.1730
   63OSM    C8S 4976   3.518   6.778   5.846  0.0234  0.0004 -0.0559
   63OSM    H8S 4977   3.502   6.885   5.818 -0.1748 -0.8779 -3.9292
   63OSM    H8T 4978   3.457   6.720   5.774  1.5066 -1.7434  0.0198
   63OSM    C9S 4979   3.668   6.746   5.814 -0.2973  0.8186  0.7887
   63OSM    H9S 4980   3.737   6.779   5.896 -2.6076 -0.1564  3.2852
   63OSM    H9T 4981   3.692   6.791   5.715 -0.2831 -0.3600  0.2469
   63OSM   C10S 4982   3.691   6.587   5.806  0.2611 -0.0719 -0.8196
   63OSM   H10S 4983   3.640   6.550   5.714 -1.4825  0.1951 -0.0003
   63OSM   H10T 4984   3.633   6.544   5.890  1.5074 -0.8282 -0.3223
   63OSM   C11S 4985   3.836   6.554   5.820 -0.7456 -0.4945 -0.2473
   63OSM   H11S 4986   3.857   6.571   5.928 -0.8710 -0.3734 -0.2411
   63OSM   H11T 4987   3.887   6.623   5.748  0.3107 -0.4750  0.4974
   63OSM   C12S 4988   3.868   6.417   5.784 -0.4092  0.0869  0.1996
   63OSM   H12S 4989   3.796   6.347   5.830  0.3880 -0.1284  1.1595
   63OSM   H12T 4990   3.965   6.390   5.831 -0.4434 -0.5340 -0.0797
   63OSM   C13S 4991   3.894   6.405   5.629  0.5032 -0.3594  0.1676
   63OSM   H13S 4992   3.983   6.464   5.598 -1.2271  0.7106 -3.2969
   63OSM   H13T 4993   3.813   6.459   5.574  1.8165 -0.8337 -2.3854
   63OSM   C14S 4994   3.883   6.262   5.580 -0.5768 -0.3103  0.4386
   63OSM   H14S 4995   3.775   6.240   5.589 -1.1981  2.3058  0.1454
   63OSM   H14T 4996   3.945   6.183   5.627 -0.3681 -0.4107  0.0040
   63OSM   C15S 4997   3.897   6.256   5.430 -0.2276 -0.4449  0.4912
   63OSM   H15S 4998   3.999   6.294   5.407  0.0718 -0.0667  2.3162
   63OSM   H15T 4999   3.821   6.320   5.379  0.2728 -1.5713 -1.7846
   63OSM   C16S 5000   3.880   6.115   5.374 -0.2488 -0.7294  0.2078
   63OSM   H16S 5001   3.788   6.067   5.412  0.0155  0.2504  2.1783
   63OSM   H16T 5002   3.971   6.052   5.390 -0.0767 -0.2662  1.1163
   63OSM   C17S 5003   3.863   6.110   5.216 -0.3252 -0.3615 -0.4674
   63OSM   H17S 5004   3.775   6.170   5.185  0.3106  0.5117 -0.6530
   63OSM   H17T 5005   3.856   6.003   5.188 -1.8877 -0.0013 -1.5719
   63OSM   C18S 5006   3.986   6.181   5.150 -0.2884  0.4805 -0.4973
   63OSM   H18S 5007   3.987   6.164   5.040 -1.0713 -3.6387 -0.0240
   63OSM   H18T 5008   4.073   6.131   5.198 -2.0274 -0.9611  1.3095
   63OSM   H18U 5009   3.998   6.289   5.171  1.3760 -0.1708  2.3760
   63OSM    C1F 5010   3.743   7.085   6.565  0.0576 -0.6662 -0.0674
   63OSM     OF 5011   3.821   6.998   6.613  0.2662  0.3967  0.3855
   63OSM    C2F 5012   3.786   7.221   6.532  0.4924  0.1784  0.4400
   63OSM    H2F 5013   3.844   7.263   6.617  0.3802 -0.6435  0.9347
   63OSM    H2G 5014   3.691   7.277   6.519 -0.1187 -0.6291  1.2872
   63OSM    C3F 5015   3.862   7.222   6.401  0.0422  0.1910  0.0649
   63OSM    H3F 5016   3.965   7.182   6.415 -0.0298  0.2043  0.6635
   63OSM    H3G 5017   3.871   7.325   6.360 -0.0400  0.9243  1.7701
   63OSM    C4F 5018   3.801   7.138   6.286 -0.1700  0.0289 -0.2555
   63OSM    H4F 5019   3.695   7.169   6.285  0.0995  1.0047  0.4016
   63OSM    H4G 5020   3.810   7.032   6.317  2.0813  0.4163  0.6356
   63OSM    C5F 5021   3.853   7.162   6.144  0.6675 -0.1444 -0.5991
   63OSM    H5F 5022   3.872   7.267   6.116 -0.3224 -0.3061 -2.0081
   63OSM    H5G 5023   3.778   7.107   6.082  0.6089 -1.8021  0.8400
   63OSM    C6F 5024   3.991   7.082   6.125  0.3676 -0.4125  0.0106
   63OSM    H6F 5025   3.967   6.974   6.125  0.4460 -0.4302 -0.2093
   63OSM    H6G 5026   4.071   7.103   6.200  1.8410  0.7477 -1.7760
   63OSM    C7F 5027   4.068   7.122   5.996 -0.1659 -0.1316 -0.7544
   63OSM    H7F 5028   4.165   7.070   6.012 -1.1552 -1.3254  2.0999
   63OSM    H7G 5029   4.091   7.230   6.005 -2.7165  0.2984  3.5247
   63OSM    C8F 5030   4.005   7.088   5.864 -0.6096 -0.3236  0.5744
   63OSM    H8F 5031   4.034   7.178   5.806  1.9188 -1.0436  0.6199
   63OSM    H8G 5032   3.895   7.096   5.880 -0.3379  0.3978  2.2634
   63OSM    C9F 5033   4.039   6.965   5.792 -0.2843  0.3409  0.5037
   63OSM    H9F 5034   4.083   6.886   5.855  0.7615 -0.9933 -1.7755
   63OSM   C10F 5035   4.011   6.947   5.661  0.3360  0.7662  0.2939
   63OSM   H10F 5036   4.034   6.851   5.614 -0.5897  0.7661 -0.1813
   63OSM   C11F 5037   3.950   7.046   5.561 -0.3902 -0.1254  0.3540
   63OSM   H11F 5038   4.024   7.071   5.482 -1.8995  2.6510 -0.2820
   63OSM   H11G 5039   3.918   7.142   5.606  0.0286  0.9760 -1.5976
   63OSM   C12F 5040   3.842   6.974   5.483  0.2186 -0.6960  0.3356
   63OSM   H12F 5041   3.799   7.050   5.415  2.6206  0.6995  0.2471
   63OSM   H12G 5042   3.760   6.957   5.556  1.3479 -0.0105  1.8271
   63OSM   C13F 5043   3.885   6.847   5.406 -0.9664  0.1464 -0.2412
   63OSM   H13F 5044   3.880   6.760   5.475 -0.1048  0.3965  0.1619
   63OSM   H13G 5045   3.992   6.863   5.380 -0.9848  1.1855  0.2649
   63OSM   C14F 5046   3.822   6.809   5.273  0.6280 -0.2152 -0.3650
   63OSM   H14F 5047   3.862   6.711   5.237  1.7824  0.9120 -2.3173
   63OSM   H14G 5048   3.842   6.893   5.204  0.1160  1.8930  1.9399
   63OSM   C15F 5049   3.664   6.801   5.284 -0.1088 -0.5187  0.1401
   63OSM   H15F 5050   3.621   6.818   5.183 -0.8013 -0.1456  0.4928
   63OSM   H15G 5051   3.625   6.894   5.330 -1.2431 -0.3119 -1.1655
   63OSM   C16F 5052   3.599   6.679   5.351  0.4307  0.9445  0.4982
   63OSM   H16F 5053   3.489   6.687   5.337  0.4089 -1.3974 -1.3518
   63OSM   H16G 5054   3.625   6.670   5.458  0.8078  1.0403  0.4141
   63OSM   C17F 5055   3.629   6.548   5.276  0.0867 -0.2184 -0.1564
   63OSM   H17F 5056   3.738   6.540   5.296 -0.0890 -0.3528  0.7903
   63OSM   H17G 5057   3.614   6.575   5.169  2.0856  4.2136  0.4753
   63OSM   C18F 5058   3.558   6.424   5.327 -0.8620  0.3979 -0.0559
   63OSM   H18F 5059   3.547   6.428   5.438 -2.0759  1.0771 -0.1785
   63OSM   H18G 5060   3.634   6.345   5.311  1.5299  2.8012 -1.3737
   63OSM   H18H 5061   3.461   6.403   5.277  1.3209 -4.8913 -2.8177
   64OSM      N 5062   1.907   1.044   6.964 -0.3692 -0.3211  0.2311
   64OSM    C15 5063   1.902   1.190   7.003 -0.0027  0.0198 -0.2051
   64OSM   H15A 5064   1.953   1.258   6.937  0.7373  0.1744  0.5148
   64OSM   H15B 5065   1.949   1.206   7.099  2.8006 -1.7858 -1.1525
   64OSM   H15C 5066   1.800   1.225   7.001 -0.5319 -1.4359 -2.2285
   64OSM    C14 5067   1.829   1.023   6.840  0.1802  0.0933  0.1590
   64OSM   H14A 5068   1.885   1.060   6.755 -0.9156  0.6387 -0.3451
   64OSM   H14B 5069   1.739   1.083   6.830  0.7772  0.8863 -0.6309
   64OSM   H14C 5070   1.796   0.921   6.829 -0.8110  0.0102  3.0342
   64OSM    C13 5071   2.051   1.020   6.932  0.1448  0.0349  0.1887
   64OSM   H13A 5072   2.109   1.067   7.010 -0.4654  1.4429 -0.1750
   64OSM   H13B 5073   2.083   1.063   6.838  2.9591 -0.6004  0.7469
   64OSM   H13C 5074   2.073   0.914   6.939 -0.6224 -0.1387 -0.0396
   64OSM    C12 5075   1.860   0.949   7.075 -0.1743  0.0961  0.4456
   64OSM   H12A 5076   1.757   0.971   7.098  0.0882  0.2485  1.5283
   64OSM   H12B 5077   1.913   0.973   7.166 -1.4848 -0.5276  1.3996
   64OSM    C11 5078   1.881   0.794   7.055 -0.3451 -0.6611 -0.4467
   64OSM   H11A 5079   1.803   0.770   6.980  0.3286 -1.6206 -0.8638
   64OSM   H11B 5080   1.863   0.742   7.151  0.7802 -0.7019 -0.2445
   64OSM      P 5081   2.053   0.606   6.963 -0.1120 -0.1307  0.3583
   64OSM    O13 5082   2.202   0.598   6.964 -0.1623 -0.0884  0.1206
   64OSM    O14 5083   1.986   0.506   7.046  1.0385 -0.1249 -0.7507
   64OSM    O11 5084   1.996   0.583   6.819 -0.3615  0.1521  0.1254
   64OSM    O12 5085   2.009   0.752   7.007 -0.0731 -0.0610 -0.6304
   64OSM    C1S 5086   2.059   0.651   6.706 -0.1706  0.2057  0.3912
   64OSM    H1S 5087   2.163   0.618   6.685  0.7230  2.4150  1.0677
   64OSM    H1T 5088   2.069   0.761   6.722 -1.6571  0.3254  0.5598
   64OSM     NF 5089   2.052   0.705   6.463 -0.3452 -0.2291  0.7021
   64OSM    HNF 5090   2.026   0.799   6.443  1.0649  0.4946  2.0479
   64OSM    C2S 5091   1.982   0.629   6.567  0.0523 -0.0693 -0.9353
   64OSM    H2S 5092   1.983   0.522   6.538 -1.4857 -0.4084  0.1789
   64OSM    C3S 5093   1.831   0.663   6.588  0.2983 -0.4743  0.5709
   64OSM    H3S 5094   1.811   0.752   6.651 -1.1918 -0.9212  0.7469
   64OSM     O3 5095   1.774   0.559   6.668 -0.0413  0.2241 -0.5624
   64OSM    HO3 5096   1.850   0.534   6.723  2.1359  1.0524 -2.9997
   64OSM    C4S 5097   1.755   0.662   6.454 -0.8104  0.8063  0.1184
   64OSM    H4S 5098   1.754   0.566   6.400  2.1679  0.2026  0.9707
   64OSM    C5S 5099   1.709   0.770   6.386 -0.0410  0.3843  0.1294
   64OSM    H5S 5100   1.744   0.868   6.423  0.3735  0.3424 -0.1440
   64OSM    C6S 5101   1.651   0.759   6.250 -1.3251  0.4769 -0.3617
   64OSM    H6S 5102   1.608   0.860   6.235 -0.9365  1.1949  2.6676
   64OSM    H6T 5103   1.578   0.676   6.239  0.6407 -0.9978 -3.7961
   64OSM    C7S 5104   1.767   0.738   6.141 -0.1253  1.0431 -0.3065
   64OSM    H7S 5105   1.833   0.650   6.156 -1.1372  0.4865  1.1806
   64OSM    H7T 5106   1.838   0.822   6.159  1.5588 -0.6120  1.1793
   64OSM    C8S 5107   1.701   0.745   6.008  0.1016 -0.2704  0.8062
   64OSM    H8S 5108   1.690   0.855   5.995 -3.2388 -0.6057 -0.3859
   64OSM    H8T 5109   1.601   0.696   6.004 -1.4945  2.7500 -0.0536
   64OSM    C9S 5110   1.788   0.675   5.901  0.7742  0.0116 -0.3752
   64OSM    H9S 5111   1.789   0.568   5.932 -2.3627 -0.0119 -0.0640
   64OSM    H9T 5112   1.891   0.717   5.903  1.3529 -1.2590  3.1866
   64OSM   C10S 5113   1.734   0.689   5.764  1.1598  0.3064  0.0455
   64OSM   H10S 5114   1.713   0.797   5.756  1.0406  0.3020  0.2741
   64OSM   H10T 5115   1.632   0.645   5.762  0.9883  0.4742  2.2029
   64OSM   C11S 5116   1.825   0.637   5.657  0.0611  0.4622  0.0610
   64OSM   H11S 5117   1.856   0.532   5.674 -0.3738 -0.0551 -1.9875
   64OSM   H11T 5118   1.921   0.693   5.665 -0.4334  1.1402  1.7863
   64OSM   C12S 5119   1.750   0.641   5.521  0.2162 -0.5247 -0.5183
   64OSM   H12S 5120   1.706   0.744   5.518 -1.2566 -1.0758  0.6233
   64OSM   H12T 5121   1.662   0.573   5.523  0.1138 -0.3851 -0.1434
   64OSM   C13S 5122   1.829   0.605   5.403 -1.1181  0.3654  0.0289
   64OSM   H13S 5123   1.871   0.505   5.427 -1.9577 -0.2701 -1.0754
   64OSM   H13T 5124   1.916   0.674   5.405 -2.0854  1.5996  1.0305
   64OSM   C14S 5125   1.756   0.627   5.266 -0.3299  0.3083 -0.6214
   64OSM   H14S 5126   1.709   0.727   5.273  0.5396  0.6613  0.5331
   64OSM   H14T 5127   1.673   0.554   5.262 -0.0722 -0.0354  0.0937
   64OSM   C15S 5128   1.843   0.599   5.141  0.5272 -0.2570 -0.3004
   64OSM   H15S 5129   1.879   0.494   5.144  1.5903  0.0684 -0.8678
   64OSM   H15T 5130   1.927   0.672   5.149  1.0581 -0.9941  1.4000
   64OSM   C16S 5131   1.765   0.608   5.013  0.8078  0.6937  0.6063
   64OSM   H16S 5132   1.712   0.706   5.006  0.6555  0.7987  2.6293
   64OSM   H16T 5133   1.686   0.532   4.995 -1.3174  2.6596  1.0430
   64OSM   C17S 5134   1.867   0.600   4.893 -0.2773  1.0983  0.7196
   64OSM   H17S 5135   1.901   0.494   4.899 -2.6180  0.2976  1.2345
   64OSM   H17T 5136   1.951   0.671   4.906  1.3912 -0.4762 -0.8057
   64OSM   C18S 5137   1.793   0.622   4.760 -0.5883 -0.1369 -0.2789
   64OSM   H18S 5138   1.777   0.731   4.745  1.7244  0.3842  0.5959
   64OSM   H18T 5139   1.691   0.578   4.756 -0.6928 -0.1310  1.4946
   64OSM   H18U 5140   1.852   0.577   4.678  0.8430  1.5882 -0.2618
   64OSM    C1F 5141   2.163   0.665   6.399 -0.4942 -0.1649  0.5461
   64OSM     OF 5142   2.232   0.574   6.435 -0.2008 -0.1239 -0.6812
   64OSM    C2F 5143   2.195   0.737   6.268  0.3763  0.0950  0.3584
   64OSM    H2F 5144   2.259   0.824   6.292 -1.1546  1.5502 -0.6149
   64OSM    H2G 5145   2.096   0.759   6.221  1.3829  1.7377 -1.1101
   64OSM    C3F 5146   2.269   0.656   6.160  0.0040 -0.2071  0.5380
   64OSM    H3F 5147   2.231   0.552   6.170  3.3045 -1.5108  0.6208
   64OSM    H3G 5148   2.378   0.656   6.178  0.0883  3.9929  1.0296
   64OSM    C4F 5149   2.238   0.699   6.013  0.1899 -0.8491 -0.0022
   64OSM    H4F 5150   2.261   0.807   5.996 -1.3515 -0.2013  1.6210
   64OSM    H4G 5151   2.129   0.689   5.991  0.1853  0.1460 -0.5213
   64OSM    C5F 5152   2.314   0.617   5.906 -0.3789 -0.1733  0.2386
   64OSM    H5F 5153   2.300   0.509   5.929  1.2562 -0.3832  0.3861
   64OSM    H5G 5154   2.422   0.640   5.890  0.7114 -3.7506  1.4300
   64OSM    C6F 5155   2.237   0.629   5.771  0.1927  0.1541 -0.4654
   64OSM    H6F 5156   2.244   0.731   5.729 -0.4361 -0.2838 -1.6953
   64OSM    H6G 5157   2.127   0.615   5.778 -0.0701  0.3384 -3.0149
   64OSM    C7F 5158   2.276   0.529   5.665 -0.1655  0.7920 -0.7777
   64OSM    H7F 5159   2.294   0.432   5.717  0.4631  2.7491  2.9946
   64OSM    H7G 5160   2.375   0.556   5.623  0.0161  0.3065 -0.6757
   64OSM    C8F 5161   2.184   0.501   5.542  0.0519  0.3068 -0.3936
   64OSM    H8F 5162   2.080   0.487   5.577  0.5026 -1.1525  0.4717
   64OSM    H8G 5163   2.213   0.400   5.506  1.2278  0.9998 -1.4773
   64OSM    C9F 5164   2.193   0.614   5.435  0.0913 -0.2426  0.7230
   64OSM    H9F 5165   2.166   0.713   5.474 -0.6424 -0.9126  1.9863
   64OSM   C10F 5166   2.240   0.607   5.313 -0.0742  0.0431 -0.0294
   64OSM   H10F 5167   2.234   0.698   5.251 -1.9696  0.1863  0.2980
   64OSM   C11F 5168   2.287   0.484   5.234 -0.1248 -0.9827 -0.5778
   64OSM   H11F 5169   2.336   0.416   5.306 -0.8435 -0.2798  0.5956
   64OSM   H11G 5170   2.375   0.513   5.173  0.6166  0.4138  1.1012
   64OSM   C12F 5171   2.187   0.395   5.158  0.2053 -0.1484  0.0892
   64OSM   H12F 5172   2.139   0.451   5.074  2.5705  1.5488 -0.2452
   64OSM   H12G 5173   2.107   0.362   5.228  2.3665 -5.2846  0.5988
   64OSM   C13F 5174   2.251   0.264   5.099  0.3341 -0.6423 -0.2691
   64OSM   H13F 5175   2.210   0.168   5.137  0.3963 -1.3862 -1.9727
   64OSM   H13G 5176   2.354   0.265   5.141 -0.4567 -1.1186  1.7859
   64OSM   C14F 5177   2.241   0.274   4.944  0.4213  0.4940 -0.1548
   64OSM   H14F 5178   2.268   0.380   4.921  2.3041  0.2089  0.6033
   64OSM   H14G 5179   2.136   0.275   4.905  0.1682  0.2165  0.5075
   64OSM   C15F 5180   2.320   0.163   4.875 -0.3331 -0.2572 -0.2113
   64OSM   H15F 5181   2.324   0.177   4.765 -0.9122  2.3095  0.0377
   64OSM   H15G 5182   2.267   0.066   4.886  0.2725 -0.8104 -1.8018
   64OSM   C16F 5183   2.462   0.140   4.912 -1.3865 -0.6220  0.3514
   64OSM   H16F 5184   2.475   0.086   5.008 -1.0661 -1.8659 -0.3726
   64OSM   H16G 5185   2.517   0.237   4.920 -2.2048  0.2008 -2.5552
   64OSM   C17F 5186   2.540   0.061   4.803 -0.3063  0.0342 -0.5617
   64OSM   H17F 5187   2.526   0.115   4.707  0.9260  0.1138 -0.7139
   64OSM   H17G 5188   2.491  -0.038   4.793 -0.9552  0.3444 -0.4971
   64OSM   C18F 5189   2.685   0.040   4.836 -0.3080  0.1886  0.6994
   64OSM   H18F 5190   2.730  -0.042   4.776  0.4017 -2.4598  4.4777
   64OSM   H18G 5191   2.696   0.018   4.944  1.4417 -0.1233  0.4769
   64OSM   H18H 5192   2.723   0.140   4.807 -0.3449  0.2370  0.8167
   65OSM      N 5193   4.574   6.048   6.868  0.7295 -0.0399  0.2110
   65OSM    C15 5194   4.559   5.901   6.840 -0.8921 -0.1025 -0.1978
   65OSM   H15A 5195   4.464   5.850   6.840 -1.0608  0.1973  0.3693
   65OSM   H15B 5196   4.619   5.858   6.919 -0.9662  1.1502  0.5793
   65OSM   H15C 5197   4.595   5.897   6.739  1.2329  1.1273  0.4540
   65OSM    C14 5198   4.563   6.064   7.016  0.7056 -0.5800 -0.5743
   65OSM   H14A 5199   4.603   6.158   7.051 -0.8079 -0.0108 -0.3201
   65OSM   H14B 5200   4.611   5.982   7.066  3.0577  2.6094  2.9725
   65OSM   H14C 5201   4.461   6.064   7.052  0.4681 -0.9397 -1.2232
   65OSM    C13 5202   4.713   6.089   6.837 -0.0479  0.0032  0.3864
   65OSM   H13A 5203   4.737   6.089   6.732  0.6682  1.0153  0.5309
   65OSM   H13B 5204   4.783   6.027   6.892  0.6180 -0.3033 -0.7840
   65OSM   H13C 5205   4.730   6.190   6.870  0.5299 -0.0010  0.1112
   65OSM    C12 5206   4.474   6.136   6.787 -0.1190  0.2658  0.3601
   65OSM   H12A 5207   4.373   6.099   6.781 -0.1318  0.0828  1.4689
   65OSM   H12B 5208   4.508   6.132   6.685 -1.2698 -0.9840  0.0063
   65OSM    C11 5209   4.460   6.289   6.800  0.7717  0.8199  0.0496
   65OSM   H11A 5210   4.426   6.318   6.902 -1.4717  0.3458 -0.5087
   65OSM   H11B 5211   4.377   6.323   6.735  1.3560  0.8470 -0.6921
   65OSM      P 5212   4.644   6.397   6.645 -0.2402 -0.5094 -0.2337
   65OSM    O13 5213   4.554   6.492   6.578  0.7319  0.1154  0.1338
   65OSM    O14 5214   4.784   6.440   6.668 -0.4903  0.1384 -0.0760
   65OSM    O11 5215   4.649   6.257   6.566 -0.3472  0.2587  0.1768
   65OSM    O12 5216   4.583   6.365   6.789  0.0503 -0.4963  0.7683
   65OSM    C1S 5217   4.576   6.234   6.444 -0.2720 -0.1505  0.6624
   65OSM    H1S 5218   4.500   6.311   6.420  0.5923  0.7957  0.8781
   65OSM    H1T 5219   4.521   6.138   6.448 -0.0850 -0.2517  0.8202
   65OSM     NF 5220   4.602   6.236   6.187 -0.3117  0.7655 -0.1214
   65OSM    HNF 5221   4.591   6.153   6.133  0.9309 -0.0523  0.8129
   65OSM    C2S 5222   4.673   6.227   6.319  0.2374  0.5379  0.0993
   65OSM    H2S 5223   4.739   6.316   6.329 -0.6552  1.5418 -2.1758
   65OSM    C3S 5224   4.762   6.102   6.335  0.4172  0.6139  0.1243
   65OSM    H3S 5225   4.696   6.013   6.349  2.4893 -1.0919 -0.3848
   65OSM     O3 5226   4.843   6.102   6.451  0.5385  0.2124 -0.1579
   65OSM    HO3 5227   4.798   6.168   6.504 -0.0864  1.0453 -1.6597
   65OSM    C4S 5228   4.852   6.087   6.209 -0.1520 -0.4735 -0.3924
   65OSM    H4S 5229   4.812   6.006   6.146 -1.8508  0.4444 -0.5655
   65OSM    C5S 5230   4.955   6.157   6.168  0.6863 -0.0074 -0.3524
   65OSM    H5S 5231   4.963   6.256   6.214  0.6084 -1.5836  3.4421
   65OSM    C6S 5232   5.038   6.120   6.051  0.1155  0.4930 -0.5461
   65OSM    H6S 5233   5.036   6.010   6.041 -0.4475  0.6613 -2.6014
   65OSM    H6T 5234   5.147   6.141   6.065  0.2384 -0.4613 -0.0100
   65OSM    C7S 5235   4.990   6.164   5.915 -0.4404 -1.0946  0.0382
   65OSM    H7S 5236   4.984   6.274   5.909 -0.1772 -1.1116 -0.5029
   65OSM    H7T 5237   4.885   6.131   5.898  0.3830 -2.7128 -2.3391
   65OSM    C8S 5238   5.085   6.113   5.803  0.5385 -0.7721  0.7619
   65OSM    H8S 5239   5.096   6.003   5.811 -0.6609 -0.9939 -0.3350
   65OSM    H8T 5240   5.180   6.169   5.813 -0.3945  0.7806  1.2587
   65OSM    C9S 5241   5.013   6.130   5.668 -0.5327  0.4753 -0.3510
   65OSM    H9S 5242   5.094   6.111   5.595 -0.8768 -4.2162  0.1476
   65OSM    H9T 5243   4.987   6.237   5.663 -0.7796  0.4877  0.8231
   65OSM   C10S 5244   4.909   6.019   5.636  0.2546 -0.3747  0.3867
   65OSM   H10S 5245   4.834   6.010   5.717 -0.2288 -0.8369 -0.1038
   65OSM   H10T 5246   4.974   5.930   5.630  1.0165  0.1638  0.5106
   65OSM   C11S 5247   4.848   6.045   5.497  0.1135  0.0852 -0.1545
   65OSM   H11S 5248   4.879   6.149   5.476  0.3321 -0.4169 -2.5317
   65OSM   H11T 5249   4.737   6.041   5.505 -0.1345  1.6320 -2.1824
   65OSM   C12S 5250   4.893   5.957   5.379  0.0816  0.7786  0.0951
   65OSM   H12S 5251   5.003   5.946   5.381  0.3461  2.6246 -1.6548
   65OSM   H12T 5252   4.869   6.003   5.281  2.5114  0.0233 -0.9170
   65OSM   C13S 5253   4.823   5.824   5.373 -0.4834  0.0512 -0.4968
   65OSM   H13S 5254   4.713   5.830   5.357 -1.2215 -1.0691  3.1867
   65OSM   H13T 5255   4.811   5.787   5.477 -2.3969  0.4812 -0.5118
   65OSM   C14S 5256   4.896   5.719   5.289  0.3735 -0.4775  0.4084
   65OSM   H14S 5257   4.843   5.623   5.310 -1.5010  0.4888  0.3366
   65OSM   H14T 5258   5.002   5.707   5.320 -0.2618 -1.0393  2.4853
   65OSM   C15S 5259   4.877   5.747   5.138 -0.0175 -0.4163  0.3649
   65OSM   H15S 5260   4.919   5.663   5.079 -2.1728 -1.5891  0.4176
   65OSM   H15T 5261   4.939   5.831   5.099  0.7694 -0.9346  0.4759
   65OSM   C16S 5262   4.729   5.758   5.091 -0.3329 -0.2121 -0.2544
   65OSM   H16S 5263   4.681   5.853   5.124 -1.5729 -1.0844  0.5383
   65OSM   H16T 5264   4.674   5.673   5.136 -0.1855 -0.6601 -0.9080
   65OSM   C17S 5265   4.706   5.758   4.941 -0.6381  0.2782 -0.6064
   65OSM   H17S 5266   4.708   5.651   4.912 -0.5927  0.3383 -0.8201
   65OSM   H17T 5267   4.784   5.811   4.883 -0.2336 -0.2242 -0.5290
   65OSM   C18S 5268   4.575   5.825   4.902  0.9782  0.0325 -0.0293
   65OSM   H18S 5269   4.542   5.798   4.799  0.1952 -2.0788  0.7275
   65OSM   H18T 5270   4.589   5.935   4.910 -1.1787  0.5079 -1.8586
   65OSM   H18U 5271   4.494   5.790   4.970  0.5966 -0.8332 -0.9025
   65OSM    C1F 5272   4.542   6.349   6.148  0.6047 -0.8595 -0.1957
   65OSM     OF 5273   4.546   6.452   6.216  0.1120 -0.5747 -0.2034
   65OSM    C2F 5274   4.480   6.348   6.015  0.0364  0.1851 -0.4199
   65OSM    H2F 5275   4.374   6.379   6.019  0.3070  1.0001  2.1647
   65OSM    H2G 5276   4.479   6.242   5.980 -3.6247 -0.8842  2.3475
   65OSM    C3F 5277   4.558   6.431   5.914 -0.1750  0.2778  0.0762
   65OSM    H3F 5278   4.568   6.534   5.954 -0.0586  1.1862 -2.1230
   65OSM    H3G 5279   4.506   6.447   5.817 -0.6089 -0.8840  0.0997
   65OSM    C4F 5280   4.698   6.371   5.874 -0.6060  0.3039 -0.1182
   65OSM    H4F 5281   4.720   6.277   5.818  3.1515  0.7585  0.3797
   65OSM    H4G 5282   4.771   6.373   5.958 -0.5603  2.7506 -0.1420
   65OSM    C5F 5283   4.775   6.471   5.780 -0.3725  0.0592 -0.3389
   65OSM    H5F 5284   4.886   6.463   5.786 -0.3471  1.2516  1.9841
   65OSM    H5G 5285   4.752   6.571   5.824 -1.2734 -0.4313  0.3292
   65OSM    C6F 5286   4.738   6.465   5.636 -0.5726  0.1495  0.4066
   65OSM    H6F 5287   4.630   6.466   5.608  0.0056  1.7465 -2.2109
   65OSM    H6G 5288   4.788   6.380   5.585 -1.5878 -1.0596  1.3844
   65OSM    C7F 5289   4.794   6.589   5.560 -0.2087  0.5029 -0.2061
   65OSM    H7F 5290   4.892   6.612   5.608 -0.6251 -0.2213  1.0217
   65OSM    H7G 5291   4.735   6.682   5.577 -1.6715 -0.7286  2.0117
   65OSM    C8F 5292   4.811   6.574   5.404 -0.5061  0.4421 -0.2748
   65OSM    H8F 5293   4.841   6.671   5.360 -1.0358  0.6370 -0.2177
   65OSM    H8G 5294   4.711   6.556   5.360 -1.1109  1.1089  0.7655
   65OSM    C9F 5295   4.917   6.464   5.367 -0.4902  0.0371  0.0998
   65OSM    H9F 5296   4.989   6.431   5.443 -0.0163 -0.2019 -0.4461
   65OSM   C10F 5297   4.923   6.408   5.239 -0.1950  0.1933 -0.5433
   65OSM   H10F 5298   4.996   6.330   5.216 -0.1209  0.3580 -0.8769
   65OSM   C11F 5299   4.828   6.442   5.132  0.3062  0.7960  0.2176
   65OSM   H11F 5300   4.892   6.490   5.055  2.0379  2.3920  2.4832
   65OSM   H11G 5301   4.752   6.516   5.165 -0.5603 -1.4565  3.7650
   65OSM   C12F 5302   4.747   6.319   5.080  0.0357 -0.1446 -0.1102
   65OSM   H12F 5303   4.805   6.225   5.097 -1.1840 -0.5776  2.0570
   65OSM   H12G 5304   4.732   6.324   4.970 -0.7010 -0.8911 -0.0581
   65OSM   C13F 5305   4.633   6.307   5.172  0.6944  0.2070  0.0889
   65OSM   H13F 5306   4.562   6.388   5.146  0.4501  0.4907  1.5482
   65OSM   H13G 5307   4.659   6.326   5.278 -0.4898  2.7844  0.0064
   65OSM   C14F 5308   4.554   6.175   5.163 -0.0743  0.4391 -0.1043
   65OSM   H14F 5309   4.620   6.095   5.202  3.0178  3.5507  1.6606
   65OSM   H14G 5310   4.526   6.149   5.059 -0.9598 -1.7416  0.6340
   65OSM   C15F 5311   4.434   6.173   5.249 -0.4107 -0.5126  0.7483
   65OSM   H15F 5312   4.387   6.076   5.222  2.3010 -2.0212  1.1028
   65OSM   H15G 5313   4.370   6.261   5.224 -0.6436 -1.0017 -0.4437
   65OSM   C16F 5314   4.449   6.192   5.397  0.6570  0.2231  0.5046
   65OSM   H16F 5315   4.519   6.276   5.411  2.8080 -1.2072 -1.0720
   65OSM   H16G 5316   4.501   6.104   5.441  0.1167 -0.3341  0.0538
   65OSM   C17F 5317   4.315   6.236   5.458 -0.3111  0.1432 -0.2250
   65OSM   H17F 5318   4.249   6.147   5.449  0.2100 -0.4527  1.4565
   65OSM   H17G 5319   4.266   6.308   5.389 -0.2571 -0.2532 -0.6818
   65OSM   C18F 5320   4.317   6.288   5.599  1.1353 -0.2501 -0.0893
   65OSM   H18F 5321   4.348   6.204   5.665  1.7133  0.2302  0.2557
   65OSM   H18G 5322   4.214   6.324   5.621  0.9247 -1.3157  0.7574
   65OSM   H18H 5323   4.394   6.367   5.608  1.1492 -0.3791  1.0939
   66OSM      N 5324   2.980   0.880   7.281 -0.1887 -0.2050  0.0133
   66OSM    C15 5325   2.916   1.010   7.289 -0.5998 -0.0644  0.6007
   66OSM   H15A 5326   2.818   1.007   7.335 -1.2039  2.4887 -0.3317
   66OSM   H15B 5327   2.898   1.052   7.191 -3.9659  0.7242  1.4393
   66OSM   H15C 5328   2.977   1.074   7.352  0.9430 -1.9589  1.1231
   66OSM    C14 5329   3.118   0.906   7.231 -0.3425  0.1853 -0.2076
   66OSM   H14A 5330   3.118   0.952   7.133  2.4972 -0.8950 -0.8253
   66OSM   H14B 5331   3.174   0.814   7.226  0.8506  0.8439  0.3709
   66OSM   H14C 5332   3.162   0.977   7.299  1.7965 -0.2370 -1.0631
   66OSM    C13 5333   2.990   0.817   7.417 -0.1216 -0.5905 -0.1727
   66OSM   H13A 5334   3.048   0.726   7.422  1.3083  0.2626 -0.6213
   66OSM   H13B 5335   2.896   0.781   7.457 -0.3768 -0.3547 -0.5622
   66OSM   H13C 5336   3.034   0.886   7.488  2.5407 -2.6591  0.3562
   66OSM    C12 5337   2.911   0.785   7.193  0.5909 -0.2146 -0.6642
   66OSM   H12A 5338   2.819   0.758   7.241  1.0903  2.2029  1.8960
   66OSM   H12B 5339   2.967   0.693   7.185  1.7430  0.2425  1.3604
   66OSM    C11 5340   2.891   0.834   7.045  0.2941  0.6462  0.2095
   66OSM   H11A 5341   2.828   0.752   7.004 -1.5492  1.4356  1.3209
   66OSM   H11B 5342   2.981   0.833   6.980  0.6649  1.8616  0.6873
   66OSM      P 5343   2.811   1.032   6.899  0.1450 -0.2850  0.5228
   66OSM    O13 5344   2.683   1.101   6.879 -0.1367  0.0964 -0.3938
   66OSM    O14 5345   2.935   1.112   6.899 -0.1668  0.4877  0.0195
   66OSM    O11 5346   2.820   0.917   6.785  0.6679 -0.0549 -0.2377
   66OSM    O12 5347   2.808   0.950   7.035 -0.2821  0.4143  0.1157
   66OSM    C1S 5348   2.787   0.945   6.650  0.1028 -0.5218 -0.1695
   66OSM    H1S 5349   2.782   1.056   6.640  0.9790 -0.2833  1.6710
   66OSM    H1T 5350   2.684   0.903   6.638  0.4762 -1.5620  0.1941
   66OSM     NF 5351   2.829   0.862   6.407  0.2713 -0.0684  0.3855
   66OSM    HNF 5352   2.798   0.768   6.392  1.0978 -0.7736  2.5949
   66OSM    C2S 5353   2.892   0.886   6.540  0.7726 -0.1357 -0.3916
   66OSM    H2S 5354   2.974   0.960   6.531  0.9795 -0.4879 -1.4517
   66OSM    C3S 5355   2.957   0.753   6.599 -0.2913 -0.1992 -0.2158
   66OSM    H3S 5356   2.880   0.677   6.624 -1.0101  0.5279 -0.1800
   66OSM     O3 5357   3.032   0.769   6.722 -0.2476  0.3888 -0.0459
   66OSM    HO3 5358   2.994   0.850   6.759 -1.5030 -0.4711  0.6245
   66OSM    C4S 5359   3.053   0.690   6.501 -0.1211  0.0024 -0.4037
   66OSM    H4S 5360   3.153   0.737   6.508 -0.7416  1.1285  1.4893
   66OSM    C5S 5361   3.031   0.588   6.426  0.1955  0.7584 -0.7696
   66OSM    H5S 5362   2.932   0.542   6.437  0.1109  1.0666 -0.1745
   66OSM    C6S 5363   3.130   0.515   6.337  0.2538 -0.5124  0.3464
   66OSM    H6S 5364   3.133   0.409   6.371 -0.0287 -0.1213  1.6295
   66OSM    H6T 5365   3.231   0.560   6.338 -0.6930  1.7450 -0.2790
   66OSM    C7S 5366   3.077   0.512   6.198 -0.0097 -0.0635 -0.0237
   66OSM    H7S 5367   2.983   0.454   6.187  0.4516 -1.1405  1.3733
   66OSM    H7T 5368   3.151   0.449   6.143  0.1025  0.5258 -0.5605
   66OSM    C8S 5369   3.066   0.644   6.129  0.0384 -0.4892 -0.7482
   66OSM    H8S 5370   3.164   0.688   6.101 -0.4639  0.7383 -0.6425
   66OSM    H8T 5371   3.019   0.723   6.192  1.5582  0.3207 -0.5962
   66OSM    C9S 5372   2.974   0.634   6.007 -0.5333  0.6239  1.1355
   66OSM    H9S 5373   2.934   0.731   5.972  1.1889  0.4524 -1.5530
   66OSM    H9T 5374   2.886   0.577   6.046  1.9852 -3.4450  1.4220
   66OSM   C10S 5375   3.030   0.560   5.886 -0.6420  0.3909  0.2522
   66OSM   H10S 5376   3.054   0.452   5.900  1.1461  0.2036 -3.1120
   66OSM   H10T 5377   3.124   0.606   5.848  0.5338  0.0080  2.5123
   66OSM   C11S 5378   2.924   0.552   5.776 -0.0083  0.1731 -0.1567
   66OSM   H11S 5379   2.906   0.656   5.742 -0.5086  0.9416  2.2573
   66OSM   H11T 5380   2.829   0.521   5.824  1.1131 -0.4346  1.8054
   66OSM   C12S 5381   2.956   0.457   5.658 -0.3494 -0.2050  0.5469
   66OSM   H12S 5382   2.938   0.357   5.704 -1.6061 -0.9187 -1.3600
   66OSM   H12T 5383   3.062   0.474   5.630 -0.5818  0.5734  0.0989
   66OSM   C13S 5384   2.861   0.475   5.537 -0.5002  0.2050  0.0489
   66OSM   H13S 5385   2.761   0.463   5.583  0.2498 -1.2255  1.4171
   66OSM   H13T 5386   2.893   0.396   5.465 -2.2948  0.7991 -1.4614
   66OSM   C14S 5387   2.886   0.602   5.456  0.6352 -0.5533 -0.0142
   66OSM   H14S 5388   2.995   0.622   5.445  0.4175  1.1584  0.5956
   66OSM   H14T 5389   2.847   0.684   5.521  0.9245 -1.0566  0.8120
   66OSM   C15S 5390   2.824   0.606   5.318 -0.2793  0.9083 -0.0481
   66OSM   H15S 5391   2.827   0.706   5.269 -2.7531  1.2674  0.3847
   66OSM   H15T 5392   2.721   0.564   5.328 -0.2724  0.8931 -0.0414
   66OSM   C16S 5393   2.902   0.521   5.219 -0.3660 -1.1136  0.7012
   66OSM   H16S 5394   2.925   0.424   5.268  0.6002 -1.1683  0.1609
   66OSM   H16T 5395   3.000   0.565   5.191 -0.6689  0.6751  2.2455
   66OSM   C17S 5396   2.828   0.506   5.084 -0.6116 -0.5909 -0.1819
   66OSM   H17S 5397   2.749   0.429   5.082  0.0710 -1.4346  2.2136
   66OSM   H17T 5398   2.908   0.466   5.018 -0.7800  0.0567 -0.7929
   66OSM   C18S 5399   2.775   0.636   5.028  0.8429 -0.1924 -0.3336
   66OSM   H18S 5400   2.690   0.664   5.095  0.3736 -1.2724 -0.4476
   66OSM   H18T 5401   2.735   0.632   4.925 -0.0771  1.7782 -0.0970
   66OSM   H18U 5402   2.844   0.723   5.031  0.7083 -0.0403 -1.4493
   66OSM    C1F 5403   2.787   0.963   6.331  1.0110  0.1836 -0.2327
   66OSM     OF 5404   2.839   1.074   6.348  0.0344 -0.0876 -0.3620
   66OSM    C2F 5405   2.687   0.934   6.230  0.2419  0.2925 -0.2903
   66OSM    H2F 5406   2.593   0.982   6.265  0.6496 -0.5776  2.1641
   66OSM    H2G 5407   2.688   0.825   6.207  0.4103  0.2328 -0.0024
   66OSM    C3F 5408   2.742   1.007   6.107 -0.1312  0.1811  0.8661
   66OSM    H3F 5409   2.851   0.987   6.096  0.3413  2.3856  1.0102
   66OSM    H3G 5410   2.756   1.117   6.114  0.9335  0.2080 -0.9322
   66OSM    C4F 5411   2.669   0.976   5.982  0.3143  0.2585 -0.3417
   66OSM    H4F 5412   2.572   1.030   5.983 -0.8417 -1.7356  0.7735
   66OSM    H4G 5413   2.652   0.867   5.987  0.8465  0.2152  1.4653
   66OSM    C5F 5414   2.751   0.997   5.858  0.6208  0.3598 -0.5615
   66OSM    H5F 5415   2.834   0.924   5.850  0.2148 -0.4272  1.5986
   66OSM    H5G 5416   2.804   1.094   5.861  0.5426  0.4102 -0.8567
   66OSM    C6F 5417   2.672   0.997   5.727  0.0385  0.1875  0.1970
   66OSM    H6F 5418   2.744   1.042   5.656  1.4597 -0.2208  1.3455
   66OSM    H6G 5419   2.580   1.060   5.724 -1.8216 -2.4140 -0.7469
   66OSM    C7F 5420   2.651   0.849   5.673  0.0160 -0.0858 -0.7233
   66OSM    H7F 5421   2.570   0.805   5.735  0.4937 -0.6595 -0.4969
   66OSM    H7G 5422   2.732   0.787   5.718  0.3668  0.1321 -1.0407
   66OSM    C8F 5423   2.620   0.820   5.525  0.2374  0.5256 -1.5144
   66OSM    H8F 5424   2.600   0.711   5.512  0.7984  0.1549  0.4300
   66OSM    H8G 5425   2.715   0.840   5.471  1.5081  1.1736  0.8319
   66OSM    C9F 5426   2.504   0.899   5.475 -0.4563  0.9968  0.4201
   66OSM    H9F 5427   2.408   0.862   5.515  0.1244  1.2285  2.1088
   66OSM   C10F 5428   2.507   1.005   5.395  0.9241  0.8711 -0.1058
   66OSM   H10F 5429   2.410   1.041   5.358 -0.0179 -1.1546  0.2921
   66OSM   C11F 5430   2.621   1.081   5.334  0.1347  0.1595 -0.4626
   66OSM   H11F 5431   2.710   1.089   5.399 -0.8294  1.9609  0.7186
   66OSM   H11G 5432   2.601   1.190   5.338 -1.1288 -0.0780  2.8031
   66OSM   C12F 5433   2.644   1.052   5.178 -0.8088 -0.0711 -0.1180
   66OSM   H12F 5434   2.554   1.054   5.113  1.1316 -0.5489 -2.9774
   66OSM   H12G 5435   2.674   0.945   5.179  0.4302  0.1847  2.8482
   66OSM   C13F 5436   2.754   1.131   5.119  0.1401 -0.1261  0.4052
   66OSM   H13F 5437   2.844   1.132   5.184 -1.0993  0.1243  2.2075
   66OSM   H13G 5438   2.725   1.237   5.133 -1.6411 -0.6830  1.2564
   66OSM   C14F 5439   2.786   1.103   4.970  0.1853 -0.6923  0.2995
   66OSM   H14F 5440   2.820   0.998   4.956 -1.8766 -1.5045  0.9695
   66OSM   H14G 5441   2.872   1.169   4.945  0.6840 -1.3665  0.2146
   66OSM   C15F 5442   2.683   1.144   4.872 -0.4180 -0.0873  0.8804
   66OSM   H15F 5443   2.666   1.250   4.902  0.4222 -0.5957  3.3267
   66OSM   H15G 5444   2.586   1.090   4.884  0.1835 -1.3696  0.1191
   66OSM   C16F 5445   2.720   1.131   4.726 -1.6105 -0.0264  0.0499
   66OSM   H16F 5446   2.721   1.021   4.707 -0.4098  0.2304 -1.6636
   66OSM   H16G 5447   2.816   1.178   4.694 -1.5421 -0.1138  0.1255
   66OSM   C17F 5448   2.614   1.200   4.643 -0.3861  0.6910 -0.6933
   66OSM   H17F 5449   2.634   1.195   4.534  0.4331 -1.7529 -0.4729
   66OSM   H17G 5450   2.622   1.307   4.672  0.8817  0.7985 -1.3940
   66OSM   C18F 5451   2.476   1.144   4.668  0.0514 -0.1249  0.0426
   66OSM   H18F 5452   2.425   1.193   4.754  0.8641  1.0393 -0.1056
   66OSM   H18G 5453   2.485   1.038   4.700 -1.3533 -0.6115 -1.0567
   66OSM   H18H 5454   2.417   1.160   4.575  1.4850 -0.1248 -0.8966
   67OSM      N 5455   2.833   4.192   6.699 -0.4246 -0.0038  0.2958
   67OSM    C15 5456   2.837   4.089   6.813  0.4442  0.7716  0.0705
   67OSM   H15A 5457   2.932   4.037   6.822  1.4521  2.4974 -0.1225
   67OSM   H15B 5458   2.766   4.010   6.797  1.0044 -0.0585  1.4584
   67OSM   H15C 5459   2.805   4.136   6.905  0.5641 -2.0231  1.6351
   67OSM    C14 5460   2.694   4.248   6.685  1.0321  0.0351 -0.0757
   67OSM   H14A 5461   2.636   4.181   6.624  0.7349  1.4625 -1.4187
   67OSM   H14B 5462   2.693   4.339   6.628 -1.2783  2.0246  2.8018
   67OSM   H14C 5463   2.645   4.265   6.780 -0.0372 -0.7327 -0.4755
   67OSM    C13 5464   2.929   4.304   6.734  0.0726 -0.6391 -0.6722
   67OSM   H13A 5465   2.972   4.363   6.655  0.5092 -2.4237 -1.8243
   67OSM   H13B 5466   3.016   4.268   6.785  0.3642  2.4325  1.3020
   67OSM   H13C 5467   2.875   4.361   6.809 -0.5761  0.1337 -1.7061
   67OSM    C12 5468   2.884   4.117   6.581 -0.7626  0.1755 -0.0751
   67OSM   H12A 5469   2.830   4.024   6.568 -2.5508  0.6382  2.9952
   67OSM   H12B 5470   2.986   4.088   6.605 -0.4058  0.8664 -0.7339
   67OSM    C11 5471   2.872   4.191   6.447  0.2029  0.0953 -0.3530
   67OSM   H11A 5472   2.925   4.131   6.370  0.3079 -0.1182 -0.1154
   67OSM   H11B 5473   2.919   4.291   6.454 -1.0432  0.7951 -1.3347
   67OSM      P 5474   2.652   4.087   6.368 -0.1657  0.1685 -0.0432
   67OSM    O13 5475   2.730   3.960   6.376  0.2094  0.6508  0.2669
   67OSM    O14 5476   2.525   4.092   6.441  0.3266  0.4407  0.1682
   67OSM    O11 5477   2.635   4.129   6.213  0.1150  0.2643 -0.4517
   67OSM    O12 5478   2.740   4.215   6.408  0.5130 -0.0921  0.0053
   67OSM    C1S 5479   2.740   4.099   6.127  0.4160  0.2722  0.6208
   67OSM    H1S 5480   2.808   4.019   6.162 -2.2216 -1.9047  1.0944
   67OSM    H1T 5481   2.800   4.191   6.114  1.5335 -0.3378  1.3078
   67OSM     NF 5482   2.790   3.993   5.909  0.0079 -0.2181  0.0798
   67OSM    HNF 5483   2.855   4.056   5.868  0.3996  0.3869  1.5680
   67OSM    C2S 5484   2.688   4.060   5.986 -1.0910 -0.1585  0.2983
   67OSM    H2S 5485   2.609   3.983   5.999  1.2685 -2.6948  0.6795
   67OSM    C3S 5486   2.634   4.187   5.910  0.4620  0.4151  0.2565
   67OSM    H3S 5487   2.723   4.252   5.899  1.2837 -0.5834  0.8887
   67OSM     O3 5488   2.549   4.271   5.986 -0.1193 -0.1412  0.0528
   67OSM    HO3 5489   2.580   4.253   6.075  1.1991 -0.6296 -0.4853
   67OSM    C4S 5490   2.571   4.155   5.770  0.5511 -0.4108  1.0603
   67OSM    H4S 5491   2.650   4.143   5.695 -1.9812  0.2457 -1.9494
   67OSM    C5S 5492   2.442   4.142   5.732  0.0121  0.9179 -0.3121
   67OSM    H5S 5493   2.363   4.144   5.808 -0.6599 -1.4001 -0.8697
   67OSM    C6S 5494   2.382   4.108   5.595 -0.0183  0.7342  0.3464
   67OSM    H6S 5495   2.315   4.190   5.563  0.5347 -0.0574 -3.2063
   67OSM    H6T 5496   2.310   4.026   5.615 -1.1927  1.6947  0.1809
   67OSM    C7S 5497   2.480   4.077   5.480  0.0116 -0.1866  0.5970
   67OSM    H7S 5498   2.566   4.015   5.514 -0.5647 -0.3133  1.8897
   67OSM    H7T 5499   2.520   4.171   5.437  3.3827 -0.5580  2.5643
   67OSM    C8S 5500   2.418   4.002   5.363 -0.8571 -0.5382  0.0493
   67OSM    H8S 5501   2.374   3.905   5.395  0.8441 -0.9702  1.2044
   67OSM    H8T 5502   2.496   3.978   5.288 -0.4078 -0.4247  0.4825
   67OSM    C9S 5503   2.303   4.089   5.297  0.2578 -0.5400 -0.2677
   67OSM    H9S 5504   2.335   4.194   5.283  1.1269 -0.7703 -0.0957
   67OSM    H9T 5505   2.209   4.088   5.356 -0.7467  0.6366 -1.7865
   67OSM   C10S 5506   2.271   4.032   5.153  0.0446  0.0997  0.3520
   67OSM   H10S 5507   2.368   4.019   5.100 -0.1044 -0.3409  0.1823
   67OSM   H10T 5508   2.213   4.102   5.089  1.0458  0.8114  0.1983
   67OSM   C11S 5509   2.200   3.893   5.158  0.2877 -0.2749  0.3606
   67OSM   H11S 5510   2.135   3.891   5.248  0.1753 -1.2514  0.2707
   67OSM   H11T 5511   2.281   3.817   5.167  1.6527  0.9126 -1.3152
   67OSM   C12S 5512   2.125   3.871   5.026  0.1228 -0.1096  0.2833
   67OSM   H12S 5513   2.201   3.882   4.945  0.3976 -1.4934  0.3309
   67OSM   H12T 5514   2.044   3.946   5.013 -0.8233 -0.2525  4.2057
   67OSM   C13S 5515   2.060   3.725   5.023 -0.3804  0.2052  0.0425
   67OSM   H13S 5516   1.999   3.712   5.115  2.0217 -2.2889  1.4588
   67OSM   H13T 5517   2.143   3.651   5.033  0.4915  1.1264 -0.2338
   67OSM   C14S 5518   1.968   3.693   4.900 -0.4575  0.1542  0.4919
   67OSM   H14S 5519   2.023   3.700   4.804 -0.0375  0.9424  0.7836
   67OSM   H14T 5520   1.887   3.768   4.891  0.0437  0.4836 -2.0553
   67OSM   C15S 5521   1.905   3.550   4.916  0.2147  0.2550  0.8818
   67OSM   H15S 5522   1.817   3.561   4.984  0.2523 -2.7467  1.5723
   67OSM   H15T 5523   1.980   3.487   4.969  0.1672 -0.8613 -0.3265
   67OSM   C16S 5524   1.844   3.477   4.795 -0.1906  0.9577 -0.0837
   67OSM   H16S 5525   1.775   3.529   4.725  1.0346  0.4169 -1.7459
   67OSM   H16T 5526   1.798   3.378   4.817 -1.0572  1.0615 -1.3667
   67OSM   C17S 5527   1.961   3.441   4.702 -0.6568 -0.1155 -0.9044
   67OSM   H17S 5528   2.032   3.394   4.774  0.8601  1.3071 -1.4250
   67OSM   H17T 5529   2.010   3.538   4.682  1.6396 -1.0997 -0.4315
   67OSM   C18S 5530   1.938   3.361   4.574  0.7310  0.0941  0.1393
   67OSM   H18S 5531   2.024   3.295   4.553  0.0575 -0.6923 -0.1863
   67OSM   H18T 5532   1.901   3.422   4.488 -3.0464 -0.4612  1.1724
   67OSM   H18U 5533   1.847   3.305   4.606 -0.6159 -0.6415 -4.2907
   67OSM    C1F 5534   2.836   3.872   5.932 -0.2482 -0.1147 -0.5821
   67OSM     OF 5535   2.765   3.791   5.987 -0.2253 -0.2265 -1.0369
   67OSM    C2F 5536   2.976   3.838   5.902 -0.2948 -0.3585 -0.4029
   67OSM    H2F 5537   3.032   3.803   5.992  0.5938 -0.3355 -0.9295
   67OSM    H2G 5538   3.016   3.931   5.856 -1.0400 -0.2532 -0.8412
   67OSM    C3F 5539   2.991   3.721   5.797 -0.3731 -0.5787 -1.2265
   67OSM    H3F 5540   2.914   3.735   5.718 -0.7791 -1.0213 -0.9160
   67OSM    H3G 5541   2.961   3.626   5.847 -1.8655 -0.9523 -2.7383
   67OSM    C4F 5542   3.133   3.700   5.747  0.8485 -0.5886 -0.6179
   67OSM    H4F 5543   3.191   3.673   5.838  0.1772 -1.2551 -0.3782
   67OSM    H4G 5544   3.166   3.796   5.703 -2.5727  1.0063 -0.0382
   67OSM    C5F 5545   3.142   3.601   5.642 -0.1577  0.1721  0.5230
   67OSM    H5F 5546   3.115   3.502   5.685 -3.1191  0.5125 -0.3167
   67OSM    H5G 5547   3.249   3.581   5.619  0.2678  1.6621  1.1083
   67OSM    C6F 5548   3.056   3.631   5.516  0.0739  0.2691 -0.3826
   67OSM    H6F 5549   3.084   3.733   5.482  1.4430  0.0753  0.1117
   67OSM    H6G 5550   2.949   3.649   5.540  0.0533  2.3892 -1.7547
   67OSM    C7F 5551   3.072   3.531   5.404  0.5251 -0.0662 -0.3507
   67OSM    H7F 5552   3.082   3.430   5.449  2.0034 -0.4808 -1.5421
   67OSM    H7G 5553   3.172   3.551   5.359  0.9305 -0.3288  0.4197
   67OSM    C8F 5554   2.967   3.522   5.290 -0.3071 -0.4109  0.0870
   67OSM    H8F 5555   2.872   3.498   5.342 -0.5927 -0.1251 -0.3031
   67OSM    H8G 5556   2.994   3.432   5.230 -0.1402  1.3870 -2.6991
   67OSM    C9F 5557   2.964   3.649   5.211 -0.6473  0.8455 -0.0205
   67OSM    H9F 5558   2.960   3.732   5.283 -1.5049 -2.3944  4.0528
   67OSM   C10F 5559   2.962   3.672   5.081  0.6062  0.2934  0.6078
   67OSM   H10F 5560   2.953   3.777   5.051  0.3491  0.0453 -0.1916
   67OSM   C11F 5561   2.952   3.564   4.972 -0.8051 -0.7475  0.5537
   67OSM   H11F 5562   2.848   3.528   4.987 -0.5792 -1.8041 -0.2814
   67OSM   H11G 5563   3.021   3.478   4.982  0.1847 -0.0391  0.0102
   67OSM   C12F 5564   2.979   3.633   4.833  0.1885 -0.2545  0.6963
   67OSM   H12F 5565   3.082   3.674   4.840  0.2767 -0.6316  2.0397
   67OSM   H12G 5566   2.896   3.706   4.822  0.0824 -0.7424 -2.7016
   67OSM   C13F 5567   2.960   3.527   4.724  0.1980 -0.1408 -0.6957
   67OSM   H13F 5568   3.048   3.463   4.745  0.5486  1.3651  3.5168
   67OSM   H13G 5569   2.975   3.565   4.621 -1.2657  0.8431 -0.5863
   67OSM   C14F 5570   2.831   3.436   4.731  0.1777  0.2327 -0.1865
   67OSM   H14F 5571   2.740   3.500   4.737  0.5950  0.7477  3.7746
   67OSM   H14G 5572   2.819   3.386   4.829  1.3001  1.5484  0.6654
   67OSM   C15F 5573   2.815   3.328   4.623  1.4413  0.3194  0.0194
   67OSM   H15F 5574   2.816   3.389   4.531 -3.5595  0.7403 -0.0366
   67OSM   H15G 5575   2.715   3.281   4.639  0.8909  1.9496  1.8631
   67OSM   C16F 5576   2.914   3.212   4.640 -0.1808  0.2150 -0.0686
   67OSM   H16F 5577   2.908   3.179   4.746 -0.5253  1.7226  0.4068
   67OSM   H16G 5578   3.019   3.248   4.632 -0.3996  1.6746  2.4645
   67OSM   C17F 5579   2.900   3.090   4.548  0.0865  0.1668 -0.1649
   67OSM   H17F 5580   2.933   3.126   4.448  1.5037  2.7200  1.1054
   67OSM   H17G 5581   2.797   3.049   4.537  0.8555 -1.9531  0.1371
   67OSM   C18F 5582   2.994   2.981   4.592  0.5661  0.0841 -0.3431
   67OSM   H18F 5583   3.089   3.022   4.631  1.6754 -2.6821  0.1154
   67OSM   H18G 5584   3.017   2.917   4.504  1.8475  2.3160 -1.7086
   67OSM   H18H 5585   2.960   2.922   4.680  0.8049 -0.9962 -0.9613
   68OSM      N 5586   0.635   6.412   7.068 -0.4074 -0.6903  0.4480
   68OSM    C15 5587   0.643   6.278   7.136  0.0700  0.0181 -0.9590
   68OSM   H15A 5588   0.604   6.283   7.237  1.2746 -1.2211 -0.3974
   68OSM   H15B 5589   0.746   6.249   7.125 -0.2231 -0.5771 -2.3005
   68OSM   H15C 5590   0.590   6.200   7.085 -1.3151  0.7237 -0.6460
   68OSM    C14 5591   0.502   6.474   7.106  0.5796 -0.0499  0.0387
   68OSM   H14A 5592   0.491   6.574   7.067 -1.1804 -0.6760 -1.2006
   68OSM   H14B 5593   0.497   6.492   7.213 -2.3125 -0.0667 -0.0098
   68OSM   H14C 5594   0.418   6.417   7.069  1.8033 -0.3479 -2.4242
   68OSM    C13 5595   0.746   6.494   7.122 -0.1325  0.3001  0.7053
   68OSM   H13A 5596   0.840   6.452   7.090  0.7113  0.0827  3.2084
   68OSM   H13B 5597   0.739   6.495   7.230 -0.9409 -2.6105  0.7525
   68OSM   H13C 5598   0.736   6.597   7.089 -0.1193  0.1976  0.3790
   68OSM    C12 5599   0.649   6.395   6.919  0.0262  0.9766  0.2401
   68OSM   H12A 5600   0.554   6.352   6.892  1.1317 -0.1569 -2.1809
   68OSM   H12B 5601   0.728   6.322   6.904 -1.2446 -0.6514  1.1452
   68OSM    C11 5602   0.646   6.507   6.809 -0.6024  0.5732 -0.8660
   68OSM   H11A 5603   0.545   6.550   6.826 -0.5572 -0.5297  3.1040
   68OSM   H11B 5604   0.647   6.470   6.704  0.8082  0.0882 -0.6919
   68OSM      P 5605   0.882   6.583   6.753  0.7148  0.2936 -0.1642
   68OSM    O13 5606   0.956   6.708   6.761 -0.3597  0.3135 -0.2816
   68OSM    O14 5607   0.949   6.463   6.800 -0.1320  0.5138 -0.1561
   68OSM    O11 5608   0.850   6.557   6.601  0.2244  0.9113 -0.1724
   68OSM    O12 5609   0.741   6.611   6.821  0.4185  0.8074  0.8606
   68OSM    C1S 5610   0.903   6.660   6.517 -0.0348  0.0106  0.1172
   68OSM    H1S 5611   1.014   6.661   6.518  0.0746  1.2403 -3.1846
   68OSM    H1T 5612   0.880   6.765   6.548  0.0664 -0.4634  1.9167
   68OSM     NF 5613   0.938   6.733   6.284  0.2324  0.5251  0.0909
   68OSM    HNF 5614   0.892   6.798   6.224  0.7268 -0.4939 -1.4469
   68OSM    C2S 5615   0.866   6.639   6.365  0.2672 -0.4619 -0.1998
   68OSM    H2S 5616   0.895   6.537   6.331 -0.5331 -0.2030 -1.7723
   68OSM    C3S 5617   0.712   6.643   6.348  0.0624 -0.0017 -0.2852
   68OSM    H3S 5618   0.682   6.740   6.392  1.6813  1.0313 -1.3586
   68OSM     O3 5619   0.645   6.546   6.420 -0.2118 -0.7005 -0.9488
   68OSM    HO3 5620   0.718   6.510   6.472 -0.0695  2.2392  1.0918
   68OSM    C4S 5621   0.672   6.644   6.202 -0.6706 -0.7872  0.3120
   68OSM    H4S 5622   0.693   6.741   6.156 -0.6699 -0.8118  0.2589
   68OSM    C5S 5623   0.611   6.540   6.138 -0.2038  0.1317 -0.2463
   68OSM    H5S 5624   0.598   6.446   6.193 -2.7812  0.6546  0.2064
   68OSM    C6S 5625   0.574   6.529   5.994  0.1595 -0.2220 -0.0680
   68OSM    H6S 5626   0.472   6.568   5.972 -0.7698 -3.2425 -1.7479
   68OSM    H6T 5627   0.574   6.420   5.976  1.1259 -0.3576  0.6577
   68OSM    C7S 5628   0.656   6.596   5.885 -0.3351  0.1263 -1.0486
   68OSM    H7S 5629   0.758   6.568   5.919 -0.8584 -1.1509 -0.4609
   68OSM    H7T 5630   0.637   6.704   5.903 -1.9136 -0.5453  2.0593
   68OSM    C8S 5631   0.631   6.556   5.738  0.2676 -0.3761 -0.5781
   68OSM    H8S 5632   0.524   6.584   5.727  0.6122  2.1317  1.3695
   68OSM    H8T 5633   0.640   6.446   5.730 -1.8189 -0.5096 -1.7789
   68OSM    C9S 5634   0.715   6.633   5.635 -0.3399  0.5651  0.5910
   68OSM    H9S 5635   0.815   6.588   5.650 -1.7679 -2.4657  1.8400
   68OSM    H9T 5636   0.730   6.738   5.667  2.2840 -0.0825  1.7431
   68OSM   C10S 5637   0.671   6.626   5.485 -0.0166 -0.2090 -0.4787
   68OSM   H10S 5638   0.572   6.675   5.471 -0.0746 -0.1754  0.0241
   68OSM   H10T 5639   0.671   6.517   5.459 -0.2513  0.0340 -1.5510
   68OSM   C11S 5640   0.770   6.690   5.389 -0.0217  0.3158 -0.1087
   68OSM   H11S 5641   0.800   6.794   5.416 -1.6735  0.6105  0.7459
   68OSM   H11T 5642   0.708   6.703   5.297 -1.3650  2.1187  0.9745
   68OSM   C12S 5643   0.894   6.612   5.346  0.1326 -0.5842  0.0887
   68OSM   H12S 5644   0.861   6.508   5.324  1.1426 -0.4305 -2.5591
   68OSM   H12T 5645   0.959   6.612   5.436 -1.9847 -2.3844  1.7021
   68OSM   C13S 5646   0.971   6.674   5.227  0.4700  0.5607  0.1493
   68OSM   H13S 5647   1.072   6.626   5.235 -0.8868 -2.2050  2.8711
   68OSM   H13T 5648   0.985   6.783   5.242  0.6326  0.6611 -0.7133
   68OSM   C14S 5649   0.912   6.642   5.094 -0.2091 -0.1635  0.4384
   68OSM   H14S 5650   0.811   6.683   5.074  0.1601  0.8149  0.5571
   68OSM   H14T 5651   0.893   6.532   5.089 -1.0268 -0.0453  0.7684
   68OSM   C15S 5652   1.000   6.661   4.972  0.0665  0.6842  0.5366
   68OSM   H15S 5653   1.105   6.627   4.985 -0.1323 -0.5326 -0.7233
   68OSM   H15T 5654   1.022   6.766   4.944  2.2376 -0.0404 -0.6776
   68OSM   C16S 5655   0.950   6.578   4.852  0.1496  0.0029  0.1148
   68OSM   H16S 5656   0.852   6.627   4.832  1.4459  1.6196 -2.9116
   68OSM   H16T 5657   0.921   6.476   4.887 -0.3242 -0.3930 -1.3161
   68OSM   C17S 5658   1.011   6.601   4.709 -0.5670 -0.3634  0.6358
   68OSM   H17S 5659   1.047   6.706   4.704 -0.0333 -0.5161  1.2780
   68OSM   H17T 5660   0.934   6.592   4.629  2.6585 -1.6685 -2.5900
   68OSM   C18S 5661   1.127   6.516   4.672 -0.2491  0.1696  0.0375
   68OSM   H18S 5662   1.135   6.493   4.564  0.1710 -2.1850  0.5174
   68OSM   H18T 5663   1.107   6.416   4.716 -1.7932 -1.4009 -3.8237
   68OSM   H18U 5664   1.223   6.545   4.720 -1.8571 -0.3722  3.9648
   68OSM    C1F 5665   1.065   6.715   6.261 -0.8862 -1.1337  0.2099
   68OSM     OF 5666   1.110   6.602   6.270 -0.5425 -0.0919 -0.0794
   68OSM    C2F 5667   1.146   6.837   6.222  0.6323 -0.7569  0.2980
   68OSM    H2F 5668   1.214   6.852   6.308 -3.2463  0.9434  3.3457
   68OSM    H2G 5669   1.073   6.920   6.220  2.6617  1.1122 -1.2370
   68OSM    C3F 5670   1.236   6.833   6.095  0.7952  0.4920  0.4007
   68OSM    H3F 5671   1.291   6.739   6.072 -0.0263  0.2357 -0.6107
   68OSM    H3G 5672   1.316   6.907   6.115  0.6754  0.7752 -0.1700
   68OSM    C4F 5673   1.163   6.873   5.968 -0.4793  0.8157  0.4536
   68OSM    H4F 5674   1.101   6.962   5.988  1.7369  1.9288  2.9897
   68OSM    H4G 5675   1.095   6.789   5.941  1.1760 -0.9079  1.3506
   68OSM    C5F 5676   1.255   6.892   5.849  0.0609 -0.1513  0.5292
   68OSM    H5F 5677   1.300   6.793   5.829  1.1957  0.1690  1.4196
   68OSM    H5G 5678   1.332   6.968   5.874  0.0395 -0.3842  1.3400
   68OSM    C6F 5679   1.180   6.945   5.730  0.1487 -0.0968  0.2837
   68OSM    H6F 5680   1.139   7.047   5.750  0.4184  0.3137 -1.1373
   68OSM    H6G 5681   1.090   6.883   5.708  0.8875 -0.8873 -0.5985
   68OSM    C7F 5682   1.271   6.924   5.602  0.1448  0.1629 -0.1841
   68OSM    H7F 5683   1.313   6.821   5.598 -0.4676 -0.0791 -0.5119
   68OSM    H7G 5684   1.362   6.988   5.611  0.2717  0.0249 -0.4668
   68OSM    C8F 5685   1.197   6.950   5.471  0.1066 -0.3306  0.0442
   68OSM    H8F 5686   1.198   7.060   5.462 -1.3524 -0.2337  0.6612
   68OSM    H8G 5687   1.094   6.909   5.481  0.1015 -0.0737  1.1907
   68OSM    C9F 5688   1.265   6.885   5.353  0.1242  0.7130  0.4421
   68OSM    H9F 5689   1.273   6.776   5.365  2.1360  0.8569  0.6854
   68OSM   C10F 5690   1.287   6.935   5.227 -0.4919  0.5691  0.1527
   68OSM   H10F 5691   1.336   6.871   5.153  1.1243  0.2704  1.4223
   68OSM   C11F 5692   1.259   7.077   5.185 -0.0942 -0.0716 -0.2176
   68OSM   H11F 5693   1.357   7.121   5.158  1.1901 -2.6783 -0.1011
   68OSM   H11G 5694   1.228   7.135   5.275 -0.4574 -1.6783  0.7249
   68OSM   C12F 5695   1.160   7.086   5.066 -0.4725 -0.1897 -0.7821
   68OSM   H12F 5696   1.131   7.192   5.052  1.1799  0.3401 -0.3825
   68OSM   H12G 5697   1.071   7.023   5.088 -0.0387  0.1387  2.3759
   68OSM   C13F 5698   1.206   7.045   4.927  0.2784  0.3360  0.7061
   68OSM   H13F 5699   1.218   6.935   4.934 -1.1915  0.1644  0.6852
   68OSM   H13G 5700   1.302   7.097   4.906  0.9062 -0.2584  1.9754
   68OSM   C14F 5701   1.098   7.084   4.822  0.3501  0.0425 -0.4023
   68OSM   H14F 5702   1.097   7.194   4.807 -0.8943  0.5264  2.4782
   68OSM   H14G 5703   0.997   7.044   4.846 -0.5779  1.3296 -1.9388
   68OSM   C15F 5704   1.130   7.025   4.685 -0.7017  0.2074  0.5432
   68OSM   H15F 5705   1.137   6.915   4.694  0.3176  0.1645 -0.6458
   68OSM   H15G 5706   1.232   7.064   4.663 -0.7189  0.2525  0.5442
   68OSM   C16F 5707   1.028   7.044   4.566 -0.4182 -0.3618  0.2457
   68OSM   H16F 5708   1.026   7.150   4.532 -0.9069 -0.2899  0.4990
   68OSM   H16G 5709   0.928   7.012   4.601  0.0166 -0.5849  1.3080
   68OSM   C17F 5710   1.054   6.961   4.433 -0.6090  0.2340 -1.1223
   68OSM   H17F 5711   1.046   6.852   4.451  0.8029  0.5423  2.0779
   68OSM   H17G 5712   1.159   6.970   4.398 -0.4722 -0.0211 -0.7811
   68OSM   C18F 5713   0.962   6.986   4.322  0.6953  0.3681 -0.2170
   68OSM   H18F 5714   0.867   6.930   4.336  1.2401 -0.3694  0.5892
   68OSM   H18G 5715   1.011   6.960   4.226  1.7790  0.4949  0.2862
   68OSM   H18H 5716   0.938   7.094   4.332 -0.6767  0.2697 -1.9104
   69OSM      N 5717   1.279   6.397   6.680  0.0209  0.7455  0.7939
   69OSM    C15 5718   1.266   6.521   6.767 -0.3793 -0.1120  0.0426
   69OSM   H15A 5719   1.350   6.534   6.832  0.5630 -2.0846 -0.7002
   69OSM   H15B 5720   1.181   6.526   6.834  1.2076 -1.6876  2.3278
   69OSM   H15C 5721   1.269   6.610   6.706 -0.4388 -0.7934 -0.9825
   69OSM    C14 5722   1.245   6.271   6.751 -0.6196  0.2723  0.6332
   69OSM   H14A 5723   1.148   6.272   6.797 -1.0925 -0.6720 -0.3212
   69OSM   H14B 5724   1.320   6.242   6.823  0.0076 -2.1489 -0.8979
   69OSM   H14C 5725   1.254   6.190   6.681 -1.8415  0.3296  0.4032
   69OSM    C13 5726   1.184   6.420   6.565 -0.0658  0.4779 -0.7728
   69OSM   H13A 5727   1.084   6.433   6.603  0.0916 -0.6518  0.1018
   69OSM   H13B 5728   1.188   6.345   6.487 -1.5875  1.4674 -1.8583
   69OSM   H13C 5729   1.218   6.509   6.515 -1.4699  0.6539 -1.4374
   69OSM    C12 5730   1.423   6.384   6.629  0.1000 -0.4740  0.1886
   69OSM   H12A 5731   1.490   6.380   6.714  0.2910  1.0480  0.1364
   69OSM   H12B 5732   1.437   6.483   6.590  0.9961  0.1330  1.9673
   69OSM    C11 5733   1.460   6.276   6.523 -0.0131 -0.3475  0.5755
   69OSM   H11A 5734   1.558   6.305   6.480 -0.5075 -2.8296 -2.5096
   69OSM   H11B 5735   1.393   6.276   6.435  0.2748 -0.2683  0.3539
   69OSM      P 5736   1.581   6.084   6.648 -0.1664 -0.0876  0.0060
   69OSM    O13 5737   1.603   6.164   6.770  0.0581 -0.3155 -0.2063
   69OSM    O14 5738   1.568   5.937   6.651  0.6946  0.0752  0.1797
   69OSM    O11 5739   1.705   6.117   6.553  0.3548 -0.0529 -0.2820
   69OSM    O12 5740   1.457   6.143   6.571 -0.0448 -0.2252 -0.0340
   69OSM    C1S 5741   1.739   6.044   6.432  0.7160  0.0546 -0.3154
   69OSM    H1S 5742   1.655   6.001   6.374  0.2438  0.0287  0.3677
   69OSM    H1T 5743   1.801   5.955   6.458  1.1842 -0.4941 -3.0574
   69OSM     NF 5744   1.807   6.076   6.200 -0.4756  0.7131  0.6683
   69OSM    HNF 5745   1.886   6.019   6.179 -0.4094  0.2051  2.2328
   69OSM    C2S 5746   1.810   6.133   6.329 -0.0185 -0.2305 -0.3432
   69OSM    H2S 5747   1.750   6.225   6.317  0.3896 -0.0751 -1.2967
   69OSM    C3S 5748   1.949   6.188   6.385  0.4257  0.3991  0.2698
   69OSM    H3S 5749   2.011   6.098   6.407  0.6209  0.4912  0.0988
   69OSM     O3 5750   1.950   6.244   6.518 -0.0115  0.2068  0.0766
   69OSM    HO3 5751   1.862   6.231   6.553  0.1475 -0.2169  0.3199
   69OSM    C4S 5752   2.003   6.279   6.279 -0.0187  0.2238  0.7671
   69OSM    H4S 5753   2.072   6.233   6.206 -0.9598 -0.7903  0.4814
   69OSM    C5S 5754   1.964   6.405   6.256 -0.2191  0.2615  0.0247
   69OSM    H5S 5755   1.881   6.448   6.314  0.7170  1.8600  0.2056
   69OSM    C6S 5756   2.014   6.490   6.139  0.7807  0.1128 -0.9358
   69OSM    H6S 5757   2.124   6.504   6.148  1.0027 -2.3157  1.9654
   69OSM    H6T 5758   1.950   6.581   6.140  0.3696 -0.1775 -0.6667
   69OSM    C7S 5759   1.990   6.420   6.002 -0.3227  0.3741  0.2874
   69OSM    H7S 5760   1.881   6.410   5.980  0.0253  0.4324 -1.5685
   69OSM    H7T 5761   2.041   6.322   5.996  0.7090  0.8021  1.5540
   69OSM    C8S 5762   2.027   6.521   5.894  0.0452  0.0952  0.2390
   69OSM    H8S 5763   1.954   6.604   5.896  0.1975  0.3138 -1.8477
   69OSM    H8T 5764   2.011   6.474   5.795 -1.8133  0.0904  0.5074
   69OSM    C9S 5765   2.163   6.581   5.908  0.0516  0.0821 -0.2535
   69OSM    H9S 5766   2.240   6.508   5.943  0.2926  0.0671 -0.8096
   69OSM    H9T 5767   2.157   6.669   5.977 -0.3202  0.1712 -0.4012
   69OSM   C10S 5768   2.222   6.642   5.778 -0.6623 -0.1313 -0.4679
   69OSM   H10S 5769   2.144   6.717   5.750  0.1636  0.6325 -0.7546
   69OSM   H10T 5770   2.238   6.568   5.697  3.2154  0.2059 -0.1717
   69OSM   C11S 5771   2.355   6.715   5.807 -0.3785 -0.0044  0.2521
   69OSM   H11S 5772   2.427   6.636   5.839 -1.7804 -1.7481 -0.7251
   69OSM   H11T 5773   2.346   6.798   5.879  3.2954  2.5220 -1.8894
   69OSM   C12S 5774   2.404   6.771   5.674 -0.5421 -0.1811 -0.3907
   69OSM   H12S 5775   2.403   6.690   5.598  0.4626  0.3871 -1.0206
   69OSM   H12T 5776   2.513   6.783   5.688 -0.8171  0.1430  1.7280
   69OSM   C13S 5777   2.342   6.900   5.625  0.3853 -0.6578 -0.8397
   69OSM   H13S 5778   2.362   6.974   5.706 -1.6723 -1.2944  0.3112
   69OSM   H13T 5779   2.232   6.890   5.614 -0.1133  2.8232 -0.2082
   69OSM   C14S 5780   2.405   6.948   5.495  0.1177 -0.1064 -0.2661
   69OSM   H14S 5781   2.351   7.039   5.462  1.6919  0.8438 -0.3450
   69OSM   H14T 5782   2.379   6.866   5.425  1.4232  0.5030 -1.5160
   69OSM   C15S 5783   2.554   6.987   5.501  0.5339 -0.0360 -0.0615
   69OSM   H15S 5784   2.605   6.890   5.516 -0.1867 -0.3755  0.2469
   69OSM   H15T 5785   2.580   7.062   5.578 -2.2619  1.6191 -0.5666
   69OSM   C16S 5786   2.604   7.043   5.365  0.0822  0.4886  0.0569
   69OSM   H16S 5787   2.711   7.069   5.373  0.4789 -0.7639 -0.8557
   69OSM   H16T 5788   2.556   7.143   5.349 -2.5255 -0.5867  0.5690
   69OSM   C17S 5789   2.587   6.956   5.244  0.4883  0.5762  0.5625
   69OSM   H17S 5790   2.628   6.998   5.150 -0.4548  0.6542  0.1772
   69OSM   H17T 5791   2.479   6.948   5.220  0.9534  0.9048 -1.8445
   69OSM   C18S 5792   2.643   6.806   5.253  0.2706 -0.9636 -0.5567
   69OSM   H18S 5793   2.736   6.808   5.315  0.5085  2.3297 -0.8766
   69OSM   H18T 5794   2.654   6.738   5.165 -0.9835 -3.4235  1.0736
   69OSM   H18U 5795   2.567   6.752   5.313 -0.7955  1.2716  0.1930
   69OSM    C1F 5796   1.700   6.066   6.124  0.5427  0.5921  0.5914
   69OSM     OF 5797   1.591   6.122   6.143 -0.3650  0.2130  0.6053
   69OSM    C2F 5798   1.714   5.975   6.008  0.7532  0.0025  0.0332
   69OSM    H2F 5799   1.650   5.885   6.019  0.9254  0.0460  1.7945
   69OSM    H2G 5800   1.819   5.940   6.006  0.9241  0.3698  1.3325
   69OSM    C3F 5801   1.677   6.042   5.867  0.0871  0.1323  0.7670
   69OSM    H3F 5802   1.578   6.087   5.887 -0.0414  0.3195 -0.2517
   69OSM    H3G 5803   1.671   5.957   5.797  1.0983  1.3897 -0.9299
   69OSM    C4F 5804   1.776   6.145   5.804  0.6481  0.1281 -0.1643
   69OSM    H4F 5805   1.818   6.206   5.887 -1.4454  1.3555  0.0596
   69OSM    H4G 5806   1.723   6.213   5.733  0.5194  0.8198  0.5779
   69OSM    C5F 5807   1.897   6.084   5.739  0.1450  0.1479 -0.3247
   69OSM    H5F 5808   1.868   5.995   5.679  1.0473  0.1289 -0.7476
   69OSM    H5G 5809   1.976   6.065   5.815 -0.3584 -2.5006 -0.3391
   69OSM    C6F 5810   1.967   6.180   5.642 -0.4761  0.0930 -0.3652
   69OSM    H6F 5811   2.048   6.122   5.593  1.8167  2.0296  0.9078
   69OSM    H6G 5812   2.012   6.262   5.702  0.0944 -1.6266  1.6814
   69OSM    C7F 5813   1.885   6.247   5.530 -0.0547 -0.7298 -0.2746
   69OSM    H7F 5814   1.950   6.303   5.459 -0.6263 -1.0963 -1.1089
   69OSM    H7G 5815   1.822   6.324   5.580 -1.5536 -0.5659 -2.2495
   69OSM    C8F 5816   1.790   6.152   5.454 -0.3447 -0.5115  0.7756
   69OSM    H8F 5817   1.699   6.206   5.422 -0.0612  0.5780  1.7521
   69OSM    H8G 5818   1.751   6.081   5.530  0.1523 -0.7224  0.8388
   69OSM    C9F 5819   1.864   6.072   5.348 -0.2274  0.3789 -0.2554
   69OSM    H9F 5820   1.931   5.993   5.386 -1.7397 -0.8703 -0.0780
   69OSM   C10F 5821   1.843   6.090   5.213  0.0887  0.1109  0.3564
   69OSM   H10F 5822   1.899   6.025   5.144 -2.4019  1.0437 -2.7644
   69OSM   C11F 5823   1.745   6.188   5.145 -0.2349 -0.4116 -0.2821
   69OSM   H11F 5824   1.763   6.290   5.186 -1.0042 -0.2229 -0.3982
   69OSM   H11G 5825   1.645   6.146   5.171 -0.2800  0.1560  0.5335
   69OSM   C12F 5826   1.741   6.193   4.990  0.6592  0.2553  0.8510
   69OSM   H12F 5827   1.697   6.292   4.965 -2.9600 -0.8163  2.3395
   69OSM   H12G 5828   1.676   6.115   4.944  1.7802  0.5795 -1.4077
   69OSM   C13F 5829   1.869   6.200   4.913 -0.1544 -0.3124 -0.1633
   69OSM   H13F 5830   1.951   6.164   4.979  1.1587  0.0212 -1.5601
   69OSM   H13G 5831   1.904   6.306   4.908  2.1261 -1.0661 -2.8911
   69OSM   C14F 5832   1.876   6.154   4.769 -0.2261  0.6055 -0.1443
   69OSM   H14F 5833   1.790   6.188   4.708  1.8607  0.9718 -3.1226
   69OSM   H14G 5834   1.869   6.043   4.777  0.9629  0.5781  0.8147
   69OSM   C15F 5835   1.994   6.209   4.686  0.7403  0.0236 -0.4286
   69OSM   H15F 5836   2.010   6.141   4.599  1.1557  0.2673 -0.5418
   69OSM   H15G 5837   2.081   6.206   4.755  0.8664  2.8324 -0.3820
   69OSM   C16F 5838   1.973   6.355   4.637 -0.0184  0.7258  0.3895
   69OSM   H16F 5839   1.941   6.407   4.729  0.3775  0.3183  0.7611
   69OSM   H16G 5840   1.886   6.369   4.568 -1.7618 -0.1890  2.2741
   69OSM   C17F 5841   2.091   6.414   4.569 -0.6584  0.2125 -0.1725
   69OSM   H17F 5842   2.175   6.403   4.642 -2.3279 -1.4303  1.6228
   69OSM   H17G 5843   2.079   6.523   4.556  1.1595  0.4737  0.0573
   69OSM   C18F 5844   2.130   6.348   4.437  0.6911  0.0244 -0.3801
   69OSM   H18F 5845   2.166   6.244   4.454 -0.0625 -0.6456 -2.5756
   69OSM   H18G 5846   2.210   6.405   4.383 -0.7740  2.1316 -0.4247
   69OSM   H18H 5847   2.042   6.345   4.369  0.5916 -0.1321 -0.2420
   70OSM      N 5848   6.710   6.205   6.841  0.4603 -0.1348  0.5161
   70OSM    C15 5849   6.620   6.242   6.953  0.0792  0.0750  0.3457
   70OSM   H15A 5850   6.538   6.294   6.907  0.2224 -0.9535 -1.1876
   70OSM   H15B 5851   6.669   6.312   7.018 -1.4085  1.3892  0.1050
   70OSM   H15C 5852   6.577   6.160   7.009 -1.1470  0.4974  0.0396
   70OSM    C14 5853   6.778   6.323   6.779  0.0633 -0.6839  0.6661
   70OSM   H14A 5854   6.712   6.387   6.723  0.9269  0.9396  1.4306
   70OSM   H14B 5855   6.856   6.289   6.712 -0.1425 -2.5123  1.3049
   70OSM   H14C 5856   6.809   6.400   6.849  0.8513  2.0280 -2.4186
   70OSM    C13 5857   6.810   6.104   6.890 -0.2793  0.0853 -0.2661
   70OSM   H13A 5858   6.882   6.170   6.938 -1.5425  1.5657 -0.3217
   70OSM   H13B 5859   6.855   6.048   6.809 -1.2618  1.7150 -2.0164
   70OSM   H13C 5860   6.770   6.039   6.966 -0.5724  0.6280  0.0498
   70OSM    C12 5861   6.626   6.143   6.733 -0.6968  0.5248  0.0869
   70OSM   H12A 5862   6.592   6.047   6.769 -2.4367  1.0524 -0.0744
   70OSM   H12B 5863   6.692   6.118   6.651  0.5374 -1.1427  1.5017
   70OSM    C11 5864   6.500   6.220   6.672 -0.2776 -0.0458 -0.2685
   70OSM   H11A 5865   6.417   6.227   6.745 -0.4199 -0.1242 -0.4215
   70OSM   H11B 5866   6.467   6.155   6.588 -0.8066 -1.3258  0.8803
   70OSM      P 5867   6.418   6.436   6.571 -0.0110  0.2736  0.2942
   70OSM    O13 5868   6.300   6.343   6.569  0.0547 -0.2034  0.3905
   70OSM    O14 5869   6.425   6.560   6.651 -0.0972 -0.0145 -0.7092
   70OSM    O11 5870   6.458   6.485   6.420 -0.4167  0.1933  0.1093
   70OSM    O12 5871   6.541   6.345   6.614 -0.3521 -0.1068 -0.1138
   70OSM    C1S 5872   6.577   6.566   6.400 -0.9397  0.4542  1.3665
   70OSM    H1S 5873   6.663   6.513   6.446  0.2822 -0.3733 -1.6276
   70OSM    H1T 5874   6.559   6.672   6.429 -1.5548  1.0330 -0.9516
   70OSM     NF 5875   6.729   6.634   6.218 -0.5825  0.0375  0.2077
   70OSM    HNF 5876   6.729   6.713   6.157 -0.8676 -0.1329 -0.0186
   70OSM    C2S 5877   6.599   6.573   6.244 -0.4009  0.4005 -0.4398
   70OSM    H2S 5878   6.602   6.471   6.199 -0.3194 -0.5504  1.6086
   70OSM    C3S 5879   6.479   6.631   6.158 -0.3447  0.7654  1.1447
   70OSM    H3S 5880   6.489   6.740   6.175  1.9056  0.6009  1.0853
   70OSM     O3 5881   6.349   6.595   6.206 -0.2060 -0.1196  0.4845
   70OSM    HO3 5882   6.366   6.530   6.274  1.4615 -0.9422 -0.6628
   70OSM    C4S 5883   6.499   6.609   6.010  0.0635 -1.0720  0.0362
   70OSM    H4S 5884   6.544   6.698   5.964 -0.8089 -1.1777 -1.0486
   70OSM    C5S 5885   6.465   6.506   5.929 -0.3254  0.1588 -0.0070
   70OSM    H5S 5886   6.408   6.429   5.983  1.8031  1.1638  3.9877
   70OSM    C6S 5887   6.489   6.503   5.779  0.3216 -0.1539 -0.0355
   70OSM    H6S 5888   6.393   6.483   5.727 -0.3570  1.0701  0.6828
   70OSM    H6T 5889   6.556   6.420   5.747 -1.9604 -1.7597 -0.8635
   70OSM    C7S 5890   6.540   6.634   5.718  0.4155  0.0813  0.4325
   70OSM    H7S 5891   6.639   6.651   5.765  0.7736 -0.4613 -0.1025
   70OSM    H7T 5892   6.462   6.713   5.726  2.0163  1.6571  1.0900
   70OSM    C8S 5893   6.556   6.635   5.566 -0.1199  0.4595  0.5524
   70OSM    H8S 5894   6.553   6.742   5.537 -0.6774 -0.0795 -1.5682
   70OSM    H8T 5895   6.465   6.589   5.522 -1.0603  0.8926  1.9833
   70OSM    C9S 5896   6.692   6.584   5.515  1.1132 -0.4102 -0.7177
   70OSM    H9S 5897   6.710   6.479   5.546  1.3326 -1.5577 -4.2508
   70OSM    H9T 5898   6.763   6.655   5.562 -0.2106  1.7765 -1.8499
   70OSM   C10S 5899   6.691   6.578   5.359  0.1219  0.4077 -1.4417
   70OSM   H10S 5900   6.603   6.518   5.329 -0.4094  0.3028  0.2317
   70OSM   H10T 5901   6.786   6.529   5.329  0.0394 -0.1379 -0.8190
   70OSM   C11S 5902   6.685   6.713   5.286  0.0192 -0.4075  0.0035
   70OSM   H11S 5903   6.779   6.768   5.307 -0.5795  0.9597 -0.7677
   70OSM   H11T 5904   6.599   6.770   5.327  0.2910 -1.8504  2.7697
   70OSM   C12S 5905   6.663   6.714   5.135  0.1278  0.9732 -0.5641
   70OSM   H12S 5906   6.568   6.663   5.109 -0.1831  1.5481 -0.5910
   70OSM   H12T 5907   6.738   6.659   5.075 -1.6328 -1.4875 -0.6339
   70OSM   C13S 5908   6.679   6.852   5.076 -0.1154  0.3409  0.5370
   70OSM   H13S 5909   6.783   6.880   5.105  0.7418 -1.1842 -0.8682
   70OSM   H13T 5910   6.606   6.928   5.111  0.5847  1.1016  0.3947
   70OSM   C14S 5911   6.684   6.856   4.920  0.0645 -0.4081  0.0119
   70OSM   H14S 5912   6.761   6.792   4.871  0.0491  0.9829 -1.9683
   70OSM   H14T 5913   6.724   6.955   4.888  0.6490 -0.5865  0.1782
   70OSM   C15S 5914   6.559   6.825   4.854  0.0427 -0.3115 -0.0370
   70OSM   H15S 5915   6.484   6.904   4.877 -0.9209 -1.3960  0.6712
   70OSM   H15T 5916   6.521   6.729   4.897  0.5487 -0.1244  0.8617
   70OSM   C16S 5917   6.567   6.808   4.701  0.1183  0.1317 -0.3763
   70OSM   H16S 5918   6.465   6.784   4.662 -1.2722  0.2584  2.8632
   70OSM   H16T 5919   6.639   6.728   4.676  0.2980 -0.4014  1.6513
   70OSM   C17S 5920   6.641   6.923   4.627  0.2797  0.5613  0.0442
   70OSM   H17S 5921   6.742   6.919   4.671  0.9352 -1.7295 -1.4677
   70OSM   H17T 5922   6.603   7.021   4.664 -0.2116 -0.6957  3.2248
   70OSM   C18S 5923   6.646   6.914   4.470 -1.0655  0.2765  0.1417
   70OSM   H18S 5924   6.714   6.996   4.440 -0.5103  0.0628  0.7928
   70OSM   H18T 5925   6.542   6.918   4.431 -0.7813 -0.5624 -0.7160
   70OSM   H18U 5926   6.707   6.825   4.445  0.6626  0.9928  1.5635
   70OSM    C1F 5927   6.848   6.587   6.264  0.0042 -0.3339 -0.6867
   70OSM     OF 5928   6.858   6.482   6.330  0.1998 -0.2345  0.2043
   70OSM    C2F 5929   6.973   6.670   6.229 -0.0447 -0.3322 -0.1291
   70OSM    H2F 5930   7.036   6.671   6.321 -0.6479  2.5830  0.3626
   70OSM    H2G 5931   6.949   6.776   6.208  0.4849 -0.6343 -2.4831
   70OSM    C3F 5932   7.044   6.601   6.106 -0.6225 -0.4313 -0.4762
   70OSM    H3F 5933   7.082   6.505   6.147 -1.6953 -1.9847 -2.9094
   70OSM    H3G 5934   7.127   6.669   6.074 -0.1903 -0.3484  0.7631
   70OSM    C4F 5935   6.974   6.575   5.970 -0.4001 -0.3356 -0.1528
   70OSM    H4F 5936   6.930   6.672   5.938  0.1427 -0.2961 -0.7923
   70OSM    H4G 5937   6.903   6.492   5.991 -1.0040  0.1446 -0.2610
   70OSM    C5F 5938   7.061   6.537   5.844  0.3453 -0.6000 -0.5788
   70OSM    H5F 5939   7.109   6.437   5.852  3.0893  0.7712  1.8503
   70OSM    H5G 5940   7.150   6.603   5.837 -1.1520  1.6982  0.8230
   70OSM    C6F 5941   6.979   6.539   5.709 -0.0982 -0.4775 -0.4523
   70OSM    H6F 5942   6.952   6.643   5.681 -0.5600  0.0718  1.8192
   70OSM    H6G 5943   6.884   6.493   5.744 -0.3111  1.7049  2.1864
   70OSM    C7F 5944   7.041   6.453   5.600 -0.5597  0.0154 -0.5357
   70OSM    H7F 5945   6.961   6.422   5.529 -0.6557  1.2126 -0.9726
   70OSM    H7G 5946   7.091   6.366   5.646 -1.6180 -0.4344 -0.1949
   70OSM    C8F 5947   7.138   6.530   5.507 -0.4341 -0.2067  0.2283
   70OSM    H8F 5948   7.191   6.457   5.442 -1.7314  1.7660 -3.3145
   70OSM    H8G 5949   7.211   6.592   5.564  0.9111  0.5081 -2.1302
   70OSM    C9F 5950   7.052   6.629   5.425  0.1671  0.3793  0.0872
   70OSM    H9F 5951   6.972   6.678   5.482  0.9870  0.2170  1.4085
   70OSM   C10F 5952   7.074   6.665   5.295  0.3060 -0.1681 -0.3941
   70OSM   H10F 5953   6.999   6.729   5.246 -1.5973  0.4358  2.9647
   70OSM   C11F 5954   7.192   6.629   5.199 -0.2379 -0.5301  0.0103
   70OSM   H11F 5955   7.155   6.617   5.095 -0.6661 -0.4635  0.1524
   70OSM   H11G 5956   7.232   6.532   5.237 -1.0758 -0.6519  0.6231
   70OSM   C12F 5957   7.300   6.735   5.190  0.0140  0.1151 -0.7152
   70OSM   H12F 5958   7.391   6.697   5.139 -0.4493  0.7909 -2.1282
   70OSM   H12G 5959   7.339   6.760   5.290 -2.3231 -0.6854  0.4647
   70OSM   C13F 5960   7.253   6.867   5.118 -0.0833 -0.0649 -0.1789
   70OSM   H13F 5961   7.166   6.911   5.170  0.1906  2.9103 -2.0186
   70OSM   H13G 5962   7.219   6.855   5.013  1.7426  1.2548 -0.9837
   70OSM   C14F 5963   7.364   6.970   5.113  0.0716 -0.0641  0.3647
   70OSM   H14F 5964   7.430   6.969   5.202 -0.9260  0.4337  1.1349
   70OSM   H14G 5965   7.323   7.072   5.099 -0.1193 -0.1199  0.5060
   70OSM   C15F 5966   7.460   6.941   4.986  0.4020 -0.3632  0.3476
   70OSM   H15F 5967   7.496   6.836   4.990 -0.5616 -0.9626 -3.5016
   70OSM   H15G 5968   7.546   7.011   4.997 -0.1751  0.1595  1.7653
   70OSM   C16F 5969   7.407   6.972   4.841  0.1383  0.1432  0.2764
   70OSM   H16F 5970   7.339   7.058   4.855 -0.3230  0.1813 -1.8514
   70OSM   H16G 5971   7.355   6.880   4.807  0.8665  0.1071 -0.8422
   70OSM   C17F 5972   7.515   7.028   4.744  0.3688 -0.2011 -0.1684
   70OSM   H17F 5973   7.595   6.951   4.748  1.6619  1.1524  1.6207
   70OSM   H17G 5974   7.569   7.117   4.782 -0.5512  0.5436 -0.5663
   70OSM   C18F 5975   7.461   7.045   4.609 -0.2276  0.3016 -0.3409
   70OSM   H18F 5976   7.406   7.141   4.596  2.4820  2.1918  1.3093
   70OSM   H18G 5977   7.406   6.951   4.583  0.5758  0.1047 -1.3738
   70OSM   H18H 5978   7.543   7.053   4.535 -1.1920  1.1085 -1.3575
   71OSM      N 5979   5.671   0.828   6.646 -0.3722  0.7627  0.5505
   71OSM    C15 5980   5.643   0.858   6.788  0.3995  0.0188  0.0969
   71OSM   H15A 5981   5.662   0.963   6.805 -0.0857  0.2999 -1.0127
   71OSM   H15B 5982   5.695   0.792   6.856 -1.1174  0.4587  1.7666
   71OSM   H15C 5983   5.541   0.833   6.812  0.0390  2.2032  1.1493
   71OSM    C14 5984   5.823   0.840   6.633  0.0815 -0.2133  0.7395
   71OSM   H14A 5985   5.851   0.937   6.672  0.3453  0.4176 -0.9337
   71OSM   H14B 5986   5.848   0.845   6.528  0.5537 -0.6199  0.8261
   71OSM   H14C 5987   5.872   0.759   6.686  1.4965 -0.0654 -0.2816
   71OSM    C13 5988   5.619   0.687   6.615 -0.2533 -0.1854 -0.1384
   71OSM   H13A 5989   5.670   0.617   6.679 -0.7629 -0.8775 -0.4910
   71OSM   H13B 5990   5.650   0.662   6.514  0.1437  1.4790 -0.4657
   71OSM   H13C 5991   5.512   0.672   6.616 -0.0076 -2.1834 -0.6742
   71OSM    C12 5992   5.613   0.934   6.555 -0.0779  0.2556  0.0308
   71OSM   H12A 5993   5.505   0.931   6.564  0.0206 -2.3730  1.3594
   71OSM   H12B 5994   5.637   0.904   6.454  1.5511  1.2893  0.0887
   71OSM    C11 5995   5.670   1.076   6.563  0.0226 -0.1109  0.2912
   71OSM   H11A 5996   5.663   1.116   6.666  3.3574 -0.1234  0.6344
   71OSM   H11B 5997   5.600   1.137   6.501 -1.7822 -0.5196  1.8318
   71OSM      P 5998   5.851   1.215   6.446  0.3783 -0.5216 -0.5282
   71OSM    O13 5999   5.749   1.320   6.478 -0.4795  0.0333  1.0243
   71OSM    O14 6000   5.993   1.235   6.487 -0.2855  0.2624  0.0427
   71OSM    O11 6001   5.848   1.200   6.287 -0.2098  0.2022 -0.0672
   71OSM    O12 6002   5.807   1.080   6.514  0.6227 -0.1692 -0.1234
   71OSM    C1S 6003   5.750   1.126   6.219 -0.0895  0.3431  0.5003
   71OSM    H1S 6004   5.687   1.069   6.291 -0.0449 -0.9879 -0.4923
   71OSM    H1T 6005   5.800   1.048   6.158 -0.8145 -1.0894  1.6707
   71OSM     NF 6006   5.548   1.143   6.081  0.1650  0.0665 -0.0391
   71OSM    HNF 6007   5.542   1.095   5.994  0.0069  0.0042  0.0048
   71OSM    C2S 6008   5.663   1.216   6.120  0.4582  0.6368  0.7200
   71OSM    H2S 6009   5.625   1.307   6.171  0.0224  1.1902 -0.5505
   71OSM    C3S 6010   5.744   1.276   5.999  0.6936  0.1334  0.3352
   71OSM    H3S 6011   5.786   1.186   5.950 -0.4492 -1.2309  1.7519
   71OSM     O3 6012   5.856   1.352   6.042 -0.0294  0.1078  0.1538
   71OSM    HO3 6013   5.855   1.337   6.137  2.4659 -0.2936  0.1825
   71OSM    C4S 6014   5.653   1.349   5.908  0.0029  0.4125  0.0710
   71OSM    H4S 6015   5.595   1.425   5.962 -0.7188  0.4840 -0.7747
   71OSM    C5S 6016   5.643   1.335   5.775  0.4655 -0.3345  0.3916
   71OSM    H5S 6017   5.692   1.259   5.714  0.1076 -0.5979  0.4290
   71OSM    C6S 6018   5.540   1.415   5.693  1.0112  0.4263  0.2525
   71OSM    H6S 6019   5.569   1.522   5.684  1.7843  0.1955 -0.0967
   71OSM    H6T 6020   5.437   1.417   5.736  0.4949  2.2789 -0.9524
   71OSM    C7S 6021   5.532   1.358   5.554 -0.1048 -0.6113  0.8087
   71OSM    H7S 6022   5.451   1.408   5.497  2.9094  0.3292 -3.1183
   71OSM    H7T 6023   5.521   1.248   5.550 -1.2493 -0.4793 -2.0427
   71OSM    C8S 6024   5.655   1.392   5.464 -0.4143 -0.1908  0.1177
   71OSM    H8S 6025   5.736   1.319   5.482  1.5898  1.8654 -0.0344
   71OSM    H8T 6026   5.695   1.494   5.485  0.2013 -0.2974 -0.5050
   71OSM    C9S 6027   5.619   1.385   5.316 -0.0186 -0.2641 -0.9213
   71OSM    H9S 6028   5.525   1.442   5.296  0.8264  2.7278  2.5419
   71OSM    H9T 6029   5.607   1.280   5.281 -1.3551 -0.4221 -0.0844
   71OSM   C10S 6030   5.732   1.449   5.238  0.9042 -0.2966 -0.1093
   71OSM   H10S 6031   5.813   1.376   5.220  0.3295 -1.4383  1.6575
   71OSM   H10T 6032   5.787   1.529   5.293  1.1971  1.2122 -2.4574
   71OSM   C11S 6033   5.688   1.514   5.104 -0.7075 -0.2593 -0.0365
   71OSM   H11S 6034   5.783   1.522   5.046 -0.1947 -3.0881  0.2235
   71OSM   H11T 6035   5.640   1.612   5.123  0.7929  0.7270 -1.0420
   71OSM   C12S 6036   5.595   1.421   5.028  0.7111 -0.0301  0.4532
   71OSM   H12S 6037   5.492   1.437   5.065  0.3225  2.0992 -1.3269
   71OSM   H12T 6038   5.628   1.317   5.048  0.0572 -0.4468 -0.5602
   71OSM   C13S 6039   5.575   1.451   4.877 -0.6604  0.2124 -0.4488
   71OSM   H13S 6040   5.505   1.382   4.827 -0.3234  1.7062 -3.2119
   71OSM   H13T 6041   5.672   1.427   4.829  0.8958 -1.0004  3.0006
   71OSM   C14S 6042   5.543   1.597   4.845 -0.4635 -0.9538  0.1128
   71OSM   H14S 6043   5.621   1.670   4.873 -1.1960  0.8323 -2.1498
   71OSM   H14T 6044   5.444   1.623   4.889 -0.4536 -1.6992  0.5895
   71OSM   C15S 6045   5.526   1.609   4.692 -0.1009  0.3663  0.3374
   71OSM   H15S 6046   5.447   1.540   4.656  0.8262  0.1305 -1.3022
   71OSM   H15T 6047   5.620   1.587   4.639 -0.2476  1.3023 -0.3487
   71OSM   C16S 6048   5.487   1.749   4.653 -0.1714 -0.6219  0.1206
   71OSM   H16S 6049   5.467   1.809   4.744  2.5868  0.0450  0.3676
   71OSM   H16T 6050   5.397   1.745   4.588  0.6119 -2.5924 -0.9506
   71OSM   C17S 6051   5.601   1.829   4.589  0.0773 -0.4876  0.0262
   71OSM   H17S 6052   5.651   1.768   4.511  0.9392  1.7622 -1.2984
   71OSM   H17T 6053   5.684   1.853   4.658  0.1334  1.9501 -0.7582
   71OSM   C18S 6054   5.549   1.960   4.515 -0.6814  0.5173  0.7141
   71OSM   H18S 6055   5.489   2.025   4.582 -2.0679 -0.9494  0.9388
   71OSM   H18T 6056   5.483   1.924   4.433  0.7440  0.3417 -0.3996
   71OSM   H18U 6057   5.637   2.015   4.474 -0.4565 -1.8697 -2.3529
   71OSM    C1F 6058   5.458   1.107   6.171  0.0339  0.0332 -0.2405
   71OSM     OF 6059   5.456   1.155   6.279  0.3000 -0.4485 -0.2715
   71OSM    C2F 6060   5.364   0.996   6.133  0.1212  0.3177 -0.6148
   71OSM    H2F 6061   5.272   1.043   6.090 -0.7568 -1.4281 -0.7615
   71OSM    H2G 6062   5.338   0.937   6.224 -1.2568  1.3432 -0.3107
   71OSM    C3F 6063   5.411   0.889   6.027  0.2534 -0.1589  0.0559
   71OSM    H3F 6064   5.435   0.937   5.930  2.5502  0.5621  0.9251
   71OSM    H3G 6065   5.314   0.839   6.005 -0.0426  0.0949  0.7314
   71OSM    C4F 6066   5.513   0.790   6.078 -0.5336 -0.1866 -0.2251
   71OSM    H4F 6067   5.484   0.725   6.163  3.1013 -1.1220  0.4482
   71OSM    H4G 6068   5.600   0.847   6.117  0.4865 -1.9393  0.1365
   71OSM    C5F 6069   5.551   0.683   5.977  0.0084  0.5779 -0.3409
   71OSM    H5F 6070   5.471   0.612   5.946 -0.7503 -0.0705  2.7545
   71OSM    H5G 6071   5.625   0.617   6.026  0.1251  0.5450 -0.5600
   71OSM    C6F 6072   5.619   0.729   5.853  0.2910  0.1123 -0.2298
   71OSM    H6F 6073   5.554   0.798   5.797 -1.6700  0.0998  1.8831
   71OSM    H6G 6074   5.636   0.645   5.782 -1.2216  0.0671 -0.5713
   71OSM    C7F 6075   5.757   0.801   5.875 -0.2624  0.0706  0.1442
   71OSM    H7F 6076   5.826   0.737   5.933  1.5685 -0.0074 -1.9953
   71OSM    H7G 6077   5.743   0.889   5.942  2.1223 -0.1459  1.0261
   71OSM    C8F 6078   5.831   0.836   5.738 -0.0497 -0.1405  0.6395
   71OSM    H8F 6079   5.856   0.739   5.690 -0.4151 -0.6074  1.3675
   71OSM    H8G 6080   5.920   0.894   5.767  0.0694  0.4825 -0.8708
   71OSM    C9F 6081   5.741   0.917   5.648  0.3637 -0.9259 -0.5884
   71OSM    H9F 6082   5.634   0.919   5.671  0.6131  1.6146  0.7318
   71OSM   C10F 6083   5.781   1.009   5.562 -0.2740 -0.3137  0.0467
   71OSM   H10F 6084   5.704   1.065   5.506  0.3314  2.5241  1.8428
   71OSM   C11F 6085   5.924   1.050   5.532 -0.2679  0.1452  0.3043
   71OSM   H11F 6086   6.000   1.001   5.597 -0.9596 -0.8077  0.4092
   71OSM   H11G 6087   5.935   1.159   5.549 -0.9287  0.2513  0.0813
   71OSM   C12F 6088   5.962   0.999   5.392 -0.4111  0.3575  0.4030
   71OSM   H12F 6089   5.937   0.891   5.377  0.9171  0.0043  0.5983
   71OSM   H12G 6090   6.072   1.002   5.381 -0.3870  1.2694  0.8141
   71OSM   C13F 6091   5.886   1.069   5.282  0.5713 -0.2783 -0.4532
   71OSM   H13F 6092   5.880   1.180   5.295 -0.4472 -0.2242 -1.3097
   71OSM   H13G 6093   5.785   1.023   5.282  1.1027 -1.4990 -1.6663
   71OSM   C14F 6094   5.934   1.031   5.139  0.5334 -0.2838  0.1344
   71OSM   H14F 6095   5.922   0.922   5.121  0.5563 -0.3113  0.2863
   71OSM   H14G 6096   6.043   1.050   5.137  0.1081  2.9229  1.3061
   71OSM   C15F 6097   5.863   1.115   5.033 -0.2224 -0.3146 -0.0940
   71OSM   H15F 6098   5.880   1.223   5.053 -0.4072 -0.2339 -0.3724
   71OSM   H15G 6099   5.756   1.092   5.049 -0.1582 -0.1895  0.5356
   71OSM   C16F 6100   5.899   1.081   4.891 -0.7398 -0.1797  0.5230
   71OSM   H16F 6101   5.866   0.980   4.861 -2.8306  0.5730  0.1517
   71OSM   H16G 6102   6.010   1.081   4.879 -0.8376  0.6712 -0.5113
   71OSM   C17F 6103   5.840   1.185   4.794  0.3758 -0.0831 -0.2791
   71OSM   H17F 6104   5.872   1.289   4.814 -0.3670 -0.1748  1.6438
   71OSM   H17G 6105   5.730   1.187   4.809  0.2736  1.0169 -1.0634
   71OSM   C18F 6106   5.865   1.140   4.649  0.0998 -0.0463 -0.1153
   71OSM   H18F 6107   5.810   1.048   4.619  2.4358 -1.3299 -0.6499
   71OSM   H18G 6108   5.970   1.105   4.641  0.0291 -1.6397  3.7448
   71OSM   H18H 6109   5.843   1.222   4.578  0.5388 -0.1400 -0.3606
   72OSM      N 6110   0.204   0.009   6.787 -0.9245  0.3854  0.9721
   72OSM    C15 6111   0.343   0.036   6.729  0.0376 -0.0422 -0.5802
   72OSM   H15A 6112   0.379  -0.055   6.683  0.2602 -0.2539  0.0055
   72OSM   H15B 6113   0.408   0.072   6.807 -1.6464 -0.7993  1.2668
   72OSM   H15C 6114   0.333   0.109   6.651 -2.1973  0.0282 -0.2821
   72OSM    C14 6115   0.207  -0.104   6.883 -0.7660 -0.6756  0.4084
   72OSM   H14A 6116   0.110  -0.146   6.905  0.1094 -3.6255 -0.9620
   72OSM   H14B 6117   0.240  -0.067   6.979  1.3233 -1.0276 -0.1242
   72OSM   H14C 6118   0.265  -0.189   6.851 -2.9255 -2.2402  0.3740
   72OSM    C13 6119   0.159   0.133   6.847 -0.3558 -0.1507 -0.0895
   72OSM   H13A 6120   0.235   0.173   6.913  0.4831  1.3653 -1.8762
   72OSM   H13B 6121   0.067   0.126   6.903 -0.0646 -1.6103  0.2708
   72OSM   H13C 6122   0.145   0.201   6.764  0.3365  0.2718  0.1294
   72OSM    C12 6123   0.119  -0.039   6.667 -0.4134 -0.4555 -0.1377
   72OSM   H12A 6124   0.023  -0.071   6.704  0.1204 -3.3967 -0.9985
   72OSM   H12B 6125   0.174  -0.122   6.627  2.3911  0.5755  1.3297
   72OSM    C11 6126   0.100   0.060   6.539  0.0232  0.1603 -0.4223
   72OSM   H11A 6127   0.058   0.010   6.449  0.3649 -2.2920  0.6948
   72OSM   H11B 6128   0.198   0.102   6.507  0.3584  0.7854  1.2762
   72OSM      P 6129  -0.136   0.161   6.594 -0.3079 -0.7824  0.0042
   72OSM    O13 6130  -0.172   0.048   6.684 -0.4782  0.0757  0.1686
   72OSM    O14 6131  -0.190   0.290   6.637  0.4379 -0.1571 -0.3194
   72OSM    O11 6132  -0.193   0.128   6.451 -0.3524  0.7904 -0.6829
   72OSM    O12 6133   0.022   0.172   6.575 -0.1448 -0.3889 -0.5020
   72OSM    C1S 6134  -0.129   0.190   6.337 -0.0328  0.4835 -0.2615
   72OSM    H1S 6135  -0.055   0.121   6.291  2.1076  3.1865 -1.1405
   72OSM    H1T 6136  -0.079   0.286   6.363 -1.9470  1.6521 -0.7479
   72OSM     NF 6137  -0.180   0.249   6.091  0.3303 -0.1041  0.2508
   72OSM    HNF 6138  -0.208   0.340   6.062 -1.9637 -0.3761  1.3967
   72OSM    C2S 6139  -0.236   0.222   6.223 -0.2368  0.4284 -0.2465
   72OSM    H2S 6140  -0.288   0.124   6.212 -0.6300  0.6122 -0.0399
   72OSM    C3S 6141  -0.333   0.324   6.281  0.3361 -0.1574 -0.5855
   72OSM    H3S 6142  -0.282   0.405   6.338  1.6799 -1.5375  0.2399
   72OSM     O3 6143  -0.427   0.267   6.376  0.2016  0.2351  0.3453
   72OSM    HO3 6144  -0.366   0.210   6.423  0.2077  2.3967  3.1963
   72OSM    C4S 6145  -0.416   0.380   6.172  0.2036  0.1106 -0.3133
   72OSM    H4S 6146  -0.461   0.301   6.110 -2.1513  2.4562 -1.7870
   72OSM    C5S 6147  -0.436   0.511   6.141 -0.9348 -0.1313 -0.3334
   72OSM    H5S 6148  -0.380   0.584   6.201 -0.1867 -1.5490  0.7483
   72OSM    C6S 6149  -0.530   0.560   6.025 -0.5391  0.2101  0.2520
   72OSM    H6S 6150  -0.592   0.648   6.053  1.5097  1.9336 -0.4082
   72OSM    H6T 6151  -0.602   0.476   6.010 -1.5895  1.1878 -0.3142
   72OSM    C7S 6152  -0.471   0.584   5.888 -1.1822 -0.2563 -0.1427
   72OSM    H7S 6153  -0.430   0.491   5.843 -0.9282  0.3726 -1.2461
   72OSM    H7T 6154  -0.382   0.650   5.877 -0.6668 -1.3199 -3.8119
   72OSM    C8S 6155  -0.575   0.628   5.784  0.1375 -0.3303  0.5193
   72OSM    H8S 6156  -0.629   0.722   5.809  0.8070  0.6736 -1.5269
   72OSM    H8T 6157  -0.641   0.540   5.771  1.3019 -1.2400  0.5882
   72OSM    C9S 6158  -0.515   0.655   5.645 -0.6624 -0.4584  0.5729
   72OSM    H9S 6159  -0.450   0.569   5.621 -1.3671 -0.2974 -2.1471
   72OSM    H9T 6160  -0.468   0.756   5.650 -0.6709 -0.4204 -0.1237
   72OSM   C10S 6161  -0.627   0.664   5.545 -0.4720  0.1482  0.2556
   72OSM   H10S 6162  -0.712   0.717   5.593 -1.3607 -0.9266 -0.0917
   72OSM   H10T 6163  -0.680   0.568   5.530 -1.6733  0.7712  0.3452
   72OSM   C11S 6164  -0.585   0.729   5.410  0.6300  0.8112  0.1465
   72OSM   H11S 6165  -0.484   0.692   5.385  0.5430  1.3499 -1.0772
   72OSM   H11T 6166  -0.592   0.840   5.406 -1.2426  0.7422  0.3902
   72OSM   C12S 6167  -0.669   0.675   5.290  0.0954 -0.0977  0.0983
   72OSM   H12S 6168  -0.778   0.697   5.287 -0.1006 -1.1031 -2.4997
   72OSM   H12T 6169  -0.666   0.564   5.299 -1.4966 -0.0263  2.4471
   72OSM   C13S 6170  -0.617   0.726   5.155  0.5873 -0.1959 -0.8585
   72OSM   H13S 6171  -0.513   0.700   5.122  1.0277  0.5478 -0.0794
   72OSM   H13T 6172  -0.630   0.836   5.156 -1.1835 -0.3946 -0.2807
   72OSM   C14S 6173  -0.714   0.682   5.038 -0.1263 -0.2314  0.2743
   72OSM   H14S 6174  -0.818   0.717   5.054 -0.7803 -1.3538 -1.2306
   72OSM   H14T 6175  -0.732   0.572   5.036 -1.8606  0.0313  0.1789
   72OSM   C15S 6176  -0.654   0.726   4.904 -0.6468  0.2170 -0.3715
   72OSM   H15S 6177  -0.564   0.662   4.889 -1.1471 -0.7569  0.6447
   72OSM   H15T 6178  -0.634   0.835   4.896  0.2668 -0.0836 -3.7794
   72OSM   C16S 6179  -0.744   0.679   4.790  0.1715  0.0732  0.8016
   72OSM   H16S 6180  -0.835   0.740   4.772  2.1318  2.6987 -0.9705
   72OSM   H16T 6181  -0.777   0.575   4.814  1.6545 -0.8388 -0.9043
   72OSM   C17S 6182  -0.680   0.689   4.651 -0.2388  0.0202  0.4050
   72OSM   H17S 6183  -0.750   0.658   4.570  0.3147  0.1981 -0.1482
   72OSM   H17T 6184  -0.591   0.621   4.653 -0.1045  0.1965  0.4090
   72OSM   C18S 6185  -0.619   0.822   4.621 -0.0204  0.0933  0.1661
   72OSM   H18S 6186  -0.549   0.810   4.536 -1.3648  0.6764 -1.0634
   72OSM   H18T 6187  -0.558   0.866   4.702 -2.0442  1.6305  0.9376
   72OSM   H18U 6188  -0.688   0.905   4.595  1.4408  1.0423 -0.8122
   72OSM    C1F 6189  -0.118   0.159   6.021 -0.1119  0.2384 -0.2897
   72OSM     OF 6190  -0.097   0.048   6.064 -0.1230  0.3665 -0.3246
   72OSM    C2F 6191  -0.073   0.203   5.884  0.5307 -0.1402 -0.2113
   72OSM    H2F 6192   0.028   0.248   5.896  0.8117 -0.6224 -0.6944
   72OSM    H2G 6193  -0.151   0.274   5.849 -1.4668 -1.8294  0.6108
   72OSM    C3F 6194  -0.069   0.088   5.780  0.4095  0.6063  0.3910
   72OSM    H3F 6195  -0.168   0.038   5.774  1.2233 -0.9615 -0.4336
   72OSM    H3G 6196   0.000   0.017   5.829  1.1111  0.1025 -1.2488
   72OSM    C4F 6197  -0.021   0.136   5.643 -0.5467  0.1247  0.3439
   72OSM    H4F 6198  -0.084   0.224   5.619  1.1153  1.3783  0.3743
   72OSM    H4G 6199  -0.038   0.048   5.577  0.1764 -0.7271  1.2637
   72OSM    C5F 6200   0.133   0.172   5.647 -0.0694 -0.3200 -0.5948
   72OSM    H5F 6201   0.169   0.074   5.686 -1.7716  0.3451  2.9936
   72OSM    H5G 6202   0.164   0.250   5.720  1.3462  0.7543 -2.2450
   72OSM    C6F 6203   0.205   0.185   5.511  0.3972  0.4461  0.0128
   72OSM    H6F 6204   0.205   0.092   5.450  0.4654  0.8910 -0.6771
   72OSM    H6G 6205   0.309   0.218   5.525  0.9246 -0.5839 -1.1943
   72OSM    C7F 6206   0.135   0.288   5.428 -0.2485 -0.1273  0.2100
   72OSM    H7F 6207   0.114   0.373   5.497  0.5467 -1.7321  2.5765
   72OSM    H7G 6208   0.036   0.250   5.396  0.0442 -0.5508 -0.2018
   72OSM    C8F 6209   0.197   0.328   5.294 -0.6694 -0.0350  0.1772
   72OSM    H8F 6210   0.122   0.388   5.238 -0.6397 -0.1968 -0.0363
   72OSM    H8G 6211   0.211   0.237   5.232 -0.7858  0.7889 -1.0890
   72OSM    C9F 6212   0.331   0.399   5.308  1.0735  0.4125  0.9281
   72OSM    H9F 6213   0.415   0.331   5.287 -0.4225 -1.4164  0.5129
   72OSM   C10F 6214   0.354   0.530   5.319  0.3896 -0.3658  0.2311
   72OSM   H10F 6215   0.458   0.564   5.333 -0.6938  3.7821 -0.2613
   72OSM   C11F 6216   0.248   0.628   5.325 -0.0398 -0.3870 -0.2509
   72OSM   H11F 6217   0.260   0.705   5.404 -2.1509 -0.0275 -0.2076
   72OSM   H11G 6218   0.150   0.580   5.348 -0.4352  0.4986 -0.0402
   72OSM   C12F 6219   0.235   0.705   5.194  0.1161  0.7614 -0.0418
   72OSM   H12F 6220   0.137   0.756   5.206 -0.6000 -0.3144 -1.0898
   72OSM   H12G 6221   0.224   0.627   5.116 -0.3109  1.1385 -0.3658
   72OSM   C13F 6222   0.355   0.796   5.158  0.9905 -0.1257 -0.0279
   72OSM   H13F 6223   0.447   0.741   5.131  1.5223  1.1191 -0.8120
   72OSM   H13G 6224   0.382   0.873   5.234  0.1500 -0.5633  0.7394
   72OSM   C14F 6225   0.320   0.884   5.036 -0.0475  0.1085 -0.7102
   72OSM   H14F 6226   0.252   0.968   5.061 -0.2284 -0.4649  0.8800
   72OSM   H14G 6227   0.284   0.813   4.958 -0.0144 -0.2324 -0.4185
   72OSM   C15F 6228   0.444   0.963   4.985  0.3045  0.7699 -0.1963
   72OSM   H15F 6229   0.524   0.888   4.966  1.3486  1.5487  0.9558
   72OSM   H15G 6230   0.486   1.039   5.054 -1.5548  0.6188  1.1527
   72OSM   C16F 6231   0.420   1.024   4.845 -1.0320  1.1357 -0.3846
   72OSM   H16F 6232   0.382   0.948   4.774  0.1365 -2.6258  2.7042
   72OSM   H16G 6233   0.520   1.052   4.806 -0.4000 -1.5540 -0.8755
   72OSM   C17F 6234   0.320   1.139   4.849 -0.1264  0.0464 -0.1173
   72OSM   H17F 6235   0.229   1.105   4.903  0.8640 -1.4923  0.6680
   72OSM   H17G 6236   0.292   1.158   4.743 -0.0519  0.7842 -0.0052
   72OSM   C18F 6237   0.374   1.267   4.908 -0.2936  0.1148 -0.3462
   72OSM   H18F 6238   0.475   1.288   4.866  0.2012  0.5673  0.9965
   72OSM   H18G 6239   0.391   1.244   5.016  0.5888 -1.5662 -0.8002
   72OSM   H18H 6240   0.312   1.359   4.897 -2.3166 -1.2729 -1.1070
   73OSM      N 6241   4.230   4.288   6.510 -0.2998 -0.4659 -0.4672
   73OSM    C15 6242   4.167   4.151   6.538  0.2867 -0.1834  0.0134
   73OSM   H15A 6243   4.189   4.100   6.631  0.1212 -2.3567 -1.0718
   73OSM   H15B 6244   4.193   4.083   6.458  1.8158 -0.4233  0.6709
   73OSM   H15C 6245   4.061   4.164   6.532  0.3730  0.9712  0.7543
   73OSM    C14 6246   4.378   4.283   6.532 -0.8432 -0.0825 -0.0006
   73OSM   H14A 6247   4.422   4.204   6.472 -3.4678 -0.4319 -1.6036
   73OSM   H14B 6248   4.392   4.262   6.637  1.0599  3.6954  0.6568
   73OSM   H14C 6249   4.425   4.375   6.499 -0.0062 -0.9063 -1.2079
   73OSM    C13 6250   4.200   4.319   6.364  0.5212  0.5386 -0.9558
   73OSM   H13A 6251   4.248   4.246   6.301 -0.0274  1.2197 -2.2115
   73OSM   H13B 6252   4.234   4.418   6.338  2.7652 -0.6076 -2.7867
   73OSM   H13C 6253   4.093   4.310   6.347  0.1250 -2.0754  2.0367
   73OSM    C12 6254   4.157   4.387   6.599  0.0671 -0.0674 -0.4494
   73OSM   H12A 6255   4.155   4.343   6.697 -1.3405  0.3039 -0.2842
   73OSM   H12B 6256   4.054   4.382   6.568 -0.0859 -1.4349  0.1993
   73OSM    C11 6257   4.212   4.532   6.599  1.2655  0.2060  0.1049
   73OSM   H11A 6258   4.321   4.527   6.617  1.6324 -0.0657 -1.8784
   73OSM   H11B 6259   4.157   4.581   6.682 -1.2192 -1.5094 -0.4092
   73OSM      P 6260   4.040   4.640   6.442  0.1790 -0.1563 -0.0669
   73OSM    O13 6261   3.953   4.522   6.461  0.4960  0.2479 -0.0239
   73OSM    O14 6262   4.015   4.754   6.534  0.0091  0.5633  0.2448
   73OSM    O11 6263   4.040   4.677   6.294  0.2388 -0.4471  0.0813
   73OSM    O12 6264   4.187   4.591   6.472  0.0921  0.5098 -0.0898
   73OSM    C1S 6265   4.141   4.771   6.245 -0.1628 -0.4839  0.0042
   73OSM    H1S 6266   4.243   4.753   6.286 -0.0648  1.6456  0.8582
   73OSM    H1T 6267   4.108   4.876   6.260 -1.8574 -0.7779 -1.4401
   73OSM     NF 6268   4.283   4.847   6.060  0.2247  0.4643 -0.2524
   73OSM    HNF 6269   4.252   4.935   6.025 -0.0712  0.0749 -0.9978
   73OSM    C2S 6270   4.165   4.765   6.092 -0.3721 -0.3538 -0.7187
   73OSM    H2S 6271   4.182   4.657   6.075  2.4832  0.2769 -2.4628
   73OSM    C3S 6272   4.038   4.803   6.023  0.1042  0.4294  0.0396
   73OSM    H3S 6273   4.014   4.909   6.047 -1.9413  0.3069 -1.1845
   73OSM     O3 6274   3.917   4.731   6.069 -0.4610 -0.4135 -0.0349
   73OSM    HO3 6275   3.939   4.706   6.160 -0.1191  1.6212  0.4813
   73OSM    C4S 6276   4.059   4.796   5.876  0.6490  1.0852 -0.1455
   73OSM    H4S 6277   4.085   4.695   5.840  0.3138  1.0966 -0.4236
   73OSM    C5S 6278   4.039   4.885   5.781  0.2087 -0.8072 -0.4007
   73OSM    H5S 6279   4.013   4.984   5.821  1.1906 -1.1304  1.1266
   73OSM    C6S 6280   4.062   4.868   5.632 -0.0239  0.2738 -0.5157
   73OSM    H6S 6281   4.139   4.940   5.597  1.0019  0.5514  2.1025
   73OSM    H6T 6282   3.965   4.890   5.582 -1.8668 -0.9688  2.2593
   73OSM    C7S 6283   4.108   4.721   5.585 -0.4261  0.0496 -0.0426
   73OSM    H7S 6284   4.027   4.646   5.600 -0.2538 -0.2138 -0.4179
   73OSM    H7T 6285   4.197   4.684   5.640 -0.3787 -0.0857 -0.2077
   73OSM    C8S 6286   4.142   4.712   5.435 -0.3726  0.2489  0.4543
   73OSM    H8S 6287   4.218   4.787   5.408 -0.4478  0.3639  0.5588
   73OSM    H8T 6288   4.056   4.750   5.376  0.4455  0.8098 -0.3993
   73OSM    C9S 6289   4.181   4.570   5.411  0.4030  0.0910 -0.0967
   73OSM    H9S 6290   4.252   4.521   5.481 -0.1931  0.6324  0.9029
   73OSM    H9T 6291   4.236   4.569   5.314 -0.6903 -0.9698 -0.7377
   73OSM   C10S 6292   4.062   4.476   5.377 -0.1413 -0.7283 -0.2098
   73OSM   H10S 6293   4.007   4.527   5.295  1.4428  0.7373 -0.4240
   73OSM   H10T 6294   3.997   4.469   5.467  1.2137 -0.6747  0.8045
   73OSM   C11S 6295   4.101   4.339   5.317 -0.1435  0.1215  0.1146
   73OSM   H11S 6296   4.012   4.284   5.281  1.0903  1.2781 -5.6670
   73OSM   H11T 6297   4.146   4.271   5.393 -0.0075 -1.7061 -1.5084
   73OSM   C12S 6298   4.186   4.344   5.185  0.1826  0.2385 -0.5291
   73OSM   H12S 6299   4.181   4.247   5.133 -1.4043 -1.8302  3.1055
   73OSM   H12T 6300   4.291   4.370   5.214  0.5223 -0.9101 -0.6895
   73OSM   C13S 6301   4.141   4.445   5.073  0.0443 -0.6605 -1.0342
   73OSM   H13S 6302   4.133   4.547   5.114  1.8910 -0.2769 -1.5372
   73OSM   H13T 6303   4.041   4.414   5.036 -1.3865  1.5624  0.7237
   73OSM   C14S 6304   4.252   4.453   4.963 -0.6744 -0.5860  0.1943
   73OSM   H14S 6305   4.355   4.476   4.997  0.7259 -1.2341 -3.1894
   73OSM   H14T 6306   4.227   4.541   4.899 -2.4752 -0.7960  0.5591
   73OSM   C15S 6307   4.265   4.330   4.876 -0.8511  0.0453  0.5614
   73OSM   H15S 6308   4.172   4.315   4.816 -0.1901  2.6872 -1.2704
   73OSM   H15T 6309   4.284   4.239   4.937  0.2435 -0.7319 -0.8803
   73OSM   C16S 6310   4.382   4.340   4.775  0.7102  0.3305 -0.4646
   73OSM   H16S 6311   4.392   4.241   4.725 -0.8597  0.0027 -0.1847
   73OSM   H16T 6312   4.462   4.379   4.841 -0.9385  1.2011  1.0967
   73OSM   C17S 6313   4.369   4.444   4.664  0.2994  0.2438 -0.4146
   73OSM   H17S 6314   4.337   4.543   4.704 -2.0190 -0.7792  0.4729
   73OSM   H17T 6315   4.295   4.409   4.588 -0.6340  3.6435 -1.2337
   73OSM   C18S 6316   4.502   4.474   4.591 -0.2443  0.8921 -0.0998
   73OSM   H18S 6317   4.545   4.373   4.572  0.2141  1.2448 -0.9506
   73OSM   H18T 6318   4.571   4.529   4.659  0.4288 -1.2061  1.0109
   73OSM   H18U 6319   4.479   4.541   4.506  0.0448  0.8273 -0.2278
   73OSM    C1F 6320   4.407   4.810   6.090  0.7633  0.5394 -0.8682
   73OSM     OF 6321   4.427   4.702   6.142 -0.3901 -0.5781 -0.1485
   73OSM    C2F 6322   4.517   4.909   6.080  0.4213  0.0826 -0.3022
   73OSM    H2F 6323   4.562   4.940   6.177 -0.4611  2.6811 -0.6454
   73OSM    H2G 6324   4.473   4.998   6.032  0.8185  1.5990  1.9901
   73OSM    C3F 6325   4.617   4.846   5.992 -1.0081 -0.5393  0.6509
   73OSM    H3F 6326   4.681   4.775   6.049 -0.7248 -0.7158  0.1194
   73OSM    H3G 6327   4.678   4.935   5.967 -0.1125 -1.0320  1.0081
   73OSM    C4F 6328   4.561   4.782   5.857 -0.9150  0.0467  0.3430
   73OSM    H4F 6329   4.494   4.694   5.869 -1.3332  0.3215  0.0641
   73OSM    H4G 6330   4.657   4.758   5.806 -0.6265  0.0461  0.8770
   73OSM    C5F 6331   4.485   4.876   5.759 -0.4887 -0.1233  0.0907
   73OSM    H5F 6332   4.543   4.969   5.748 -1.4728  0.2271 -4.0645
   73OSM    H5G 6333   4.388   4.912   5.801 -1.0464 -4.1248  2.7784
   73OSM    C6F 6334   4.463   4.836   5.608  0.9179 -0.2718 -0.1665
   73OSM    H6F 6335   4.419   4.918   5.548 -0.1032  0.1433  1.0798
   73OSM    H6G 6336   4.383   4.759   5.617 -0.5149  1.1731 -0.0652
   73OSM    C7F 6337   4.585   4.777   5.533  0.4708 -0.0974  0.0584
   73OSM    H7F 6338   4.604   4.678   5.579 -1.9273 -1.5654 -1.8543
   73OSM    H7G 6339   4.672   4.845   5.548  0.4638 -0.5746  2.6825
   73OSM    C8F 6340   4.552   4.767   5.380 -0.3129  0.1408  0.7900
   73OSM    H8F 6341   4.468   4.696   5.369  2.3600 -3.1031 -0.4873
   73OSM    H8G 6342   4.643   4.718   5.339  0.9248  0.6904  2.7456
   73OSM    C9F 6343   4.543   4.901   5.301  0.8939  0.3150 -0.1034
   73OSM    H9F 6344   4.604   4.983   5.343  0.9696  1.0636 -1.6029
   73OSM   C10F 6345   4.477   4.921   5.186  0.6153 -0.1752 -0.0856
   73OSM   H10F 6346   4.473   5.021   5.141 -2.7940 -1.0643 -2.0941
   73OSM   C11F 6347   4.386   4.823   5.123  0.8199  0.9301  0.2199
   73OSM   H11F 6348   4.298   4.809   5.188 -0.7645 -0.7092 -2.1344
   73OSM   H11G 6349   4.445   4.729   5.123  0.3271  0.5653 -1.9752
   73OSM   C12F 6350   4.333   4.856   4.977 -0.4219 -0.4543 -0.1180
   73OSM   H12F 6351   4.242   4.920   4.980 -0.6467 -0.8026  1.7517
   73OSM   H12G 6352   4.302   4.759   4.934  0.6143 -0.9449  0.1887
   73OSM   C13F 6353   4.438   4.925   4.881 -0.1828 -0.1305 -0.3624
   73OSM   H13F 6354   4.543   4.894   4.903 -0.1596 -0.7084 -1.2371
   73OSM   H13G 6355   4.428   5.032   4.907  0.0719  0.1195 -1.2903
   73OSM   C14F 6356   4.404   4.906   4.727 -0.6220 -0.1140 -0.9133
   73OSM   H14F 6357   4.294   4.893   4.720 -1.0314  0.7233  2.4348
   73OSM   H14G 6358   4.447   4.808   4.696  1.3659 -0.0817  1.4282
   73OSM   C15F 6359   4.455   5.025   4.647  0.2419  0.0509  0.3463
   73OSM   H15F 6360   4.401   5.118   4.676 -0.8020 -0.6903  0.8385
   73OSM   H15G 6361   4.429   5.017   4.540  1.7415  0.0498 -0.0473
   73OSM   C16F 6362   4.607   5.048   4.669 -0.0982  0.1658  0.3221
   73OSM   H16F 6363   4.621   5.058   4.779  0.8156  1.1375  0.1278
   73OSM   H16G 6364   4.636   5.140   4.615 -1.7535  0.5015 -0.0340
   73OSM   C17F 6365   4.698   4.934   4.628  0.0528  0.3062  0.8807
   73OSM   H17F 6366   4.676   4.918   4.520  0.7374 -0.0964  0.7919
   73OSM   H17G 6367   4.653   4.843   4.671 -1.2139 -0.6296 -2.1493
   73OSM   C18F 6368   4.851   4.960   4.644  0.5661 -0.5463 -0.6946
   73OSM   H18F 6369   4.907   4.864   4.644  1.9007  0.2011 -0.3665
   73OSM   H18G 6370   4.871   5.005   4.744  1.1019  0.1848 -1.1190
   73OSM   H18H 6371   4.895   5.026   4.566  3.3647 -0.5984  0.6875
   74OSM      N 6372   2.210   4.010   6.942  0.2847 -0.2755  0.4600
   74OSM    C15 6373   2.169   4.012   6.799  0.1493 -0.1211  0.8093
   74OSM   H15A 6374   2.228   4.072   6.730  0.6448 -1.8253 -0.3169
   74OSM   H15B 6375   2.071   4.053   6.781  0.6578  0.0465 -2.0920
   74OSM   H15C 6376   2.185   3.911   6.765  1.2226 -1.6871  5.2659
   74OSM    C14 6377   2.108   3.929   7.020 -0.3169  0.2658 -0.8801
   74OSM   H14A 6378   2.095   3.830   6.980 -1.6895 -0.5708  1.4878
   74OSM   H14B 6379   2.007   3.967   7.017 -0.9961 -1.4610 -0.7584
   74OSM   H14C 6380   2.131   3.918   7.125  1.3752 -0.1603 -1.2757
   74OSM    C13 6381   2.346   3.958   6.943  0.6545 -0.6419 -0.5239
   74OSM   H13A 6382   2.423   4.025   6.907  0.1026 -0.0293 -0.5820
   74OSM   H13B 6383   2.353   3.867   6.886  0.6931  0.7618 -2.9190
   74OSM   H13C 6384   2.378   3.924   7.040  0.1757  0.1565 -0.0793
   74OSM    C12 6385   2.211   4.150   7.000  0.1013  0.2421 -0.2045
   74OSM   H12A 6386   2.240   4.132   7.102  2.1649 -0.0222 -0.8001
   74OSM   H12B 6387   2.110   4.188   6.999 -0.1742 -0.4503  0.3927
   74OSM    C11 6388   2.300   4.260   6.940  0.1779 -1.2785  0.1894
   74OSM   H11A 6389   2.403   4.224   6.918  0.1878 -1.3119  0.2921
   74OSM   H11B 6390   2.320   4.335   7.020  1.0752 -0.3585 -0.8666
   74OSM      P 6391   2.290   4.461   6.779 -0.2497 -0.1163  0.2981
   74OSM    O13 6392   2.217   4.565   6.855 -0.3906 -0.0235 -0.5806
   74OSM    O14 6393   2.444   4.467   6.791  0.6961 -0.6400 -0.4860
   74OSM    O11 6394   2.256   4.463   6.626  0.2007  0.4968 -0.3614
   74OSM    O12 6395   2.238   4.319   6.818 -0.1282  0.3065  0.4492
   74OSM    C1S 6396   2.288   4.353   6.542  0.1102  0.1905  0.3759
   74OSM    H1S 6397   2.199   4.287   6.542 -0.9573  1.5695  0.6051
   74OSM    H1T 6398   2.378   4.299   6.578 -1.1062 -1.1222  1.5422
   74OSM     NF 6399   2.334   4.280   6.307 -0.0359 -0.0650 -0.0689
   74OSM    HNF 6400   2.426   4.243   6.296 -0.1516  0.1585 -2.3851
   74OSM    C2S 6401   2.311   4.397   6.395 -0.7492  0.1826  0.5125
   74OSM    H2S 6402   2.225   4.458   6.358 -0.0735  1.1220  0.4411
   74OSM    C3S 6403   2.428   4.504   6.387  0.2239  0.2001 -0.3230
   74OSM    H3S 6404   2.522   4.452   6.414  0.0820 -1.2108 -2.3199
   74OSM     O3 6405   2.412   4.606   6.477 -0.2350  0.7426 -0.0467
   74OSM    HO3 6406   2.332   4.589   6.528 -0.7333 -0.5757 -1.2048
   74OSM    C4S 6407   2.449   4.568   6.245  0.8004  0.2288 -0.2421
   74OSM    H4S 6408   2.502   4.494   6.183 -2.6658 -1.8073 -1.0893
   74OSM    C5S 6409   2.388   4.671   6.190 -0.3222  0.0450 -0.2362
   74OSM    H5S 6410   2.311   4.724   6.248  0.3122 -0.6636  1.3249
   74OSM    C6S 6411   2.402   4.703   6.047  0.8745  0.6037  0.0727
   74OSM    H6S 6412   2.508   4.699   6.015  0.5468 -1.8801 -0.9702
   74OSM    H6T 6413   2.343   4.795   6.028 -0.6882 -0.5371 -0.9015
   74OSM    C7S 6414   2.339   4.590   5.962 -0.4886 -0.0379 -0.1435
   74OSM    H7S 6415   2.233   4.568   5.987 -0.4652  1.1586  1.0673
   74OSM    H7T 6416   2.400   4.498   5.976 -1.4197 -0.3745  2.1673
   74OSM    C8S 6417   2.356   4.614   5.816  0.0302  0.4910 -0.3220
   74OSM    H8S 6418   2.363   4.519   5.759 -0.1548 -0.3557  1.0470
   74OSM    H8T 6419   2.446   4.679   5.806 -0.6518  1.9050  2.0951
   74OSM    C9S 6420   2.239   4.680   5.746 -0.2514 -0.0572 -0.8349
   74OSM    H9S 6421   2.234   4.775   5.802  1.0642 -2.4676  3.9545
   74OSM    H9T 6422   2.149   4.621   5.777  1.6780 -2.1304  1.2760
   74OSM   C10S 6423   2.252   4.697   5.593  0.1917 -0.6561  0.5510
   74OSM   H10S 6424   2.358   4.703   5.563 -0.0711 -4.5204 -1.8420
   74OSM   H10T 6425   2.203   4.791   5.559  0.9175 -1.2378 -2.3927
   74OSM   C11S 6426   2.188   4.578   5.519 -0.4401  0.2498  0.8223
   74OSM   H11S 6427   2.078   4.567   5.528 -0.6586  0.0354 -1.6241
   74OSM   H11T 6428   2.243   4.494   5.567  3.1051  1.3726 -0.9126
   74OSM   C12S 6429   2.225   4.591   5.366  0.0405  0.3795  0.2444
   74OSM   H12S 6430   2.331   4.560   5.355  0.1140  0.9180 -0.7113
   74OSM   H12T 6431   2.229   4.700   5.345  0.1584  0.6698  1.6468
   74OSM   C13S 6432   2.124   4.522   5.275  0.0311 -0.1766  0.6080
   74OSM   H13S 6433   2.020   4.550   5.302  1.2511  3.2842  2.2209
   74OSM   H13T 6434   2.136   4.411   5.282  2.1487  0.0415  1.1696
   74OSM   C14S 6435   2.137   4.563   5.128  0.0776  0.7518 -0.0776
   74OSM   H14S 6436   2.235   4.543   5.080 -0.1167 -0.2647 -0.0783
   74OSM   H14T 6437   2.121   4.673   5.125 -0.3530  1.0046  4.4946
   74OSM   C15S 6438   2.031   4.489   5.053 -0.5608 -0.8114  0.6728
   74OSM   H15S 6439   1.930   4.505   5.097 -0.5902 -1.0133  0.6790
   74OSM   H15T 6440   2.051   4.380   5.061 -0.9397 -1.0605 -1.2759
   74OSM   C16S 6441   2.019   4.536   4.906  0.2654  0.1351  0.3331
   74OSM   H16S 6442   2.115   4.516   4.853  0.1658 -0.7346  0.4595
   74OSM   H16T 6443   2.016   4.646   4.892 -0.9366  0.2585  1.4394
   74OSM   C17S 6444   1.924   4.451   4.829  0.0489  0.1839  0.4950
   74OSM   H17S 6445   1.834   4.457   4.894 -0.3783  0.7302 -0.1369
   74OSM   H17T 6446   1.949   4.343   4.822  0.1069  0.2415 -0.2405
   74OSM   C18S 6447   1.893   4.500   4.688 -0.3769  0.3355  0.1662
   74OSM   H18S 6448   1.911   4.610   4.683  0.3806  0.2230  0.3649
   74OSM   H18T 6449   1.794   4.462   4.654  1.4233 -2.3478 -2.5645
   74OSM   H18U 6450   1.965   4.453   4.619  0.2695  0.7081  0.5758
   74OSM    C1F 6451   2.242   4.199   6.273  0.2315  0.4973  0.5318
   74OSM     OF 6452   2.122   4.214   6.307 -0.6450 -0.0446 -0.3029
   74OSM    C2F 6453   2.285   4.091   6.181 -0.3142  0.1534 -0.1328
   74OSM    H2F 6454   2.334   4.015   6.245  0.6322  1.4169  0.6969
   74OSM    H2G 6455   2.353   4.135   6.105 -0.0507 -0.3978 -0.2138
   74OSM    C3F 6456   2.171   4.032   6.102  0.5290 -0.2300 -0.0676
   74OSM    H3F 6457   2.124   4.113   6.042  0.3085 -0.3090  0.0005
   74OSM    H3G 6458   2.096   3.995   6.175  0.6086  0.9840  0.6569
   74OSM    C4F 6459   2.218   3.923   6.003 -0.3636  0.0513  0.2596
   74OSM    H4F 6460   2.266   3.839   6.058  1.3088  0.8957  0.1365
   74OSM    H4G 6461   2.305   3.957   5.942 -1.3474 -0.2553 -1.3715
   74OSM    C5F 6462   2.102   3.870   5.919 -0.6012  0.7426 -0.0432
   74OSM    H5F 6463   2.059   3.944   5.848 -1.7335  1.9139  1.7794
   74OSM    H5G 6464   2.018   3.830   5.979 -0.2537 -0.4581 -0.3357
   74OSM    C6F 6465   2.148   3.745   5.841  0.4685  0.3277 -0.2335
   74OSM    H6F 6466   2.213   3.683   5.907  1.0156  1.4355  0.3087
   74OSM    H6G 6467   2.215   3.783   5.761  0.5662  2.4847  0.7832
   74OSM    C7F 6468   2.032   3.667   5.776 -0.9084  0.2513  0.7441
   74OSM    H7F 6469   1.964   3.742   5.730  2.8525  3.3848 -0.3438
   74OSM    H7G 6470   1.998   3.607   5.863  2.1781 -1.7269  0.7342
   74OSM    C8F 6471   2.096   3.580   5.676  0.1100  1.2054  0.8408
   74OSM    H8F 6472   2.023   3.501   5.649  2.9056 -1.2620 -0.0312
   74OSM    H8G 6473   2.179   3.518   5.715 -0.4567  1.0318  1.7812
   74OSM    C9F 6474   2.129   3.649   5.545  0.1685  0.1704 -0.3672
   74OSM    H9F 6475   2.214   3.717   5.559 -0.9159  1.0932  2.2930
   74OSM   C10F 6476   2.070   3.626   5.428  0.3305 -0.8505 -0.1546
   74OSM   H10F 6477   2.117   3.684   5.347 -1.2367 -0.1452 -0.5968
   74OSM   C11F 6478   1.962   3.530   5.395  0.7865  0.7830  0.3126
   74OSM   H11F 6479   1.901   3.566   5.309  1.3694 -1.3958 -1.0823
   74OSM   H11G 6480   1.898   3.524   5.486  1.5600 -1.1979  0.7632
   74OSM   C12F 6481   2.020   3.391   5.364 -0.3088  0.1096 -0.1338
   74OSM   H12F 6482   1.940   3.315   5.349  0.5610 -0.4291 -2.4220
   74OSM   H12G 6483   2.062   3.346   5.456 -1.5865 -1.7812 -0.4136
   74OSM   C13F 6484   2.118   3.398   5.239  0.9955 -0.3800 -0.8537
   74OSM   H13F 6485   2.198   3.469   5.266  1.4039 -1.0466 -0.2745
   74OSM   H13G 6486   2.051   3.426   5.156 -1.3181 -1.0367  0.6824
   74OSM   C14F 6487   2.194   3.267   5.212 -0.0364  0.1137 -0.1599
   74OSM   H14F 6488   2.252   3.225   5.297  0.2218 -0.7525 -0.7487
   74OSM   H14G 6489   2.268   3.289   5.133  1.5413 -1.7485  0.7074
   74OSM   C15F 6490   2.098   3.163   5.159  0.1215  0.1661  0.0912
   74OSM   H15F 6491   2.021   3.147   5.237  1.0270  2.7857  1.6225
   74OSM   H15G 6492   2.139   3.060   5.145  0.0989  0.0877  0.5932
   74OSM   C16F 6493   2.014   3.206   5.036 -0.8281 -0.2189  0.0652
   74OSM   H16F 6494   2.074   3.277   4.975 -1.1147  0.4577  0.5466
   74OSM   H16G 6495   1.922   3.260   5.069 -1.2837 -0.0029 -1.5046
   74OSM   C17F 6496   1.974   3.083   4.955  0.2179 -0.3661  0.0699
   74OSM   H17F 6497   2.061   3.022   4.922  1.2895 -0.3355  2.6309
   74OSM   H17G 6498   1.927   3.123   4.862  0.2900 -0.1021  0.1463
   74OSM   C18F 6499   1.864   2.988   5.012 -0.1112 -0.1529 -0.2769
   74OSM   H18F 6500   1.774   3.051   5.030  0.3876  0.9422 -1.5101
   74OSM   H18G 6501   1.907   2.950   5.108  2.6764  0.5180 -1.1742
   74OSM   H18H 6502   1.841   2.904   4.943 -3.2806  0.8366 -0.6067
   75OSM      N 6503   0.532   4.975   6.650 -0.4979 -0.0775  0.4279
   75OSM    C15 6504   0.674   5.018   6.666  0.3153 -0.4907  0.0302
   75OSM   H15A 6505   0.706   5.084   6.587  0.4729  0.3806  0.8013
   75OSM   H15B 6506   0.739   4.933   6.663  2.7626  1.2531  0.7517
   75OSM   H15C 6507   0.697   5.077   6.753  1.7217 -1.4642  0.3459
   75OSM    C14 6508   0.499   4.890   6.763  0.3769 -0.4424  0.3151
   75OSM   H14A 6509   0.409   4.833   6.742 -1.6637  2.6950 -0.1674
   75OSM   H14B 6510   0.478   4.945   6.853  1.3894  1.9474 -0.8148
   75OSM   H14C 6511   0.568   4.811   6.789 -1.0639 -1.2005  2.0808
   75OSM    C13 6512   0.439   5.099   6.642  0.0595  0.7761 -0.3337
   75OSM   H13A 6513   0.335   5.070   6.645  0.1163  0.3884 -1.4469
   75OSM   H13B 6514   0.453   5.150   6.548  1.1683 -0.8849 -1.1314
   75OSM   H13C 6515   0.451   5.171   6.721 -3.8289  1.2754 -0.0040
   75OSM    C12 6516   0.516   4.901   6.518 -0.3009 -0.0306  1.0230
   75OSM   H12A 6517   0.585   4.819   6.503 -1.1005 -0.4087 -0.8070
   75OSM   H12B 6518   0.541   4.963   6.433 -1.2020 -1.0775 -0.0481
   75OSM    C11 6519   0.373   4.846   6.494  0.5019 -0.0750 -0.3602
   75OSM   H11A 6520   0.364   4.817   6.387  0.3241  2.4303 -1.1078
   75OSM   H11B 6521   0.300   4.930   6.503 -0.4775 -0.5188 -3.0945
   75OSM      P 6522   0.224   4.659   6.620  0.4680 -0.4387 -0.2349
   75OSM    O13 6523   0.249   4.512   6.634  0.4202 -0.4897  0.2034
   75OSM    O14 6524   0.168   4.721   6.737 -0.1238 -0.8675 -0.6355
   75OSM    O11 6525   0.129   4.677   6.492 -0.2754 -0.3753  0.4646
   75OSM    O12 6526   0.352   4.732   6.577 -0.3306  0.3863 -0.9074
   75OSM    C1S 6527   0.158   4.617   6.369  0.4192 -0.8943  0.7359
   75OSM    H1S 6528   0.147   4.507   6.360  0.9965 -0.8459 -0.7567
   75OSM    H1T 6529   0.255   4.647   6.325  0.9090  0.6359  2.6858
   75OSM     NF 6530   0.063   4.565   6.148  0.1909 -0.3001  0.2062
   75OSM    HNF 6531   0.134   4.580   6.079 -0.5639 -0.3489 -0.5974
   75OSM    C2S 6532   0.054   4.659   6.260 -0.5233  0.2845  0.2212
   75OSM    H2S 6533  -0.044   4.665   6.311  1.2617  1.9010  3.8306
   75OSM    C3S 6534   0.077   4.803   6.217  0.2375 -0.6301  0.7888
   75OSM    H3S 6535   0.183   4.814   6.186 -0.6723  0.8291 -2.1769
   75OSM     O3 6536   0.076   4.889   6.328 -0.3175 -0.1828  0.2538
   75OSM    HO3 6537   0.084   4.826   6.400 -0.8502  0.5330  0.9603
   75OSM    C4S 6538  -0.005   4.846   6.102  0.0144  0.2560  0.5166
   75OSM    H4S 6539   0.057   4.848   6.012 -1.3882  0.0438 -0.4897
   75OSM    C5S 6540  -0.130   4.891   6.095 -0.1190  0.4973 -0.0922
   75OSM    H5S 6541  -0.194   4.911   6.182 -1.1231  0.9935 -0.9334
   75OSM    C6S 6542  -0.188   4.917   5.962 -0.9133  0.4150  0.5962
   75OSM    H6S 6543  -0.226   5.021   5.970 -1.7104  0.0337  2.2624
   75OSM    H6T 6544  -0.274   4.849   5.942 -1.6152  0.7839  2.1691
   75OSM    C7S 6545  -0.109   4.921   5.825 -0.0081 -0.1499  0.0769
   75OSM    H7S 6546  -0.064   4.827   5.786  4.5149  1.2647  1.3254
   75OSM    H7T 6547  -0.027   4.993   5.843  1.5384 -1.7219 -0.3691
   75OSM    C8S 6548  -0.197   4.981   5.717  0.6065  0.4653  0.3854
   75OSM    H8S 6549  -0.205   5.089   5.740  0.5719  0.0950  2.2486
   75OSM    H8T 6550  -0.297   4.933   5.723  0.4962  0.2521 -2.2011
   75OSM    C9S 6551  -0.158   4.969   5.571 -0.1570 -0.1093  0.1630
   75OSM    H9S 6552  -0.135   4.866   5.537  0.9743  0.2508 -0.2306
   75OSM    H9T 6553  -0.081   5.046   5.548 -1.7038  1.3742 -0.2698
   75OSM   C10S 6554  -0.277   5.004   5.477 -0.5059 -0.4648  0.3942
   75OSM   H10S 6555  -0.302   5.113   5.479 -0.1028 -0.3571  2.8087
   75OSM   H10T 6556  -0.371   4.952   5.505 -0.4773  0.2122  1.8348
   75OSM   C11S 6557  -0.246   4.958   5.334  0.2455  0.1386  0.3645
   75OSM   H11S 6558  -0.242   4.847   5.332  0.0511  0.1445 -0.4162
   75OSM   H11T 6559  -0.145   4.993   5.305 -0.5684  2.6072  0.2713
   75OSM   C12S 6560  -0.348   5.011   5.236  0.5777 -0.5550  0.6634
   75OSM   H12S 6561  -0.369   5.119   5.253 -0.8393 -1.1695  3.3836
   75OSM   H12T 6562  -0.450   4.971   5.255 -0.3603  1.3931 -0.0363
   75OSM   C13S 6563  -0.320   4.982   5.088 -0.3731  0.0607 -0.7041
   75OSM   H13S 6564  -0.342   4.875   5.067  0.4776  0.1340 -2.0355
   75OSM   H13T 6565  -0.211   5.001   5.081 -0.5095  0.8707 -0.7353
   75OSM   C14S 6566  -0.390   5.087   4.998  0.0063  0.4332  0.0592
   75OSM   H14S 6567  -0.383   5.178   5.060 -1.8104 -0.1677  1.2258
   75OSM   H14T 6568  -0.497   5.061   4.980 -0.2799  1.0037  0.8776
   75OSM   C15S 6569  -0.303   5.107   4.870  0.0662  0.3481 -0.4314
   75OSM   H15S 6570  -0.202   5.131   4.912 -1.0361  1.3746  1.7956
   75OSM   H15T 6571  -0.338   5.190   4.805  1.0299  1.1619  0.0476
   75OSM   C16S 6572  -0.289   4.987   4.783  0.2039  0.0848  0.3215
   75OSM   H16S 6573  -0.392   4.946   4.780 -0.2110  1.0333  1.1039
   75OSM   H16T 6574  -0.225   4.916   4.839  2.2096  1.8432  0.4191
   75OSM   C17S 6575  -0.232   5.026   4.650 -0.4548  0.3427  0.3799
   75OSM   H17S 6576  -0.138   5.084   4.662  1.9482 -2.6086 -2.3931
   75OSM   H17T 6577  -0.305   5.087   4.592  0.2089 -0.5617 -1.4900
   75OSM   C18S 6578  -0.212   4.901   4.558 -0.0442  0.0216 -0.0210
   75OSM   H18S 6579  -0.165   4.817   4.613 -1.9192 -1.3099 -0.3636
   75OSM   H18T 6580  -0.132   4.921   4.482 -0.3808 -0.5178 -0.5269
   75OSM   H18U 6581  -0.309   4.864   4.519 -0.6588  1.2154  0.3246
   75OSM    C1F 6582  -0.002   4.450   6.142  0.0660 -0.2289 -0.4603
   75OSM     OF 6583  -0.074   4.405   6.231 -0.5186  0.0475  0.4110
   75OSM    C2F 6584   0.023   4.365   6.021 -0.1835  0.2494  0.0536
   75OSM    H2F 6585   0.103   4.292   6.047  1.5915  2.2342  0.4111
   75OSM    H2G 6586   0.065   4.420   5.935  1.0704 -0.0738  0.4473
   75OSM    C3F 6587  -0.108   4.291   5.981  0.4233 -0.3781 -0.0630
   75OSM    H3F 6588  -0.197   4.353   6.006 -0.7412 -2.3439  0.8573
   75OSM    H3G 6589  -0.107   4.199   6.042  1.8794  0.3360  1.0791
   75OSM    C4F 6590  -0.104   4.249   5.832 -0.2361 -0.4842  0.0413
   75OSM    H4F 6591  -0.015   4.184   5.817  1.4573  2.2378 -2.8708
   75OSM    H4G 6592  -0.074   4.331   5.764  4.0245 -2.8966 -1.4412
   75OSM    C5F 6593  -0.230   4.177   5.782  0.4225  0.8385 -0.3998
   75OSM    H5F 6594  -0.320   4.242   5.789 -1.3494 -1.5463  0.1969
   75OSM    H5G 6595  -0.259   4.087   5.839 -1.3306  2.4334  1.3822
   75OSM    C6F 6596  -0.212   4.118   5.641  0.0532 -0.3523  0.4126
   75OSM    H6F 6597  -0.291   4.044   5.616  1.6667 -1.8214 -0.5724
   75OSM    H6G 6598  -0.117   4.061   5.631  0.8256  0.9653  0.0516
   75OSM    C7F 6599  -0.222   4.232   5.524 -0.4541  0.2618 -0.6901
   75OSM    H7F 6600  -0.123   4.283   5.518  0.1301 -0.6076  1.0324
   75OSM    H7G 6601  -0.300   4.307   5.547 -1.2714 -1.1023  1.3063
   75OSM    C8F 6602  -0.251   4.159   5.387 -0.2175 -0.3795  0.1028
   75OSM    H8F 6603  -0.345   4.099   5.387 -1.2148  1.1287 -0.9897
   75OSM    H8G 6604  -0.160   4.096   5.375  0.4100  0.6770 -0.7771
   75OSM    C9F 6605  -0.264   4.248   5.271 -0.0213 -0.1549 -0.0771
   75OSM    H9F 6606  -0.311   4.343   5.300 -1.6224 -1.6867  2.7607
   75OSM   C10F 6607  -0.241   4.218   5.145  0.7284  0.0437 -0.0377
   75OSM   H10F 6608  -0.248   4.297   5.069  1.8211 -1.0099 -1.2801
   75OSM   C11F 6609  -0.193   4.085   5.090  0.6414 -0.7010  0.9852
   75OSM   H11F 6610  -0.279   4.028   5.049 -0.8712  2.3991 -0.5175
   75OSM   H11G 6611  -0.150   4.024   5.172  0.7383 -2.4204 -0.3013
   75OSM   C12F 6612  -0.097   4.103   4.966  0.3949 -0.1466  0.6976
   75OSM   H12F 6613  -0.021   4.176   5.000 -0.2522  1.7354 -1.5749
   75OSM   H12G 6614  -0.155   4.143   4.879  0.7542 -1.0342  0.0396
   75OSM   C13F 6615  -0.021   3.981   4.907 -0.2900  0.2068 -0.0953
   75OSM   H13F 6616  -0.081   3.895   4.869  0.3524  0.4668 -1.8009
   75OSM   H13G 6617   0.043   3.940   4.988 -0.2561  0.6057  0.0828
   75OSM   C14F 6618   0.070   4.020   4.792  0.3255 -0.4799  0.1262
   75OSM   H14F 6619   0.112   4.118   4.823 -1.1570 -0.5605  2.6397
   75OSM   H14G 6620   0.002   4.043   4.706  0.1153  0.0261  0.4256
   75OSM   C15F 6621   0.178   3.920   4.750  0.4053 -0.1058 -0.4160
   75OSM   H15F 6622   0.122   3.824   4.747  0.6484 -0.2933  0.7174
   75OSM   H15G 6623   0.263   3.909   4.820  2.8674 -0.3747 -3.2516
   75OSM   C16F 6624   0.250   3.951   4.620 -0.3769  0.1295 -0.0418
   75OSM   H16F 6625   0.168   3.978   4.549 -0.5731  1.3040  0.6014
   75OSM   H16G 6626   0.295   3.853   4.594 -0.5795  0.2089 -0.7241
   75OSM   C17F 6627   0.336   4.073   4.629  0.3080  0.9334 -0.1486
   75OSM   H17F 6628   0.423   4.038   4.688  0.3144  1.2098  0.0066
   75OSM   H17G 6629   0.278   4.147   4.688 -0.1104  0.1666  0.4309
   75OSM   C18F 6630   0.396   4.122   4.498 -0.0737 -0.9592  0.2656
   75OSM   H18F 6631   0.442   4.035   4.446  1.3345 -0.1604  0.1235
   75OSM   H18G 6632   0.480   4.191   4.517 -0.6693  0.4925 -1.9343
   75OSM   H18H 6633   0.322   4.172   4.431  0.7378 -0.3163 -0.1615
   76OSM      N 6634   3.031   6.336   6.858 -0.0810 -0.2185 -0.4365
   76OSM    C15 6635   3.170   6.342   6.920  1.0071  0.5411 -0.2062
   76OSM   H15A 6636   3.160   6.351   7.027 -0.3250  0.0452 -0.2635
   76OSM   H15B 6637   3.222   6.430   6.887  0.9891 -0.3357 -2.8172
   76OSM   H15C 6638   3.221   6.251   6.891 -0.0560  0.0809 -0.7304
   76OSM    C14 6639   2.960   6.236   6.939  0.1624  0.1940  0.5199
   76OSM   H14A 6640   3.011   6.141   6.936 -1.6356 -0.8033  0.6148
   76OSM   H14B 6641   2.860   6.226   6.901  0.2931  0.5506  0.0695
   76OSM   H14C 6642   2.953   6.261   7.044 -1.1253 -0.1579  0.5368
   76OSM    C13 6643   2.970   6.470   6.862 -0.1278 -0.0693  0.0602
   76OSM   H13A 6644   3.039   6.549   6.834 -0.6519  0.2090 -0.4779
   76OSM   H13B 6645   2.939   6.494   6.963 -0.5620  0.4705 -0.1935
   76OSM   H13C 6646   2.878   6.478   6.806  0.0121 -1.0782 -0.3305
   76OSM    C12 6647   3.037   6.292   6.714  0.1495 -0.3556 -0.4607
   76OSM   H12A 6648   3.080   6.193   6.717  0.3517 -0.2374  0.9749
   76OSM   H12B 6649   3.102   6.360   6.660 -0.8055  1.1616  0.2379
   76OSM    C11 6650   2.901   6.287   6.639 -0.7628 -0.3845 -0.6467
   76OSM   H11A 6651   2.928   6.276   6.531 -0.0646 -0.9365 -0.4200
   76OSM   H11B 6652   2.851   6.386   6.648  1.8494  1.1930 -2.2920
   76OSM      P 6653   2.852   6.030   6.627 -0.3192  0.3048  0.2695
   76OSM    O13 6654   3.005   6.011   6.642  0.1730 -0.1587 -0.0369
   76OSM    O14 6655   2.770   5.927   6.703 -0.3116 -0.9946 -0.5063
   76OSM    O11 6656   2.816   6.021   6.476  0.2476  0.2787 -0.2077
   76OSM    O12 6657   2.818   6.178   6.669  0.6000 -0.4584  0.0087
   76OSM    C1S 6658   2.849   5.900   6.401 -0.0606 -0.1930 -0.2649
   76OSM    H1S 6659   2.792   5.811   6.436  1.0849 -0.5327  0.8467
   76OSM    H1T 6660   2.958   5.878   6.406 -0.2088 -0.9772 -0.4194
   76OSM     NF 6661   2.827   5.793   6.177 -0.1064 -0.0969  0.5282
   76OSM    HNF 6662   2.908   5.761   6.129 -0.0065 -1.7871  1.7117
   76OSM    C2S 6663   2.822   5.924   6.254  0.2488  0.4411  0.7724
   76OSM    H2S 6664   2.726   5.976   6.234  0.6004  0.1577 -1.9260
   76OSM    C3S 6665   2.930   6.027   6.206 -0.6576  0.6573 -0.1033
   76OSM    H3S 6666   3.026   5.974   6.222 -2.0876 -2.2119 -0.3414
   76OSM     O3 6667   2.946   6.148   6.285  0.2554  0.2181 -0.7328
   76OSM    HO3 6668   2.914   6.126   6.373  1.6820  1.6062  0.1956
   76OSM    C4S 6669   2.918   6.074   6.065 -0.0064 -0.0017 -0.0017
   76OSM    H4S 6670   2.823   6.124   6.040 -0.9764 -1.4575  0.6239
   76OSM    C5S 6671   3.009   6.058   5.969 -0.5878  0.2033  0.4937
   76OSM    H5S 6672   3.107   6.012   5.987 -0.4063 -0.0701 -1.0449
   76OSM    C6S 6673   3.005   6.123   5.835  0.1164 -0.4057 -0.0742
   76OSM    H6S 6674   3.102   6.166   5.804 -1.0456  0.6966 -2.4409
   76OSM    H6T 6675   2.933   6.207   5.833  0.9863  0.3467 -0.2767
   76OSM    C7S 6676   2.968   6.013   5.724  0.2818  0.3366 -0.0576
   76OSM    H7S 6677   2.867   5.968   5.737  0.9819 -1.2503  0.0885
   76OSM    H7T 6678   3.043   5.932   5.732  0.0553  0.2784  1.8138
   76OSM    C8S 6679   2.958   6.083   5.593 -0.2206  0.7782  0.2549
   76OSM    H8S 6680   3.045   6.149   5.574 -0.0448  0.2834 -0.7504
   76OSM    H8T 6681   2.868   6.149   5.598 -0.0725  0.9275  0.9938
   76OSM    C9S 6682   2.932   6.005   5.463 -0.3435 -0.7600 -0.1034
   76OSM    H9S 6683   2.848   5.932   5.473  0.3831 -1.6302 -0.2344
   76OSM    H9T 6684   3.029   5.954   5.443  1.1046  0.0947  3.8097
   76OSM   C10S 6685   2.906   6.093   5.342  0.7315  0.6533 -0.1822
   76OSM   H10S 6686   2.987   6.167   5.330  0.1586  1.3246 -0.0021
   76OSM   H10T 6687   2.806   6.139   5.356 -1.0410 -3.1566  1.2621
   76OSM   C11S 6688   2.909   5.995   5.216  0.2816  0.0419  0.2537
   76OSM   H11S 6689   2.847   5.903   5.224  3.0058 -1.7645  2.4884
   76OSM   H11T 6690   3.004   5.943   5.195 -1.3674 -2.7432 -0.8468
   76OSM   C12S 6691   2.868   6.066   5.093  0.0836  0.0807 -0.4117
   76OSM   H12S 6692   2.946   6.144   5.075 -0.9808  0.6594 -3.0036
   76OSM   H12T 6693   2.767   6.113   5.095  0.6892  1.6279 -2.0983
   76OSM   C13S 6694   2.885   5.976   4.966  0.5930  0.4816  0.5940
   76OSM   H13S 6695   2.825   5.884   4.985  1.1645  0.3052  1.6687
   76OSM   H13T 6696   2.985   5.927   4.970  0.7965  0.7657 -0.6259
   76OSM   C14S 6697   2.864   6.037   4.830 -0.9086 -0.8391 -0.0507
   76OSM   H14S 6698   2.921   6.131   4.821  0.8559 -1.4146  3.3649
   76OSM   H14T 6699   2.753   6.047   4.830 -0.8022  0.6066 -0.6659
   76OSM   C15S 6700   2.900   5.960   4.704  0.0440 -0.0488 -0.1140
   76OSM   H15S 6701   2.986   5.892   4.725 -0.3265 -0.6768 -0.5819
   76OSM   H15T 6702   2.935   6.031   4.626 -1.8246 -0.4742 -1.3952
   76OSM   C16S 6703   2.795   5.869   4.645 -0.6327  0.2764  0.0579
   76OSM   H16S 6704   2.699   5.925   4.644 -1.5042 -1.1674  0.5179
   76OSM   H16T 6705   2.768   5.777   4.702  0.0094 -0.5393 -0.9428
   76OSM   C17S 6706   2.824   5.820   4.498  0.2405 -0.1702  0.1291
   76OSM   H17S 6707   2.914   5.755   4.492 -0.1667 -0.6950 -0.4014
   76OSM   H17T 6708   2.845   5.907   4.432 -1.6171 -1.2446 -1.9769
   76OSM   C18S 6709   2.706   5.746   4.444 -0.5093 -0.0949 -0.1492
   76OSM   H18S 6710   2.738   5.701   4.348 -1.7858 -0.5767 -0.3707
   76OSM   H18T 6711   2.619   5.813   4.423  0.5490  1.6230  0.7676
   76OSM   H18U 6712   2.688   5.659   4.511 -0.1188 -0.3887 -0.4209
   76OSM    C1F 6713   2.720   5.720   6.168  0.1421  0.9205  0.2450
   76OSM     OF 6714   2.609   5.747   6.214 -0.2165 -0.1360  0.4072
   76OSM    C2F 6715   2.730   5.605   6.064 -0.2142  0.2037  0.3133
   76OSM    H2F 6716   2.676   5.522   6.115  0.0883 -0.5301 -0.5324
   76OSM    H2G 6717   2.835   5.572   6.049 -0.9227 -0.8781 -3.4237
   76OSM    C3F 6718   2.678   5.633   5.921 -0.0425  0.3182  0.3775
   76OSM    H3F 6719   2.762   5.684   5.867  1.2406 -2.0364  0.0202
   76OSM    H3G 6720   2.591   5.702   5.923 -1.2509 -1.0844 -1.0860
   76OSM    C4F 6721   2.631   5.498   5.857  0.6153 -0.0793  0.1248
   76OSM    H4F 6722   2.540   5.459   5.908 -0.7097 -0.9764 -2.7158
   76OSM    H4G 6723   2.720   5.433   5.843  1.0098  0.2051  1.1960
   76OSM    C5F 6724   2.566   5.527   5.721  0.1046 -0.4517  0.4871
   76OSM    H5F 6725   2.636   5.574   5.648 -0.1070 -1.1031 -0.1551
   76OSM    H5G 6726   2.487   5.602   5.741  2.2041  2.0258  0.1055
   76OSM    C6F 6727   2.503   5.406   5.648 -0.2365 -0.5410 -0.6792
   76OSM    H6F 6728   2.437   5.355   5.721  1.8568 -0.8250  1.1488
   76OSM    H6G 6729   2.589   5.340   5.627  1.7980  2.3945 -2.3739
   76OSM    C7F 6730   2.428   5.425   5.513  0.0950  0.1727 -0.0582
   76OSM    H7F 6731   2.334   5.475   5.545  0.1151 -0.7031  1.4244
   76OSM    H7G 6732   2.420   5.328   5.459  2.6083 -0.3836  0.4352
   76OSM    C8F 6733   2.499   5.516   5.416  0.5070 -0.0898 -0.4855
   76OSM    H8F 6734   2.509   5.619   5.456 -1.5219  0.1955 -0.6026
   76OSM    H8G 6735   2.424   5.531   5.335 -0.7551  2.0542  0.9870
   76OSM    C9F 6736   2.628   5.483   5.355 -0.0518  0.1910  0.1518
   76OSM    H9F 6737   2.701   5.430   5.419 -0.0525 -0.1423 -0.1215
   76OSM   C10F 6738   2.652   5.469   5.226 -0.0289 -0.0715 -0.8277
   76OSM   H10F 6739   2.752   5.435   5.197 -0.3088  0.0157 -1.9530
   76OSM   C11F 6740   2.556   5.516   5.116  0.0663  0.8594  0.2720
   76OSM   H11F 6741   2.518   5.615   5.148 -1.8241 -1.1288  5.1974
   76OSM   H11G 6742   2.477   5.438   5.120  2.6230 -1.9679 -0.6502
   76OSM   C12F 6743   2.617   5.523   4.976  0.9835 -0.3124 -0.2821
   76OSM   H12F 6744   2.685   5.437   4.962  0.8554 -0.5686  0.5905
   76OSM   H12G 6745   2.677   5.617   4.975  0.8916 -0.2527 -0.2254
   76OSM   C13F 6746   2.518   5.511   4.863  0.6288  0.2780 -0.3722
   76OSM   H13F 6747   2.547   5.560   4.768  1.3072  0.2927 -0.1602
   76OSM   H13G 6748   2.427   5.566   4.896 -0.7982 -1.2126 -1.6234
   76OSM   C14F 6749   2.484   5.366   4.835  0.3849 -0.1045 -0.5636
   76OSM   H14F 6750   2.436   5.320   4.924  1.6261 -0.0183  0.1650
   76OSM   H14G 6751   2.583   5.317   4.820  0.6189  0.1061  0.2996
   76OSM   C15F 6752   2.406   5.349   4.704 -0.6483 -0.5578 -0.5008
   76OSM   H15F 6753   2.451   5.408   4.621  0.2448  0.5092  0.6948
   76OSM   H15G 6754   2.304   5.388   4.725 -0.5424  0.3270 -1.5111
   76OSM   C16F 6755   2.394   5.197   4.658  0.1155 -0.1177 -0.2704
   76OSM   H16F 6756   2.357   5.141   4.746 -1.6814  1.8470  0.3340
   76OSM   H16G 6757   2.493   5.151   4.640  1.9212  2.6828  1.6124
   76OSM   C17F 6758   2.291   5.180   4.546 -0.2732  0.5134 -0.2680
   76OSM   H17F 6759   2.192   5.213   4.581 -0.8424 -1.0345 -0.3329
   76OSM   H17G 6760   2.282   5.074   4.512 -0.3105  0.2694  0.5035
   76OSM   C18F 6761   2.329   5.269   4.429  0.4990 -0.3872  0.1787
   76OSM   H18F 6762   2.431   5.239   4.397  0.3656 -0.7573  0.0993
   76OSM   H18G 6763   2.342   5.378   4.450  0.9062 -0.0415 -1.6534
   76OSM   H18H 6764   2.255   5.256   4.347 -0.0343 -0.2811  0.6397
   77OSM      N 6765   0.078   2.450   6.844 -0.8735  0.2842  0.2300
   77OSM    C15 6766   0.107   2.366   6.965  0.3117 -0.0163 -0.4139
   77OSM   H15A 6767   0.121   2.263   6.937 -0.7527 -0.1027 -0.6724
   77OSM   H15B 6768   0.027   2.359   7.037  0.5771 -0.6827 -0.1707
   77OSM   H15C 6769   0.202   2.383   7.014 -0.5517  1.8750  0.7175
   77OSM    C14 6770   0.090   2.593   6.889  0.0548  0.0453  0.0466
   77OSM   H14A 6771   0.002   2.611   6.949 -0.9838  2.1376 -1.9639
   77OSM   H14B 6772   0.076   2.661   6.807 -1.2982 -2.4581 -1.9282
   77OSM   H14C 6773   0.172   2.607   6.959  0.6141  0.2673 -0.6451
   77OSM    C13 6774   0.181   2.430   6.733 -0.4784  0.5829  0.6865
   77OSM   H13A 6775   0.173   2.502   6.653 -0.5160 -0.5575 -0.3755
   77OSM   H13B 6776   0.164   2.334   6.686 -1.7517  0.1607  1.9481
   77OSM   H13C 6777   0.284   2.437   6.766  0.3412 -0.7780 -1.3337
   77OSM    C12 6778  -0.059   2.421   6.797  1.1910 -0.4430  0.1222
   77OSM   H12A 6779  -0.067   2.325   6.748 -2.4613 -0.2757  0.1364
   77OSM   H12B 6780  -0.078   2.498   6.724  1.9021  1.2973  1.7148
   77OSM    C11 6781  -0.175   2.438   6.893 -0.5010  0.2126  0.2536
   77OSM   H11A 6782  -0.172   2.355   6.968 -0.2725 -0.4324 -0.4532
   77OSM   H11B 6783  -0.271   2.415   6.843 -1.0050  0.6958  0.9789
   77OSM      P 6784  -0.309   2.657   6.941 -0.4059 -0.1178 -0.2386
   77OSM    O13 6785  -0.431   2.593   7.002 -0.0087  0.4581 -0.2747
   77OSM    O14 6786  -0.275   2.786   7.001 -0.0614  0.0962  0.4804
   77OSM    O11 6787  -0.334   2.678   6.784  0.1938 -0.1571 -0.5584
   77OSM    O12 6788  -0.183   2.563   6.960 -0.2563  0.8202 -1.1050
   77OSM    C1S 6789  -0.267   2.767   6.701  0.6793 -0.1567  0.2825
   77OSM    H1S 6790  -0.169   2.715   6.695  0.8747  0.2160  0.2467
   77OSM    H1T 6791  -0.257   2.871   6.738  3.0362 -0.3598  0.3742
   77OSM     NF 6792  -0.263   2.870   6.477 -0.2562 -0.9007  0.0766
   77OSM    HNF 6793  -0.294   2.965   6.484  1.7038 -0.1914 -0.2539
   77OSM    C2S 6794  -0.337   2.778   6.556 -0.2007  0.4549 -0.3474
   77OSM    H2S 6795  -0.335   2.682   6.500 -2.2183  1.0642 -1.5805
   77OSM    C3S 6796  -0.484   2.824   6.578  0.0367 -0.6603 -0.1662
   77OSM    H3S 6797  -0.496   2.924   6.624  1.0756 -0.1549 -0.9425
   77OSM     O3 6798  -0.552   2.726   6.653  0.7206  0.2193  0.4718
   77OSM    HO3 6799  -0.480   2.674   6.690  0.0614 -1.1223 -0.0654
   77OSM    C4S 6800  -0.549   2.849   6.439 -0.3099  0.1734  0.4173
   77OSM    H4S 6801  -0.510   2.940   6.390  1.4658 -0.0259  1.3990
   77OSM    C5S 6802  -0.651   2.781   6.374 -0.1273 -0.1387 -0.2022
   77OSM    H5S 6803  -0.686   2.696   6.434  2.0428 -1.0419 -0.1375
   77OSM    C6S 6804  -0.707   2.823   6.239 -0.1787 -0.2397  0.9389
   77OSM    H6S 6805  -0.772   2.910   6.257  1.3215  0.8335  1.4126
   77OSM    H6T 6806  -0.776   2.746   6.199 -2.6876  2.0406  0.6520
   77OSM    C7S 6807  -0.598   2.845   6.134  0.0545 -0.5755 -0.3141
   77OSM    H7S 6808  -0.531   2.923   6.176  0.7277 -1.0275 -0.5333
   77OSM    H7T 6809  -0.633   2.883   6.036 -0.5061 -0.5320 -0.1001
   77OSM    C8S 6810  -0.518   2.723   6.109 -0.9460 -0.2113 -0.1409
   77OSM    H8S 6811  -0.592   2.642   6.089 -2.2584  0.6153  1.1709
   77OSM    H8T 6812  -0.476   2.687   6.206 -1.8696 -0.1833  0.2779
   77OSM    C9S 6813  -0.406   2.725   6.008 -0.1754  0.9701  0.3276
   77OSM    H9S 6814  -0.362   2.623   6.011 -0.8504  0.6895  0.9538
   77OSM    H9T 6815  -0.319   2.778   6.052 -2.3898  1.8051  4.0551
   77OSM   C10S 6816  -0.436   2.765   5.864 -0.5823  0.0287  0.1715
   77OSM   H10S 6817  -0.457   2.874   5.870  3.0206  0.9873 -1.6759
   77OSM   H10T 6818  -0.522   2.708   5.822 -0.4531 -0.0672  0.0349
   77OSM   C11S 6819  -0.319   2.753   5.767 -0.0623 -0.0631 -0.4120
   77OSM   H11S 6820  -0.306   2.647   5.736 -0.3234 -0.7901  1.7981
   77OSM   H11T 6821  -0.229   2.775   5.828 -1.1007 -2.9541  2.4948
   77OSM   C12S 6822  -0.321   2.846   5.643  0.3942  0.4215  0.2093
   77OSM   H12S 6823  -0.225   2.854   5.587  0.9143  1.2394  1.1820
   77OSM   H12T 6824  -0.340   2.949   5.681 -1.0341 -0.2330  1.3506
   77OSM   C13S 6825  -0.437   2.803   5.553 -0.2655 -0.2137 -0.1323
   77OSM   H13S 6826  -0.541   2.828   5.583 -0.3551  0.7107 -1.1396
   77OSM   H13T 6827  -0.435   2.693   5.544  3.8037 -0.3368  0.1999
   77OSM   C14S 6828  -0.425   2.868   5.405  0.0454  0.2062  0.0011
   77OSM   H14S 6829  -0.324   2.830   5.376  0.3802  0.6183  0.6032
   77OSM   H14T 6830  -0.421   2.979   5.411  2.1434  0.1309  0.7928
   77OSM   C15S 6831  -0.533   2.803   5.326  0.1908 -0.4317  0.5613
   77OSM   H15S 6832  -0.625   2.832   5.381  0.2424 -0.9547  0.9223
   77OSM   H15T 6833  -0.515   2.694   5.336  2.0245 -0.4947 -2.3536
   77OSM   C16S 6834  -0.528   2.850   5.187  0.0518 -0.2525 -1.1720
   77OSM   H16S 6835  -0.423   2.833   5.155  1.1869  1.1234  1.5166
   77OSM   H16T 6836  -0.558   2.955   5.169 -3.0192 -0.8005  0.0900
   77OSM   C17S 6837  -0.623   2.773   5.086  0.4711 -0.5967 -0.8862
   77OSM   H17S 6838  -0.729   2.804   5.099 -0.0781 -1.0747 -3.5967
   77OSM   H17T 6839  -0.615   2.665   5.113  1.0088 -0.2289  0.5096
   77OSM   C18S 6840  -0.580   2.799   4.942 -0.0024  0.3855  0.3095
   77OSM   H18S 6841  -0.662   2.774   4.872 -1.6236  1.9356  1.5470
   77OSM   H18T 6842  -0.492   2.737   4.917 -0.5489 -1.3449  2.4141
   77OSM   H18U 6843  -0.564   2.907   4.921  0.1392  0.3053 -0.0056
   77OSM    C1F 6844  -0.154   2.844   6.415  0.1506  0.8542 -0.1271
   77OSM     OF 6845  -0.106   2.727   6.425 -0.1309 -0.1485 -0.0780
   77OSM    C2F 6846  -0.088   2.955   6.332  0.5013 -0.0413 -0.3115
   77OSM    H2F 6847   0.009   2.981   6.381  1.0055  0.5348 -1.5644
   77OSM    H2G 6848  -0.149   3.048   6.331 -0.8216 -0.7906  2.0692
   77OSM    C3F 6849  -0.053   2.904   6.190 -0.3533  0.1797  0.1385
   77OSM    H3F 6850  -0.147   2.862   6.148  0.0258 -2.1804  1.4624
   77OSM    H3G 6851   0.020   2.820   6.187 -0.0447  0.4393 -2.4422
   77OSM    C4F 6852   0.005   3.009   6.094  0.1735  1.3314  0.0741
   77OSM    H4F 6853   0.103   3.049   6.130  0.3121  0.2548  0.9408
   77OSM    H4G 6854  -0.055   3.103   6.095 -0.2373  1.1163 -1.5244
   77OSM    C5F 6855   0.007   2.970   5.943 -0.0546  0.4003 -0.2397
   77OSM    H5F 6856  -0.102   2.963   5.925 -0.2256  2.7996 -0.4869
   77OSM    H5G 6857   0.058   2.872   5.929  1.4585  1.1867 -0.4851
   77OSM    C6F 6858   0.076   3.068   5.860  0.1246 -0.4472 -0.7649
   77OSM    H6F 6859   0.185   3.049   5.865 -0.0667 -1.8830 -1.3710
   77OSM    H6G 6860   0.042   3.171   5.885 -1.7897 -0.9279 -1.1869
   77OSM    C7F 6861   0.056   3.048   5.708 -0.1305  0.5931  0.6854
   77OSM    H7F 6862  -0.049   3.072   5.681 -0.1715 -1.0678 -0.8494
   77OSM    H7G 6863   0.062   2.938   5.691  1.8585  0.7171  0.3925
   77OSM    C8F 6864   0.154   3.142   5.626  0.1738  0.5751  0.6167
   77OSM    H8F 6865   0.154   3.246   5.665 -0.6077  1.4686 -1.6435
   77OSM    H8G 6866   0.100   3.147   5.530  0.5285  1.2239  0.4515
   77OSM    C9F 6867   0.288   3.082   5.612 -0.1009  0.3809  0.3965
   77OSM    H9F 6868   0.341   3.081   5.709 -2.7612 -0.3704  1.9643
   77OSM   C10F 6869   0.344   3.014   5.510 -0.1389 -0.0931  0.4924
   77OSM   H10F 6870   0.441   2.961   5.512  0.3554  0.7740 -0.0016
   77OSM   C11F 6871   0.269   3.007   5.377 -0.1391  0.2788 -0.1628
   77OSM   H11F 6872   0.160   3.000   5.393 -0.1206  0.4023  0.0252
   77OSM   H11G 6873   0.300   2.911   5.330  2.5951  0.2497  1.4650
   77OSM   C12F 6874   0.312   3.132   5.298 -0.3481 -0.4041 -0.6278
   77OSM   H12F 6875   0.422   3.143   5.304 -0.4101 -0.2956  0.4201
   77OSM   H12G 6876   0.281   3.217   5.361 -0.4377 -0.6550 -0.3312
   77OSM   C13F 6877   0.247   3.142   5.163 -0.1839  0.2215  0.1084
   77OSM   H13F 6878   0.139   3.128   5.184  0.2145 -0.1433  2.1304
   77OSM   H13G 6879   0.284   3.064   5.092  0.7963 -0.4933  1.3501
   77OSM   C14F 6880   0.266   3.287   5.111  0.8081 -0.5455 -0.1238
   77OSM   H14F 6881   0.376   3.296   5.096  0.4180  0.0321 -3.1909
   77OSM   H14G 6882   0.236   3.360   5.189 -1.2499 -1.0978 -0.3293
   77OSM   C15F 6883   0.197   3.311   4.984  0.3571  0.9044 -0.0639
   77OSM   H15F 6884   0.089   3.286   4.996  0.6928  0.1844  1.9276
   77OSM   H15G 6885   0.230   3.241   4.905 -4.7398 -1.3181 -0.5930
   77OSM   C16F 6886   0.221   3.450   4.930  0.6169 -0.6135  0.4856
   77OSM   H16F 6887   0.324   3.481   4.956 -0.1624  2.8356 -0.1313
   77OSM   H16G 6888   0.160   3.530   4.976 -1.4917 -1.8537 -0.0226
   77OSM   C17F 6889   0.207   3.456   4.776  0.0736  0.1395 -0.3806
   77OSM   H17F 6890   0.263   3.365   4.747 -1.1407 -1.1847  1.2220
   77OSM   H17G 6891   0.248   3.546   4.725 -0.7354 -1.0581 -3.3779
   77OSM   C18F 6892   0.056   3.451   4.736 -0.5915  0.0148 -0.1314
   77OSM   H18F 6893   0.040   3.473   4.628  2.1594  0.5698 -0.5055
   77OSM   H18G 6894   0.004   3.528   4.797  2.2785  4.0352 -2.2862
   77OSM   H18H 6895   0.004   3.357   4.766  0.2210 -0.1132  0.9179
   78OSM      N 6896   6.212   3.695   7.038 -0.1378 -0.2079 -0.3494
   78OSM    C15 6897   6.268   3.825   7.104 -0.5434  0.8938 -0.1334
   78OSM   H15A 6898   6.210   3.914   7.090 -1.0514  0.8505  1.5278
   78OSM   H15B 6899   6.365   3.845   7.060 -1.6866  2.1518 -2.2008
   78OSM   H15C 6900   6.291   3.798   7.207 -0.5895  0.7242 -0.1673
   78OSM    C14 6901   6.311   3.581   7.049  0.1167 -0.5353  0.1808
   78OSM   H14A 6902   6.337   3.558   7.152  0.5259 -0.3942  0.1139
   78OSM   H14B 6903   6.405   3.609   7.004  1.1360 -2.5519  0.9199
   78OSM   H14C 6904   6.272   3.499   6.992 -1.5560  0.7218 -0.5502
   78OSM    C13 6905   6.082   3.661   7.121  0.8982  0.2637  1.0138
   78OSM   H13A 6906   6.015   3.746   7.118 -0.6442 -0.9350 -0.7248
   78OSM   H13B 6907   6.095   3.628   7.223  1.6129 -1.8065  0.3038
   78OSM   H13C 6908   6.023   3.587   7.069 -1.4318  1.1967  2.1890
   78OSM    C12 6909   6.191   3.727   6.891  0.2619 -0.0961  0.7299
   78OSM   H12A 6910   6.284   3.752   6.843 -1.7185  2.9371 -1.9147
   78OSM   H12B 6911   6.130   3.816   6.890 -0.3952 -0.4911  2.2690
   78OSM    C11 6912   6.127   3.616   6.800 -0.5547 -0.7007 -0.3922
   78OSM   H11A 6913   6.201   3.533   6.802  0.5913  0.2791  2.1107
   78OSM   H11B 6914   6.119   3.651   6.695 -0.7988  0.5297  0.0201
   78OSM      P 6915   5.870   3.680   6.821  0.0420 -0.1275 -0.4167
   78OSM    O13 6916   5.765   3.647   6.921  0.1512  0.2504  1.2305
   78OSM    O14 6917   5.912   3.820   6.823  0.3113 -0.1404  0.5407
   78OSM    O11 6918   5.811   3.643   6.676 -0.0507  0.1924 -0.8121
   78OSM    O12 6919   5.994   3.582   6.840 -0.1279  0.2117  0.8553
   78OSM    C1S 6920   5.813   3.725   6.566  0.0386 -0.1449  0.0917
   78OSM    H1S 6921   5.906   3.787   6.566  0.2341 -0.3977  1.8676
   78OSM    H1T 6922   5.727   3.796   6.567  0.7798  1.1688 -4.2784
   78OSM     NF 6923   5.772   3.732   6.313 -0.4258 -0.2633 -0.4734
   78OSM    HNF 6924   5.681   3.755   6.279 -1.9755 -0.5742  2.9432
   78OSM    C2S 6925   5.775   3.651   6.429 -0.5463  0.2969 -0.3499
   78OSM    H2S 6926   5.852   3.574   6.405 -1.3863 -0.6009 -0.2292
   78OSM    C3S 6927   5.636   3.571   6.441  0.8569 -0.7719  0.1955
   78OSM    H3S 6928   5.559   3.644   6.473  3.3832  2.7382 -1.1846
   78OSM     O3 6929   5.637   3.479   6.549  0.2966 -0.2280  0.0220
   78OSM    HO3 6930   5.696   3.515   6.615 -0.7367 -1.5687  1.7487
   78OSM    C4S 6931   5.592   3.504   6.309 -0.6865 -0.1975 -0.6959
   78OSM    H4S 6932   5.533   3.566   6.239  1.4656  3.5947  0.5055
   78OSM    C5S 6933   5.630   3.382   6.260 -0.2829 -0.2179 -0.3085
   78OSM    H5S 6934   5.698   3.318   6.319  1.0131  0.3958 -1.0897
   78OSM    C6S 6935   5.594   3.336   6.116  0.1950 -0.6479  0.2911
   78OSM    H6S 6936   5.626   3.231   6.097  0.1403 -0.5268 -0.5189
   78OSM    H6T 6937   5.647   3.397   6.039  1.0045 -1.2368  0.3712
   78OSM    C7S 6938   5.440   3.325   6.106  0.3835  0.0676  0.2230
   78OSM    H7S 6939   5.384   3.399   6.166  1.3886  0.4983  0.6662
   78OSM    H7T 6940   5.418   3.236   6.169 -1.8126 -0.7134 -1.5328
   78OSM    C8S 6941   5.394   3.321   5.963 -0.0827  0.0688  0.0269
   78OSM    H8S 6942   5.463   3.262   5.899 -0.1056 -1.0417  0.9962
   78OSM    H8T 6943   5.395   3.428   5.934  1.0381 -0.1481 -0.8052
   78OSM    C9S 6944   5.265   3.250   5.940 -0.0076  0.1668  0.5162
   78OSM    H9S 6945   5.185   3.288   6.008 -2.1687 -2.1809 -0.5589
   78OSM    H9T 6946   5.266   3.141   5.958  0.3823  0.2162  0.8149
   78OSM   C10S 6947   5.216   3.285   5.794  0.2073 -0.0910 -0.5893
   78OSM   H10S 6948   5.273   3.238   5.712  2.0122  1.6939 -0.4389
   78OSM   H10T 6949   5.238   3.393   5.780  1.1182 -0.1813  0.0570
   78OSM   C11S 6950   5.064   3.271   5.769  0.0596 -0.2181  0.7846
   78OSM   H11S 6951   5.010   3.337   5.840  2.1028  1.6722  0.6535
   78OSM   H11T 6952   5.041   3.170   5.810 -1.6225 -0.6221 -0.9776
   78OSM   C12S 6953   5.030   3.244   5.620  0.3074  0.2654  0.5126
   78OSM   H12S 6954   4.925   3.209   5.622  0.7664 -1.3934 -1.3221
   78OSM   H12T 6955   5.099   3.167   5.580  3.3129  2.3251  1.3851
   78OSM   C13S 6956   5.040   3.374   5.537 -0.6099  0.2265 -0.2742
   78OSM   H13S 6957   5.126   3.432   5.576  1.2605 -1.7145 -1.2753
   78OSM   H13T 6958   4.950   3.435   5.557 -0.8248  0.3476 -1.5412
   78OSM   C14S 6959   5.051   3.345   5.385 -0.4469  0.1578  0.0784
   78OSM   H14S 6960   4.950   3.327   5.342 -0.2224  0.5271 -0.6207
   78OSM   H14T 6961   5.109   3.252   5.368  1.9392  1.3716  1.0154
   78OSM   C15S 6962   5.137   3.452   5.313  0.0606 -0.2214 -0.0012
   78OSM   H15S 6963   5.236   3.465   5.362 -0.4864  5.0304  0.2098
   78OSM   H15T 6964   5.089   3.551   5.327  0.0299 -0.1712 -0.4399
   78OSM   C16S 6965   5.157   3.416   5.162 -0.1074 -0.4159 -0.0930
   78OSM   H16S 6966   5.226   3.329   5.161  1.0787  0.4927 -0.5942
   78OSM   H16T 6967   5.222   3.500   5.129 -0.2939 -0.4783 -0.6332
   78OSM   C17S 6968   5.033   3.407   5.075 -0.3578 -0.0230 -0.4410
   78OSM   H17S 6969   4.975   3.501   5.072 -0.6498 -0.2206 -2.2411
   78OSM   H17T 6970   4.960   3.331   5.112 -1.7162 -0.1008 -3.0818
   78OSM   C18S 6971   5.057   3.375   4.933  0.6478  0.2478  0.5327
   78OSM   H18S 6972   4.957   3.358   4.888  1.2505  0.8095 -1.0825
   78OSM   H18T 6973   5.110   3.277   4.928  0.8500  0.1976  2.6482
   78OSM   H18U 6974   5.115   3.461   4.892 -0.4062  0.6449 -0.1494
   78OSM    C1F 6975   5.882   3.797   6.278 -0.5911  0.0216 -0.1664
   78OSM     OF 6976   5.993   3.762   6.323  0.0431  0.1638 -0.1420
   78OSM    C2F 6977   5.861   3.906   6.181 -0.5448  0.3563  0.4250
   78OSM    H2F 6978   5.957   3.937   6.136  0.3069 -1.4513  0.8952
   78OSM    H2G 6979   5.818   3.995   6.233 -0.5684 -0.5422  2.0257
   78OSM    C3F 6980   5.760   3.873   6.066 -0.2219 -0.7516  0.2536
   78OSM    H3F 6981   5.745   3.965   6.005 -1.4942 -1.9582 -1.3756
   78OSM    H3G 6982   5.659   3.852   6.108 -0.6703 -0.1780 -0.5085
   78OSM    C4F 6983   5.797   3.755   5.974 -0.7436  0.4055  0.2687
   78OSM    H4F 6984   5.783   3.660   6.028 -0.8552 -0.0113 -0.4752
   78OSM    H4G 6985   5.901   3.764   5.937 -0.8826 -1.6285 -0.7794
   78OSM    C5F 6986   5.705   3.744   5.851  0.2217 -0.3976 -0.3723
   78OSM    H5F 6987   5.722   3.841   5.802  2.6256 -0.7672 -0.3599
   78OSM    H5G 6988   5.598   3.755   5.881  0.3967  3.3209 -0.6695
   78OSM    C6F 6989   5.733   3.632   5.758  0.3472  0.0844 -0.0369
   78OSM    H6F 6990   5.726   3.529   5.800 -0.1642  0.0628 -0.1774
   78OSM    H6G 6991   5.832   3.654   5.713  0.1867 -0.5319 -0.7079
   78OSM    C7F 6992   5.634   3.649   5.647  0.4991 -0.7135  0.2857
   78OSM    H7F 6993   5.676   3.739   5.596  2.3293 -0.5909  1.8820
   78OSM    H7G 6994   5.537   3.680   5.690 -0.9847 -1.8058 -2.1033
   78OSM    C8F 6995   5.615   3.530   5.546 -0.2425 -0.9173 -0.3919
   78OSM    H8F 6996   5.718   3.514   5.510  0.0634  0.3808 -0.1455
   78OSM    H8G 6997   5.562   3.569   5.456 -0.9784  0.2447  0.5150
   78OSM    C9F 6998   5.552   3.403   5.590  0.1407  0.4480 -0.0486
   78OSM    H9F 6999   5.552   3.397   5.700 -0.5071 -1.9484 -0.1169
   78OSM   C10F 7000   5.502   3.303   5.515 -0.4435  0.1982 -0.0172
   78OSM   H10F 7001   5.464   3.211   5.563  0.3475  0.4391  1.0970
   78OSM   C11F 7002   5.452   3.312   5.370 -0.5490 -1.0916  0.4447
   78OSM   H11F 7003   5.456   3.420   5.344 -1.0488 -0.2147  3.6490
   78OSM   H11G 7004   5.350   3.269   5.377  0.2850 -3.3422 -0.3387
   78OSM   C12F 7005   5.539   3.219   5.281  0.7553 -0.5026  0.6786
   78OSM   H12F 7006   5.541   3.113   5.312  2.4067 -0.0795  2.2295
   78OSM   H12G 7007   5.640   3.267   5.284  0.5103  0.0057  1.1730
   78OSM   C13F 7008   5.493   3.222   5.131 -0.2020 -0.0318  0.7133
   78OSM   H13F 7009   5.387   3.188   5.132  0.0393 -0.8013  1.9380
   78OSM   H13G 7010   5.549   3.144   5.075 -0.2500  1.3361 -1.3153
   78OSM   C14F 7011   5.515   3.350   5.050 -0.3556  1.0459  0.7005
   78OSM   H14F 7012   5.623   3.378   5.053  0.2729 -0.5938 -2.4258
   78OSM   H14G 7013   5.453   3.430   5.096 -2.5435  0.1134 -0.5240
   78OSM   C15F 7014   5.462   3.326   4.912  0.0999 -0.4633 -0.3345
   78OSM   H15F 7015   5.460   3.416   4.847 -1.0413 -1.6180 -1.9880
   78OSM   H15G 7016   5.360   3.283   4.905 -0.4994  0.9131 -0.4666
   78OSM   C16F 7017   5.558   3.238   4.833  0.3808  0.2868  0.5136
   78OSM   H16F 7018   5.573   3.136   4.875  1.5711  1.1075  2.1504
   78OSM   H16G 7019   5.659   3.283   4.831  1.2841 -1.5739  1.8125
   78OSM   C17F 7020   5.515   3.244   4.678  0.0821 -1.2260  0.4220
   78OSM   H17F 7021   5.606   3.219   4.619  0.0036  0.9692 -0.7432
   78OSM   H17G 7022   5.496   3.351   4.653  1.7121 -1.4619 -2.2819
   78OSM   C18F 7023   5.406   3.143   4.635 -0.3230 -0.8860  0.3976
   78OSM   H18F 7024   5.439   3.038   4.652 -2.0528 -1.4933  0.1894
   78OSM   H18G 7025   5.375   3.158   4.530 -2.1755 -1.0092  0.8862
   78OSM   H18H 7026   5.317   3.151   4.702 -0.0586  1.2011  0.5702
   79OSM      N 7027   3.594   0.166   2.094 -0.2575  0.7597  0.3311
   79OSM    C15 7028   3.482   0.256   2.116 -0.4381 -0.0795 -0.4162
   79OSM   H15A 7029   3.508   0.342   2.176  2.1261 -1.8048  1.1543
   79OSM   H15B 7030   3.422   0.209   2.193  1.7617 -0.8466  0.9170
   79OSM   H15C 7031   3.426   0.277   2.026 -0.3490 -0.9431 -0.6865
   79OSM    C14 7032   3.650   0.181   1.955 -0.6240  0.0645  0.6601
   79OSM   H14A 7033   3.736   0.117   1.940 -0.5408  0.4058 -0.3631
   79OSM   H14B 7034   3.688   0.279   1.932 -1.1864 -0.4275 -3.0549
   79OSM   H14C 7035   3.569   0.160   1.887 -0.5211  3.4035 -0.6984
   79OSM    C13 7036   3.703   0.205   2.192  0.2602 -0.3978  0.2727
   79OSM   H13A 7037   3.797   0.154   2.177  1.9510  2.3413  0.6976
   79OSM   H13B 7038   3.653   0.196   2.287 -2.6784 -0.2093 -1.1482
   79OSM   H13C 7039   3.734   0.309   2.192  1.1351 -0.6400 -0.8055
   79OSM    C12 7040   3.554   0.024   2.126 -0.3017 -0.4660 -0.0098
   79OSM   H12A 7041   3.464  -0.001   2.072  1.3140  2.1248 -4.4589
   79OSM   H12B 7042   3.531   0.026   2.231  2.0138  3.4983  0.6018
   79OSM    C11 7043   3.656  -0.086   2.105  0.2760  0.2104 -0.1745
   79OSM   H11A 7044   3.659  -0.091   1.994  0.2437 -0.5476 -0.1445
   79OSM   H11B 7045   3.600  -0.174   2.143  0.1004  0.7524  0.8438
   79OSM      P 7046   3.885  -0.169   2.227  0.1195 -0.1484  0.3308
   79OSM    O13 7047   3.811  -0.291   2.278  0.5226  0.5428 -0.1609
   79OSM    O14 7048   4.000  -0.189   2.134 -0.0251  0.4953  0.2199
   79OSM    O11 7049   3.934  -0.093   2.348 -0.3552  0.4059  0.0421
   79OSM    O12 7050   3.779  -0.060   2.175 -0.3194 -0.1841  0.2302
   79OSM    C1S 7051   3.843  -0.014   2.424 -0.3752 -0.1138 -0.4652
   79OSM    H1S 7052   3.739  -0.052   2.420 -0.9000  1.3322 -1.1377
   79OSM    H1T 7053   3.846   0.091   2.387 -2.6648  0.6742  1.3191
   79OSM     NF 7054   3.777   0.079   2.638 -0.5801 -0.4405  0.2910
   79OSM    HNF 7055   3.798   0.175   2.657  2.8235 -0.9332 -0.2505
   79OSM    C2S 7056   3.883   0.003   2.570  0.7859  0.4025  0.1257
   79OSM    H2S 7057   3.892  -0.102   2.604  0.4525 -0.2833 -1.7754
   79OSM    C3S 7058   4.025   0.063   2.582  0.4556  0.2094 -0.6981
   79OSM    H3S 7059   4.026   0.162   2.531 -1.7919  0.4055 -0.4461
   79OSM     O3 7060   4.122  -0.015   2.517  0.6003 -0.2235  0.4754
   79OSM    HO3 7061   4.074  -0.058   2.446 -0.4191  0.5409  0.6732
   79OSM    C4S 7062   4.055   0.082   2.727 -0.4499 -0.3383  0.7873
   79OSM    H4S 7063   4.068  -0.005   2.793  2.3211  1.2131  2.4939
   79OSM    C5S 7064   4.086   0.203   2.780 -0.1377  0.2469 -0.2507
   79OSM    H5S 7065   4.095   0.291   2.715 -2.0676  1.0218  0.4590
   79OSM    C6S 7066   4.115   0.231   2.926 -0.6624 -0.9020  0.2828
   79OSM    H6S 7067   4.059   0.326   2.940  1.5684  0.8816 -2.0490
   79OSM    H6T 7068   4.221   0.263   2.935 -0.5592 -1.0794 -0.2761
   79OSM    C7S 7069   4.092   0.119   3.026  0.3747  0.2763  0.1610
   79OSM    H7S 7070   4.164   0.034   3.024  0.5813  0.4304  0.7405
   79OSM    H7T 7071   3.988   0.085   3.008  0.8813 -1.4261  0.2560
   79OSM    C8S 7072   4.108   0.171   3.172  0.1869  0.1484 -0.3413
   79OSM    H8S 7073   4.036   0.254   3.191 -1.2577 -0.6570 -1.9178
   79OSM    H8T 7074   4.206   0.218   3.193 -0.4121  2.9280 -2.9793
   79OSM    C9S 7075   4.084   0.062   3.281  0.5862 -0.5154 -0.4286
   79OSM    H9S 7076   4.161  -0.016   3.264  1.1998 -0.3976  1.5488
   79OSM    H9T 7077   3.981   0.029   3.258  0.2248  1.6321 -2.2570
   79OSM   C10S 7078   4.100   0.118   3.420  0.9016  0.4743 -0.6907
   79OSM   H10S 7079   4.045   0.046   3.485  0.8335  1.1404  0.0020
   79OSM   H10T 7080   4.062   0.220   3.443 -1.2724 -0.3569 -0.3743
   79OSM   C11S 7081   4.247   0.117   3.468 -0.4465  0.7203  0.2117
   79OSM   H11S 7082   4.297   0.184   3.394 -2.0460 -1.2537 -2.8733
   79OSM   H11T 7083   4.301   0.022   3.454 -0.0249  0.6452  2.0607
   79OSM   C12S 7084   4.267   0.173   3.615  0.7314 -0.6805  0.0781
   79OSM   H12S 7085   4.211   0.104   3.681  1.6096  0.5310  2.2358
   79OSM   H12T 7086   4.220   0.273   3.625 -0.6224 -1.3679  0.8493
   79OSM   C13S 7087   4.410   0.163   3.665 -0.6260  0.1994  0.1803
   79OSM   H13S 7088   4.480   0.233   3.615  0.3675  0.8049  2.2909
   79OSM   H13T 7089   4.458   0.062   3.667  0.4700  0.7105  0.8655
   79OSM   C14S 7090   4.414   0.222   3.809 -0.7457 -0.5634 -0.1590
   79OSM   H14S 7091   4.356   0.151   3.872 -0.4085 -0.4126  0.3277
   79OSM   H14T 7092   4.349   0.312   3.801 -1.9716 -1.3637  0.3974
   79OSM   C15S 7093   4.555   0.244   3.872 -0.0777 -0.1589  0.7187
   79OSM   H15S 7094   4.632   0.283   3.801  0.2152 -0.9110  0.6138
   79OSM   H15T 7095   4.581   0.137   3.888  0.7581  0.2622  2.3048
   79OSM   C16S 7096   4.565   0.300   4.021 -0.3322 -0.0780 -0.1671
   79OSM   H16S 7097   4.469   0.277   4.072  0.3465  2.7559  2.7044
   79OSM   H16T 7098   4.565   0.411   4.025  0.8838 -0.0774  0.1675
   79OSM   C17S 7099   4.685   0.242   4.105  0.5486 -0.4848  0.3803
   79OSM   H17S 7100   4.775   0.291   4.062  1.0662 -1.2409  0.5888
   79OSM   H17T 7101   4.701   0.133   4.089 -2.5067 -0.9043 -0.4393
   79OSM   C18S 7102   4.680   0.294   4.250 -0.6871 -0.1291  0.3582
   79OSM   H18S 7103   4.663   0.404   4.259  2.0671  0.2937  1.4235
   79OSM   H18T 7104   4.769   0.252   4.302 -0.0691  1.4448  0.6279
   79OSM   H18U 7105   4.588   0.254   4.297  0.1564 -0.2543  1.9916
   79OSM    C1F 7106   3.661   0.023   2.673 -0.0960  0.1463  0.4112
   79OSM     OF 7107   3.640  -0.095   2.649  0.5271 -0.1736  0.7484
   79OSM    C2F 7108   3.553   0.106   2.741  0.0119  0.5034  0.5338
   79OSM    H2F 7109   3.471   0.124   2.669  0.7157  2.6393  0.1844
   79OSM    H2G 7110   3.586   0.212   2.745 -0.6559  0.7571 -0.3025
   79OSM    C3F 7111   3.510   0.043   2.873 -0.0979  0.5932 -0.4243
   79OSM    H3F 7112   3.481  -0.064   2.864 -1.2834  0.8608 -0.0116
   79OSM    H3G 7113   3.427   0.099   2.921 -1.1717 -0.7857 -0.6284
   79OSM    C4F 7114   3.617   0.043   2.982  0.5881 -0.3923  0.8374
   79OSM    H4F 7115   3.654   0.147   2.981 -0.1467 -0.1141 -0.6583
   79OSM    H4G 7116   3.697  -0.026   2.949  0.7739 -0.3276  1.1461
   79OSM    C5F 7117   3.572   0.003   3.123 -0.7416 -0.3624  0.0180
   79OSM    H5F 7118   3.511  -0.090   3.124 -2.3350  0.6230 -1.0490
   79OSM    H5G 7119   3.503   0.080   3.163 -2.8220 -0.9673 -2.1597
   79OSM    C6F 7120   3.692  -0.010   3.223  0.5206  0.1986  0.4243
   79OSM    H6F 7121   3.720   0.095   3.246  3.2867 -0.2718 -0.4289
   79OSM    H6G 7122   3.782  -0.061   3.181 -0.1958 -0.9361  0.2169
   79OSM    C7F 7123   3.645  -0.085   3.356 -0.5391 -0.2835 -0.0613
   79OSM    H7F 7124   3.652  -0.192   3.326  1.1046 -0.1648 -0.1610
   79OSM    H7G 7125   3.540  -0.061   3.387 -0.3714  0.7859 -0.2791
   79OSM    C8F 7126   3.735  -0.062   3.473  0.0507 -0.7331 -0.0615
   79OSM    H8F 7127   3.734   0.045   3.505  0.8398 -0.7915  0.1677
   79OSM    H8G 7128   3.839  -0.084   3.442  1.1122  2.5129  0.8030
   79OSM    C9F 7129   3.692  -0.152   3.583 -0.0535 -0.6041 -0.3236
   79OSM    H9F 7130   3.669  -0.256   3.553 -0.7061 -0.5237 -0.1240
   79OSM   C10F 7131   3.680  -0.131   3.716 -0.6067 -0.8172  0.2518
   79OSM   H10F 7132   3.644  -0.207   3.787 -0.1189 -0.0152  1.3768
   79OSM   C11F 7133   3.707   0.005   3.774 -0.4357 -0.5779  0.0162
   79OSM   H11F 7134   3.644   0.075   3.715  1.5993  1.6903  0.3693
   79OSM   H11G 7135   3.812   0.039   3.761 -0.5331 -0.1075  0.4075
   79OSM   C12F 7136   3.654   0.025   3.915 -0.4567 -0.2909  0.2017
   79OSM   H12F 7137   3.733  -0.014   3.983 -0.8216 -2.0337 -0.3007
   79OSM   H12G 7138   3.563  -0.039   3.925  0.2871 -1.8115 -2.0308
   79OSM   C13F 7139   3.621   0.172   3.954 -0.0620  0.0445 -0.1073
   79OSM   H13F 7140   3.558   0.215   3.874 -1.5916 -1.0107  0.4950
   79OSM   H13G 7141   3.707   0.242   3.945 -0.5011  0.4252 -1.6992
   79OSM   C14F 7142   3.554   0.186   4.090 -0.4339  0.3205 -0.0659
   79OSM   H14F 7143   3.470   0.113   4.077 -0.8792  1.3173 -3.7336
   79OSM   H14G 7144   3.515   0.290   4.100 -3.6029 -0.8113  0.7122
   79OSM   C15F 7145   3.648   0.151   4.207  0.1757  0.4903  0.4714
   79OSM   H15F 7146   3.717   0.238   4.219  1.5324 -0.6800  1.3533
   79OSM   H15G 7147   3.697   0.055   4.184 -3.6119 -1.7648  0.9436
   79OSM   C16F 7148   3.572   0.130   4.341  0.0707  0.0932  0.1526
   79OSM   H16F 7149   3.486   0.060   4.330  1.5450 -1.6624 -0.7407
   79OSM   H16G 7150   3.530   0.231   4.362 -0.6728 -0.1758 -0.0104
   79OSM   C17F 7151   3.665   0.067   4.448  0.2452 -0.4965 -0.4386
   79OSM   H17F 7152   3.742   0.142   4.474  0.8076 -1.2540  0.1432
   79OSM   H17G 7153   3.720  -0.020   4.406  1.7049  0.4491 -0.5371
   79OSM   C18F 7154   3.592   0.018   4.577  0.3020  0.6819  0.3604
   79OSM   H18F 7155   3.528   0.102   4.612 -1.2058 -0.0066 -0.6384
   79OSM   H18G 7156   3.655  -0.026   4.657  1.3215  4.3842  1.8008
   79OSM   H18H 7157   3.519  -0.057   4.540  0.5317  1.5018 -1.9430
   80OSM      N 7158   1.647   0.789   2.390  0.1680  0.2608 -0.9689
   80OSM    C15 7159   1.724   0.652   2.389  0.0972  0.1829 -0.1112
   80OSM   H15A 7160   1.659   0.566   2.379 -1.2906  0.9414  1.8318
   80OSM   H15B 7161   1.769   0.628   2.484 -0.5814 -1.3513 -0.1430
   80OSM   H15C 7162   1.790   0.659   2.304  0.4459  1.6308  0.2587
   80OSM    C14 7163   1.737   0.892   2.421 -0.8197 -0.4883  0.0895
   80OSM   H14A 7164   1.779   0.885   2.521  0.3011 -0.7553 -0.3829
   80OSM   H14B 7165   1.706   0.993   2.402 -0.4525 -0.7414 -2.0739
   80OSM   H14C 7166   1.817   0.892   2.349  1.5984  0.1785  2.5933
   80OSM    C13 7167   1.594   0.807   2.251  0.2626  0.3588  0.0610
   80OSM   H13A 7168   1.490   0.779   2.243  0.1839  0.8210 -0.6434
   80OSM   H13B 7169   1.647   0.746   2.179 -0.5954 -1.1414  0.6608
   80OSM   H13C 7170   1.592   0.910   2.217 -1.5987 -0.0823 -1.3341
   80OSM    C12 7171   1.540   0.783   2.490 -0.6582 -0.5553  0.1062
   80OSM   H12A 7172   1.584   0.747   2.582  3.3203  0.1883 -1.2841
   80OSM   H12B 7173   1.470   0.704   2.471 -0.5998 -1.6641  3.6843
   80OSM    C11 7174   1.463   0.915   2.523  0.0977  0.0628  0.3258
   80OSM   H11A 7175   1.538   0.988   2.559 -0.3173 -0.0634  1.4677
   80OSM   H11B 7176   1.389   0.887   2.601 -1.4276  0.9340 -0.7527
   80OSM      P 7177   1.254   0.922   2.365  0.1741  0.5960  0.1996
   80OSM    O13 7178   1.194   1.014   2.266 -0.1655 -0.3178 -0.0540
   80OSM    O14 7179   1.265   0.777   2.312 -0.1273 -0.3061 -0.5989
   80OSM    O11 7180   1.167   0.925   2.500 -0.4200  0.0381 -0.5659
   80OSM    O12 7181   1.403   0.979   2.402 -0.3256  0.3239  0.3952
   80OSM    C1S 7182   1.132   0.807   2.568  0.2333  0.7715  0.2651
   80OSM    H1S 7183   1.223   0.746   2.585  0.2147  0.5010 -0.5636
   80OSM    H1T 7184   1.071   0.743   2.502 -2.7097  1.8906  1.7146
   80OSM     NF 7185   1.046   0.716   2.794 -0.2548 -0.1655  0.0480
   80OSM    HNF 7186   0.953   0.682   2.803 -0.0284 -1.4278 -1.8613
   80OSM    C2S 7187   1.054   0.833   2.700 -0.4587  0.4227 -0.4555
   80OSM    H2S 7188   1.124   0.903   2.752 -2.5034  1.4906  0.9731
   80OSM    C3S 7189   0.921   0.912   2.676 -0.5751 -0.1156 -0.3459
   80OSM    H3S 7190   0.846   0.841   2.634 -1.9457  0.4581  1.0471
   80OSM     O3 7191   0.936   1.022   2.580 -0.4048 -0.5146  0.2229
   80OSM    HO3 7192   1.025   1.011   2.545 -1.4183  3.0074 -4.5278
   80OSM    C4S 7193   0.874   0.958   2.808 -0.0512 -0.0614 -0.4389
   80OSM    H4S 7194   0.803   0.889   2.854  0.0397  0.8803  1.1822
   80OSM    C5S 7195   0.907   1.061   2.883 -0.0540 -0.6521  0.1381
   80OSM    H5S 7196   0.991   1.122   2.848 -0.2366  0.3235  1.3274
   80OSM    C6S 7197   0.842   1.092   3.022 -0.1579 -0.3995 -0.2996
   80OSM    H6S 7198   0.757   1.161   3.001  2.4676  3.2831  0.0796
   80OSM    H6T 7199   0.917   1.144   3.087 -1.2252  0.1455  0.5438
   80OSM    C7S 7200   0.784   0.980   3.103  0.0480  0.4020  0.5095
   80OSM    H7S 7201   0.713   0.923   3.039 -0.4849  3.1483 -1.5664
   80OSM    H7T 7202   0.721   1.029   3.180 -1.2837 -1.3827  0.6256
   80OSM    C8S 7203   0.898   0.891   3.161 -1.1263 -0.1009  0.1036
   80OSM    H8S 7204   0.972   0.952   3.218  0.2383 -1.1748 -0.4569
   80OSM    H8T 7205   0.946   0.845   3.072 -1.7970  0.4033 -0.5300
   80OSM    C9S 7206   0.857   0.776   3.255 -0.2986 -0.0331 -0.1957
   80OSM    H9S 7207   0.935   0.698   3.264  0.5815  0.9635  1.0332
   80OSM    H9T 7208   0.778   0.723   3.197  0.3533 -0.4643 -0.6926
   80OSM   C10S 7209   0.815   0.825   3.393  0.2402  0.3449 -0.5691
   80OSM   H10S 7210   0.730   0.894   3.380  0.6110  1.4097  1.9858
   80OSM   H10T 7211   0.892   0.891   3.440  1.0063 -2.3942  2.4231
   80OSM   C11S 7212   0.776   0.712   3.485 -0.4120  0.7205 -0.0108
   80OSM   H11S 7213   0.860   0.642   3.509 -0.5180  0.3183 -0.7814
   80OSM   H11T 7214   0.702   0.641   3.443 -0.2047  0.4966 -0.0037
   80OSM   C12S 7215   0.714   0.758   3.618  0.2056  0.0039  0.3790
   80OSM   H12S 7216   0.796   0.814   3.668  0.2171 -0.3020  0.7052
   80OSM   H12T 7217   0.686   0.669   3.678 -1.5302  1.1931  1.4432
   80OSM   C13S 7218   0.598   0.851   3.595  0.3526  0.0227  0.2629
   80OSM   H13S 7219   0.526   0.802   3.526  1.3756 -1.4579  0.2021
   80OSM   H13T 7220   0.646   0.946   3.564  1.9212 -1.2522 -1.3728
   80OSM   C14S 7221   0.510   0.878   3.715  0.4135 -0.3572 -0.3208
   80OSM   H14S 7222   0.476   0.788   3.771 -1.2719  0.6377  0.3264
   80OSM   H14T 7223   0.419   0.928   3.674 -0.1689 -0.8564  0.3361
   80OSM   C15S 7224   0.579   0.975   3.818 -0.2237 -0.3631  0.2702
   80OSM   H15S 7225   0.511   1.056   3.853 -0.4535  0.2191 -1.4297
   80OSM   H15T 7226   0.648   1.030   3.751  0.2243 -1.0874  0.1284
   80OSM   C16S 7227   0.644   0.898   3.936 -0.2661 -0.5272 -0.3263
   80OSM   H16S 7228   0.676   0.800   3.894 -1.0619  0.1702 -2.7178
   80OSM   H16T 7229   0.565   0.875   4.010 -0.9169 -1.9278 -1.4110
   80OSM   C17S 7230   0.755   0.971   4.019 -0.2683 -0.0845  0.0074
   80OSM   H17S 7231   0.836   0.995   3.948  1.0501 -0.3604  1.3549
   80OSM   H17T 7232   0.804   0.906   4.095 -1.2671  0.4490  1.1412
   80OSM   C18S 7233   0.703   1.101   4.083 -0.3652  0.6851  0.5729
   80OSM   H18S 7234   0.702   1.172   3.998 -0.9529 -0.2491 -0.2100
   80OSM   H18T 7235   0.774   1.131   4.164  0.2297 -0.3078  0.4238
   80OSM   H18U 7236   0.601   1.082   4.122 -0.8847  0.1949 -0.9544
   80OSM    C1F 7237   1.144   0.623   2.821  0.3232 -0.8181 -0.3194
   80OSM     OF 7238   1.258   0.648   2.789 -0.3933  1.0319 -0.1455
   80OSM    C2F 7239   1.095   0.505   2.901 -0.1415  0.5268 -0.4381
   80OSM    H2F 7240   1.033   0.437   2.839  0.9472  0.0336 -1.0016
   80OSM    H2G 7241   1.037   0.549   2.986 -1.0690 -0.9248 -0.2916
   80OSM    C3F 7242   1.201   0.427   2.969 -0.3341  0.5902 -0.3784
   80OSM    H3F 7243   1.284   0.492   3.004 -1.1059  0.7288  1.3035
   80OSM    H3G 7244   1.255   0.363   2.896 -2.3708 -2.1682  0.3498
   80OSM    C4F 7245   1.154   0.335   3.082 -0.4633  0.2855  0.4054
   80OSM    H4F 7246   1.110   0.250   3.026 -0.5218  0.8571 -0.4334
   80OSM    H4G 7247   1.086   0.394   3.148  0.4617  1.2675  0.5136
   80OSM    C5F 7248   1.265   0.277   3.168 -0.2180  0.5727 -0.3881
   80OSM    H5F 7249   1.336   0.352   3.210  0.4872  0.2918 -1.0587
   80OSM    H5G 7250   1.318   0.196   3.114 -0.6990  0.8661 -1.3185
   80OSM    C6F 7251   1.202   0.208   3.288  0.0852  0.7718  0.2110
   80OSM    H6F 7252   1.105   0.160   3.261 -0.9539  1.8421  1.8127
   80OSM    H6G 7253   1.171   0.289   3.358  0.0620 -0.8574  2.1750
   80OSM    C7F 7254   1.292   0.117   3.372 -0.5085  0.0973  0.7854
   80OSM    H7F 7255   1.381   0.168   3.416  0.6086 -1.2053  0.0943
   80OSM    H7G 7256   1.316   0.028   3.310 -3.4236 -1.7773  2.1257
   80OSM    C8F 7257   1.209   0.071   3.493  0.4203  0.2399 -0.4494
   80OSM    H8F 7258   1.116   0.015   3.470  1.1602 -3.2549  3.7218
   80OSM    H8G 7259   1.175   0.166   3.540  0.5078  0.5707 -1.0460
   80OSM    C9F 7260   1.278  -0.026   3.592 -0.7084  0.3329 -0.0004
   80OSM    H9F 7261   1.265  -0.133   3.574  1.3557 -0.0198  0.3207
   80OSM   C10F 7262   1.350   0.014   3.696  0.2434 -0.0271 -0.8088
   80OSM   H10F 7263   1.381  -0.067   3.763 -0.2678 -0.8485 -1.5540
   80OSM   C11F 7264   1.388   0.152   3.745 -0.2344 -0.3951  0.4723
   80OSM   H11F 7265   1.333   0.237   3.699 -0.3056 -0.0931  1.1155
   80OSM   H11G 7266   1.499   0.159   3.740 -0.2832 -0.4177 -1.7038
   80OSM   C12F 7267   1.361   0.179   3.893 -0.1926 -0.3697 -0.5440
   80OSM   H12F 7268   1.408   0.098   3.953 -0.7123  0.7505  1.4652
   80OSM   H12G 7269   1.252   0.175   3.913 -0.0784 -0.2137  0.1147
   80OSM   C13F 7270   1.418   0.309   3.956 -0.5576  0.5973  0.1301
   80OSM   H13F 7271   1.363   0.393   3.909 -0.5197  0.5420 -0.0130
   80OSM   H13G 7272   1.529   0.319   3.951 -0.5502 -0.0312 -2.0579
   80OSM   C14F 7273   1.381   0.310   4.101 -0.0145 -0.8418 -0.0585
   80OSM   H14F 7274   1.393   0.211   4.150 -0.4684 -0.9704 -0.2020
   80OSM   H14G 7275   1.273   0.329   4.123 -0.1486 -0.9644 -0.6135
   80OSM   C15F 7276   1.454   0.414   4.191 -0.3288 -0.6396 -0.4955
   80OSM   H15F 7277   1.450   0.515   4.143 -1.4496  0.4557  1.7296
   80OSM   H15G 7278   1.559   0.381   4.203 -0.1829  0.4315  1.5914
   80OSM   C16F 7279   1.394   0.424   4.329  0.8612 -0.4145 -0.7451
   80OSM   H16F 7280   1.414   0.339   4.398  0.0155 -0.2197 -0.2361
   80OSM   H16G 7281   1.283   0.431   4.316  0.9221 -1.1974 -1.7348
   80OSM   C17F 7282   1.438   0.551   4.404 -0.0078 -0.4313  0.2512
   80OSM   H17F 7283   1.360   0.581   4.477  0.6132  0.7686  0.4478
   80OSM   H17G 7284   1.445   0.625   4.322  0.9805 -2.9034 -2.0503
   80OSM   C18F 7285   1.569   0.545   4.482 -0.3661 -0.0789 -0.2639
   80OSM   H18F 7286   1.634   0.461   4.450 -1.0716 -0.8986  0.3993
   80OSM   H18G 7287   1.547   0.520   4.588 -0.2141 -0.0740 -0.2313
   80OSM   H18H 7288   1.622   0.643   4.472  0.0306 -0.4129 -1.5544
   81OSM      N 7289   3.053   6.096   1.954 -0.0309  0.0423 -0.1259
   81OSM    C15 7290   3.173   6.084   1.863  0.6334 -0.5409 -0.1855
   81OSM   H15A 7291   3.246   6.164   1.868  1.0369 -0.5679 -3.5635
   81OSM   H15B 7292   3.136   6.085   1.762  1.4580 -3.7582 -0.6311
   81OSM   H15C 7293   3.225   5.990   1.870  0.4137 -0.5486  2.0535
   81OSM    C14 7294   2.982   6.226   1.940 -0.4671  0.3324  0.3275
   81OSM   H14A 7295   2.896   6.219   2.006 -0.6484  2.1177  0.3329
   81OSM   H14B 7296   2.954   6.237   1.837 -1.5294  0.7615  0.6426
   81OSM   H14C 7297   3.047   6.304   1.977  1.4318 -1.4860  1.0171
   81OSM    C13 7298   2.959   5.987   1.918  0.7991  0.1619  0.7814
   81OSM   H13A 7299   2.878   5.989   1.989 -1.1831 -0.9403 -1.3284
   81OSM   H13B 7300   3.012   5.894   1.935 -1.0338 -1.6844 -2.5111
   81OSM   H13C 7301   2.924   5.982   1.816 -1.2086 -0.5643  1.4565
   81OSM    C12 7302   3.095   6.080   2.100 -0.2559  0.0742  0.3676
   81OSM   H12A 7303   3.142   5.983   2.111 -3.9569 -2.0624 -0.9733
   81OSM   H12B 7304   3.010   6.058   2.163 -1.3983 -1.7207 -1.6613
   81OSM    C11 7305   3.175   6.187   2.183 -0.4532  0.2429 -0.0745
   81OSM   H11A 7306   3.223   6.135   2.268  0.3360  0.4328 -0.4033
   81OSM   H11B 7307   3.098   6.256   2.225 -1.4478  0.3588 -1.9343
   81OSM      P 7308   3.415   6.204   2.091  0.2710  0.1824 -0.0093
   81OSM    O13 7309   3.425   6.053   2.094 -0.2925 -0.1440 -0.0064
   81OSM    O14 7310   3.471   6.280   1.972 -0.6010  0.0167 -0.3560
   81OSM    O11 7311   3.503   6.252   2.216  0.2266 -0.3344 -0.1899
   81OSM    O12 7312   3.281   6.255   2.126  0.0056 -0.7079  0.3768
   81OSM    C1S 7313   3.464   6.334   2.327 -0.3604 -0.2839  0.2590
   81OSM    H1S 7314   3.378   6.399   2.298  0.5508 -0.2443 -2.7175
   81OSM    H1T 7315   3.544   6.408   2.349  0.5100 -0.8559 -0.8589
   81OSM     NF 7316   3.382   6.330   2.574  0.9959 -0.3033  0.4110
   81OSM    HNF 7317   3.445   6.319   2.651  2.8970  0.6868 -0.9114
   81OSM    C2S 7318   3.419   6.254   2.460  0.0455  0.7908  0.0272
   81OSM    H2S 7319   3.333   6.186   2.441  0.4131  0.3803 -0.1801
   81OSM    C3S 7320   3.547   6.156   2.495 -0.1336  0.0804  0.3659
   81OSM    H3S 7321   3.633   6.222   2.520  1.6585 -2.5296  1.6554
   81OSM     O3 7322   3.614   6.086   2.385 -0.6151 -0.3270 -0.1248
   81OSM    HO3 7323   3.584   6.127   2.303  1.6356 -1.1098 -1.4231
   81OSM    C4S 7324   3.508   6.076   2.621 -0.0158 -0.3761 -0.0068
   81OSM    H4S 7325   3.532   6.131   2.714 -2.2644  2.5576 -0.9685
   81OSM    C5S 7326   3.461   5.951   2.632  0.1152  0.5871  0.2973
   81OSM    H5S 7327   3.455   5.893   2.539  0.6146  1.0995 -0.0685
   81OSM    C6S 7328   3.431   5.870   2.763  0.2413  0.7347 -0.0819
   81OSM    H6S 7329   3.494   5.778   2.768  0.1316  0.6297 -0.5461
   81OSM    H6T 7330   3.325   5.840   2.779  0.8360  0.0705  3.5508
   81OSM    C7S 7331   3.470   5.938   2.902 -0.9979 -0.0491 -0.2402
   81OSM    H7S 7332   3.419   6.035   2.925 -0.7163  0.1311 -0.3718
   81OSM    H7T 7333   3.581   5.946   2.907 -0.9290 -1.0410  0.0605
   81OSM    C8S 7334   3.434   5.844   3.021 -0.4123 -0.5577  0.1370
   81OSM    H8S 7335   3.461   5.739   2.997 -1.7629 -0.7966 -0.4483
   81OSM    H8T 7336   3.323   5.846   3.027 -0.4829  0.3625 -1.1818
   81OSM    C9S 7337   3.494   5.885   3.160 -0.2697  0.2935  0.4880
   81OSM    H9S 7338   3.481   5.995   3.161  0.2128  0.4600 -2.2128
   81OSM    H9T 7339   3.604   5.871   3.164 -0.2049  0.9726  1.4284
   81OSM   C10S 7340   3.424   5.813   3.277 -0.2015  0.3169 -0.5619
   81OSM   H10S 7341   3.454   5.707   3.286 -1.8475 -0.0512  1.2919
   81OSM   H10T 7342   3.314   5.808   3.268 -0.3667 -2.3139  1.7371
   81OSM   C11S 7343   3.457   5.885   3.407  0.3331  0.3665  0.5068
   81OSM   H11S 7344   3.413   5.986   3.400  1.3027  0.7348 -0.5896
   81OSM   H11T 7345   3.567   5.901   3.414  0.5248  0.3759 -1.8321
   81OSM   C12S 7346   3.405   5.804   3.524  0.5539  0.0097 -0.1199
   81OSM   H12S 7347   3.443   5.699   3.525 -1.0014 -0.6085 -1.4877
   81OSM   H12T 7348   3.294   5.806   3.513  0.6370 -0.1114 -1.0083
   81OSM   C13S 7349   3.459   5.865   3.659  0.2038  0.2827 -0.4031
   81OSM   H13S 7350   3.430   5.972   3.666  0.6683  0.4527 -1.0166
   81OSM   H13T 7351   3.570   5.860   3.650  0.2034 -1.1498  0.1653
   81OSM   C14S 7352   3.426   5.777   3.781 -0.0690  0.0807 -0.3055
   81OSM   H14S 7353   3.421   5.668   3.762 -3.0260 -0.0562  0.7098
   81OSM   H14T 7354   3.322   5.798   3.812 -0.2393 -0.7301 -0.3083
   81OSM   C15S 7355   3.515   5.803   3.906 -0.3982  0.2012  0.2747
   81OSM   H15S 7356   3.519   5.913   3.922 -1.2643  0.1619  0.8877
   81OSM   H15T 7357   3.620   5.767   3.896 -0.1099  1.2981 -0.8604
   81OSM   C16S 7358   3.445   5.741   4.029 -0.0521 -0.2754 -0.0172
   81OSM   H16S 7359   3.448   5.630   4.019 -2.2360 -0.1794 -4.0694
   81OSM   H16T 7360   3.338   5.769   4.044  0.4131 -0.2515  4.7662
   81OSM   C17S 7361   3.495   5.795   4.160 -0.4184 -0.1264 -0.2895
   81OSM   H17S 7362   3.422   5.853   4.221 -1.3853 -1.3632 -0.2329
   81OSM   H17T 7363   3.579   5.866   4.140  1.6564 -2.1227  0.8789
   81OSM   C18S 7364   3.575   5.693   4.241  0.7151 -0.2381  0.5641
   81OSM   H18S 7365   3.505   5.628   4.298 -1.0141  1.5919  0.6072
   81OSM   H18T 7366   3.646   5.741   4.312 -1.5350  0.9957  2.0966
   81OSM   H18U 7367   3.629   5.630   4.166  0.3566 -0.4699  0.4958
   81OSM    C1F 7368   3.284   6.414   2.566  0.2289  0.2633 -0.9169
   81OSM     OF 7369   3.197   6.405   2.479  0.6179  0.3966 -0.7426
   81OSM    C2F 7370   3.278   6.522   2.668  0.4635 -0.4323  0.7160
   81OSM    H2F 7371   3.354   6.593   2.631  0.0267 -0.0439  0.5572
   81OSM    H2G 7372   3.300   6.487   2.772 -2.2612 -1.4069  1.0558
   81OSM    C3F 7373   3.141   6.591   2.665  0.5368  0.3703  0.6351
   81OSM    H3F 7374   3.058   6.524   2.697 -0.4611  0.5880 -1.3683
   81OSM    H3G 7375   3.117   6.613   2.559  1.7910 -1.8692 -0.2025
   81OSM    C4F 7376   3.141   6.707   2.760  0.3539 -0.4182 -1.1007
   81OSM    H4F 7377   3.067   6.786   2.732 -1.3117 -2.1225 -1.6843
   81OSM    H4G 7378   3.244   6.745   2.775 -0.7199  1.8496  1.6495
   81OSM    C5F 7379   3.100   6.659   2.898  0.2710 -0.3125 -0.7223
   81OSM    H5F 7380   3.171   6.588   2.946  0.8968 -0.1546 -1.4071
   81OSM    H5G 7381   3.005   6.602   2.881  0.1187  0.2526 -1.8861
   81OSM    C6F 7382   3.062   6.768   2.998  0.0305 -0.3126 -0.2302
   81OSM    H6F 7383   2.980   6.829   2.954  0.3703  0.1900 -0.1751
   81OSM    H6G 7384   3.150   6.833   3.016 -0.3111  0.3202 -0.8080
   81OSM    C7F 7385   3.022   6.711   3.136 -0.5570  0.0790  0.1084
   81OSM    H7F 7386   2.940   6.636   3.141  0.2175 -0.7619  0.4860
   81OSM    H7G 7387   2.970   6.791   3.192  0.2385  0.3741  0.4383
   81OSM    C8F 7388   3.131   6.676   3.233  0.6587 -0.0611  0.0333
   81OSM    H8F 7389   3.207   6.606   3.191  1.1120 -0.9022  2.1162
   81OSM    H8G 7390   3.072   6.612   3.303 -0.6107 -0.4777 -1.3586
   81OSM    C9F 7391   3.194   6.790   3.304 -0.5583 -0.1901 -0.1955
   81OSM    H9F 7392   3.242   6.864   3.239  1.0315 -0.8722  0.1476
   81OSM   C10F 7393   3.207   6.808   3.437  0.2385 -0.2304  0.1877
   81OSM   H10F 7394   3.255   6.902   3.466 -0.8808  0.9638 -1.6448
   81OSM   C11F 7395   3.160   6.711   3.550 -0.2506 -0.5401 -0.2790
   81OSM   H11F 7396   3.158   6.605   3.515  1.3260 -1.6514  2.6431
   81OSM   H11G 7397   3.063   6.734   3.599 -2.0311 -0.6652 -3.5052
   81OSM   C12F 7398   3.271   6.695   3.653 -0.2941 -0.3398  0.1477
   81OSM   H12F 7399   3.371   6.706   3.606  0.2577  1.9316  1.6755
   81OSM   H12G 7400   3.271   6.591   3.691 -1.0579 -0.7781 -1.0055
   81OSM   C13F 7401   3.258   6.803   3.767 -0.0698  0.4320 -0.0290
   81OSM   H13F 7402   3.210   6.885   3.710  0.6122 -0.1299 -1.4673
   81OSM   H13G 7403   3.364   6.824   3.792 -0.5135  0.8619  1.6173
   81OSM   C14F 7404   3.181   6.752   3.886  0.7981 -0.1538  0.3620
   81OSM   H14F 7405   3.092   6.698   3.848  0.4727  1.5239 -1.4286
   81OSM   H14G 7406   3.149   6.827   3.963  0.6882  0.4135 -0.2280
   81OSM   C15F 7407   3.272   6.654   3.961 -0.1597  0.4197  0.6219
   81OSM   H15F 7408   3.378   6.687   3.972 -0.5001  1.4431  0.9956
   81OSM   H15G 7409   3.277   6.558   3.906 -1.7049  0.9913 -0.5770
   81OSM   C16F 7410   3.209   6.628   4.099  0.3158 -0.1447  0.3076
   81OSM   H16F 7411   3.102   6.600   4.086  0.0418  1.0253 -0.0715
   81OSM   H16G 7412   3.221   6.722   4.158  2.3913  0.3029 -0.7342
   81OSM   C17F 7413   3.299   6.516   4.170 -0.0132  0.5776 -0.2524
   81OSM   H17F 7414   3.293   6.524   4.280  1.3500 -0.9092 -0.0490
   81OSM   H17G 7415   3.409   6.529   4.165 -0.2121  2.0993 -1.7995
   81OSM   C18F 7416   3.266   6.373   4.115  0.1495 -0.4828 -0.4738
   81OSM   H18F 7417   3.301   6.300   4.192  1.6521 -1.9881 -2.4743
   81OSM   H18G 7418   3.319   6.361   4.018 -2.5527 -1.0505 -1.9749
   81OSM   H18H 7419   3.156   6.368   4.109  0.1561  0.1381 -1.1821
   82OSM      N 7420   3.399   5.474   2.235  0.4093  0.4801  0.7228
   82OSM    C15 7421   3.533   5.542   2.217  0.0801  0.5721  0.7321
   82OSM   H15A 7422   3.523   5.650   2.216 -1.0017  0.4855 -0.1618
   82OSM   H15B 7423   3.578   5.502   2.127  0.8254  0.6566  1.0636
   82OSM   H15C 7424   3.598   5.505   2.294 -0.2650 -1.6028  0.0375
   82OSM    C14 7425   3.410   5.325   2.241  0.9313  0.3992  0.2185
   82OSM   H14A 7426   3.434   5.287   2.143 -1.2216 -0.2724 -0.1079
   82OSM   H14B 7427   3.319   5.274   2.269 -0.8656  1.6826 -2.7691
   82OSM   H14C 7428   3.478   5.299   2.321 -0.1765  1.7602  1.6894
   82OSM    C13 7429   3.354   5.531   2.363  0.5911  0.3758  0.9188
   82OSM   H13A 7430   3.428   5.504   2.437 -0.0977 -0.1366  1.4302
   82OSM   H13B 7431   3.256   5.492   2.385 -0.2490  1.2065 -1.1404
   82OSM   H13C 7432   3.344   5.639   2.369 -1.5306  0.2547  0.2581
   82OSM    C12 7433   3.305   5.510   2.119 -0.0793 -0.6593  0.0884
   82OSM   H12A 7434   3.342   5.468   2.026  0.7412 -0.6950  0.4233
   82OSM   H12B 7435   3.309   5.618   2.111  1.2405 -0.7174 -0.2856
   82OSM    C11 7436   3.160   5.477   2.125  0.3422  1.1260  0.1347
   82OSM   H11A 7437   3.148   5.374   2.165  1.1593  1.5846  1.6837
   82OSM   H11B 7438   3.102   5.475   2.031 -1.0001  2.5019  0.8749
   82OSM      P 7439   3.044   5.711   2.166 -0.1629 -0.1770  0.1042
   82OSM    O13 7440   3.158   5.797   2.137 -0.3510  0.4996  0.1910
   82OSM    O14 7441   2.954   5.684   2.055 -0.3561  0.0382  0.3907
   82OSM    O11 7442   2.960   5.767   2.286 -0.0101 -0.7722 -0.6455
   82OSM    O12 7443   3.100   5.569   2.216 -0.0199  0.0846 -0.7242
   82OSM    C1S 7444   2.951   5.708   2.416  0.3030 -0.1109 -0.4173
   82OSM    H1S 7445   2.963   5.597   2.416 -0.0783 -0.2232  2.3421
   82OSM    H1T 7446   2.849   5.720   2.457  0.5246  1.0292 -0.1588
   82OSM     NF 7447   3.034   5.701   2.651 -0.4516  0.1960  0.0008
   82OSM    HNF 7448   2.956   5.739   2.700 -0.1176 -0.2090  0.8614
   82OSM    C2S 7449   3.045   5.774   2.524 -0.0833  0.2153 -0.6162
   82OSM    H2S 7450   3.149   5.751   2.490 -1.5717 -1.5640 -4.5786
   82OSM    C3S 7451   3.024   5.927   2.534 -1.0774 -0.0231  0.6517
   82OSM    H3S 7452   2.916   5.947   2.549 -0.8388  1.4871  0.4425
   82OSM     O3 7453   3.053   6.001   2.412  0.7621  0.4507 -0.3548
   82OSM    HO3 7454   3.082   5.927   2.358  1.0039  0.5804 -0.4069
   82OSM    C4S 7455   3.097   5.991   2.652 -0.5624  0.2736  0.2590
   82OSM    H4S 7456   3.200   5.955   2.662 -0.0778  1.7471  0.9462
   82OSM    C5S 7457   3.045   6.077   2.740  0.3844  0.1888  0.8437
   82OSM    H5S 7458   2.940   6.108   2.728  0.6591  1.1465  0.8358
   82OSM    C6S 7459   3.125   6.109   2.861 -0.0552  0.2425 -0.1283
   82OSM    H6S 7460   3.200   6.185   2.832 -1.0495  1.4255  0.3119
   82OSM    H6T 7461   3.177   6.016   2.892 -2.8665 -0.8637  1.6892
   82OSM    C7S 7462   3.053   6.164   2.992  0.9166  0.1516  0.3505
   82OSM    H7S 7463   3.123   6.163   3.078 -2.1943  0.0465  3.0570
   82OSM    H7T 7464   2.974   6.089   3.014  1.9819 -0.5585  1.8854
   82OSM    C8S 7465   2.974   6.297   2.972  0.6071  0.1676  0.0068
   82OSM    H8S 7466   2.920   6.296   2.874  1.9047  1.7185 -0.7668
   82OSM    H8T 7467   3.052   6.375   2.968  1.2018 -0.0832  3.7372
   82OSM    C9S 7468   2.878   6.331   3.083 -0.4980 -0.7602  0.1712
   82OSM    H9S 7469   2.797   6.255   3.077  0.4530 -1.8950  1.2250
   82OSM    H9T 7470   2.832   6.429   3.057  2.2236  0.0859 -1.8575
   82OSM   C10S 7471   2.950   6.345   3.218 -0.0777  1.6137  0.2591
   82OSM   H10S 7472   3.041   6.410   3.214  0.2960  1.1573  1.0837
   82OSM   H10T 7473   2.987   6.244   3.244 -1.4782  0.1800 -2.7738
   82OSM   C11S 7474   2.854   6.400   3.323 -0.7077 -0.6850  0.5274
   82OSM   H11S 7475   2.778   6.321   3.345  0.5610 -1.7749  1.1555
   82OSM   H11T 7476   2.800   6.486   3.278 -2.0571 -1.8841 -0.2538
   82OSM   C12S 7477   2.909   6.447   3.455 -0.1455  0.1526  0.2713
   82OSM   H12S 7478   2.848   6.532   3.494  1.0836  0.8214  0.8096
   82OSM   H12T 7479   3.012   6.486   3.443 -0.8477  1.8492 -0.5602
   82OSM   C13S 7480   2.905   6.346   3.572  0.1897  0.2067  0.0419
   82OSM   H13S 7481   2.822   6.271   3.567  2.9088 -2.9515 -1.6049
   82OSM   H13T 7482   2.893   6.403   3.666  2.2574 -1.6601  1.5291
   82OSM   C14S 7483   3.037   6.268   3.590  0.9486 -0.0701  0.0067
   82OSM   H14S 7484   3.127   6.334   3.590  1.8242 -1.2141  0.6725
   82OSM   H14T 7485   3.041   6.191   3.510 -1.7639 -2.4328  1.9593
   82OSM   C15S 7486   3.033   6.200   3.724  0.1696 -0.4223 -0.2427
   82OSM   H15S 7487   2.928   6.162   3.732 -0.4988  1.6476  2.3967
   82OSM   H15T 7488   3.055   6.265   3.811  2.8118 -1.5008 -0.0244
   82OSM   C16S 7489   3.143   6.092   3.728  0.0460  0.0202  0.2168
   82OSM   H16S 7490   3.230   6.148   3.689 -1.7723  1.0877 -2.6879
   82OSM   H16T 7491   3.126   6.019   3.645  0.5034  1.9396 -1.6509
   82OSM   C17S 7492   3.168   6.038   3.862  0.5296 -0.0420  0.0400
   82OSM   H17S 7493   3.179   6.108   3.947 -1.2483 -1.2899  1.3712
   82OSM   H17T 7494   3.268   5.991   3.852  0.0115 -1.2814  0.4566
   82OSM   C18S 7495   3.062   5.945   3.909  0.6558  0.6203 -0.4657
   82OSM   H18S 7496   2.975   5.996   3.955  1.4705  0.0368  1.8218
   82OSM   H18T 7497   3.106   5.871   3.979 -2.8089  1.8915  3.4164
   82OSM   H18U 7498   3.035   5.890   3.816  1.7160 -0.9923  0.1332
   82OSM    C1F 7499   3.083   5.582   2.675 -0.2457  0.1909  0.1424
   82OSM     OF 7500   3.164   5.534   2.592 -0.1089 -0.3962 -0.0063
   82OSM    C2F 7501   3.036   5.512   2.805 -0.4344  0.1606 -0.4215
   82OSM    H2F 7502   2.988   5.417   2.771 -0.1959  0.3449 -1.2886
   82OSM    H2G 7503   2.959   5.579   2.847 -0.1237 -0.1016  0.6090
   82OSM    C3F 7504   3.161   5.484   2.898  0.7389  0.0003  0.2605
   82OSM    H3F 7505   3.228   5.571   2.913  1.8991 -0.7766 -0.2911
   82OSM    H3G 7506   3.232   5.410   2.858  1.7714  0.2297  1.5766
   82OSM    C4F 7507   3.122   5.417   3.031  0.4928  0.4972 -0.6423
   82OSM    H4F 7508   3.049   5.336   3.007  2.0676 -1.2161  0.0661
   82OSM    H4G 7509   3.095   5.505   3.093  1.6052  1.1078 -1.0208
   82OSM    C5F 7510   3.237   5.343   3.105  0.0805  0.8050  0.3058
   82OSM    H5F 7511   3.318   5.417   3.120  0.8576 -0.0280  0.2867
   82OSM    H5G 7512   3.270   5.276   3.022  0.4659  0.2353  0.9078
   82OSM    C6F 7513   3.211   5.267   3.235  0.4076 -0.4441  0.1668
   82OSM    H6F 7514   3.124   5.199   3.243  0.4006 -0.3950  0.5272
   82OSM    H6G 7515   3.207   5.340   3.319  4.0658  1.5599 -1.1607
   82OSM    C7F 7516   3.337   5.189   3.279  0.1517 -0.3927 -0.7500
   82OSM    H7F 7517   3.432   5.239   3.248 -0.2901  0.0099 -1.4869
   82OSM    H7G 7518   3.333   5.089   3.231 -0.2961 -1.1498  0.8303
   82OSM    C8F 7519   3.349   5.181   3.433  0.1071  0.5481 -0.4623
   82OSM    H8F 7520   3.433   5.110   3.449 -0.9531 -0.2366  1.9862
   82OSM    H8G 7521   3.261   5.124   3.469  1.6137 -2.1721 -0.7546
   82OSM    C9F 7522   3.374   5.312   3.512 -0.7054 -0.1299  0.7274
   82OSM    H9F 7523   3.464   5.367   3.480 -0.7616  0.8647  2.2245
   82OSM   C10F 7524   3.305   5.368   3.611  0.2004  0.4413 -0.4342
   82OSM   H10F 7525   3.344   5.461   3.653 -1.8230  1.0247  0.2667
   82OSM   C11F 7526   3.186   5.314   3.685 -0.3053 -0.2653 -0.4687
   82OSM   H11F 7527   3.209   5.309   3.794  0.9539 -2.6352 -0.7681
   82OSM   H11G 7528   3.162   5.214   3.643 -0.8068  0.7566 -2.7779
   82OSM   C12F 7529   3.058   5.395   3.639  0.0321 -0.7220 -0.3738
   82OSM   H12F 7530   2.973   5.342   3.687 -1.0316  1.4580  0.2369
   82OSM   H12G 7531   3.048   5.373   3.531  1.9354 -1.0113 -0.5404
   82OSM   C13F 7532   3.061   5.539   3.666 -0.5466 -0.5245 -1.1133
   82OSM   H13F 7533   3.144   5.567   3.734  0.4219 -1.4522 -1.8916
   82OSM   H13G 7534   2.967   5.576   3.713  0.3779  0.7959 -0.2532
   82OSM   C14F 7535   3.077   5.635   3.546  0.0193  0.6175 -0.5417
   82OSM   H14F 7536   3.169   5.600   3.494  0.7453 -1.3624  1.8646
   82OSM   H14G 7537   3.092   5.741   3.578  0.3361  0.7088 -0.9887
   82OSM   C15F 7538   2.953   5.631   3.442 -0.5469 -0.1734  0.0713
   82OSM   H15F 7539   2.873   5.678   3.503  0.1179  0.3852  0.5262
   82OSM   H15G 7540   2.924   5.525   3.422  2.6605 -0.8580 -1.8009
   82OSM   C16F 7541   2.985   5.706   3.306  0.2287 -0.1661 -0.7793
   82OSM   H16F 7542   3.081   5.660   3.273  0.8175  1.3303 -1.2618
   82OSM   H16G 7543   3.001   5.815   3.317  2.8231 -0.0348 -4.1750
   82OSM   C17F 7544   2.880   5.676   3.198  0.3838 -0.3603  0.7620
   82OSM   H17F 7545   2.778   5.665   3.241  0.2619 -1.0447  0.3150
   82OSM   H17G 7546   2.900   5.582   3.142 -0.9365 -2.6396  3.8371
   82OSM   C18F 7547   2.878   5.788   3.088  0.0571 -0.4966  0.3327
   82OSM   H18F 7548   2.784   5.778   3.030  1.1643 -1.0456 -1.4825
   82OSM   H18G 7549   2.973   5.783   3.030 -0.0797  1.9202 -0.1730
   82OSM   H18H 7550   2.869   5.887   3.136  0.3352  0.7134 -1.9682
   83OSM      N 7551   6.163   6.224   1.692  0.6074  0.3046 -0.3030
   83OSM    C15 7552   6.038   6.173   1.771 -0.4838 -0.1496  0.7265
   83OSM   H15A 7553   5.984   6.104   1.710  1.0285  0.2731 -1.1936
   83OSM   H15B 7554   5.983   6.253   1.820 -1.1541 -0.0747 -0.1326
   83OSM   H15C 7555   6.086   6.119   1.851  0.6811 -0.1806  0.0300
   83OSM    C14 7556   6.123   6.277   1.565  0.1412  0.6134  1.5139
   83OSM   H14A 7557   6.083   6.192   1.511  1.3477 -0.0558  1.6249
   83OSM   H14B 7558   6.192   6.333   1.504  0.1721 -0.9056  0.0879
   83OSM   H14C 7559   6.044   6.350   1.574 -1.2731 -0.9205  2.0166
   83OSM    C13 7560   6.215   6.341   1.765 -0.3920 -0.6283 -0.7249
   83OSM   H13A 7561   6.147   6.424   1.770  0.5035  0.0964 -0.3895
   83OSM   H13B 7562   6.295   6.391   1.713 -2.1739  1.2627 -1.7768
   83OSM   H13C 7563   6.241   6.317   1.867  2.8863  0.1665 -1.2506
   83OSM    C12 7564   6.272   6.116   1.680 -0.2375 -0.2571 -0.0492
   83OSM   H12A 7565   6.357   6.153   1.625 -1.3539  0.2594 -1.4872
   83OSM   H12B 7566   6.235   6.025   1.636 -0.9393  0.1203 -0.2447
   83OSM    C11 7567   6.336   6.060   1.810 -0.0904 -0.0940  0.1420
   83OSM   H11A 7568   6.390   6.146   1.854  1.9162 -0.7834 -0.8363
   83OSM   H11B 7569   6.412   5.985   1.778  0.3070  1.3032 -2.5172
   83OSM      P 7570   6.189   5.848   1.867 -0.2843  0.2533  0.2757
   83OSM    O13 7571   6.045   5.829   1.904  0.1933  0.0985 -0.2092
   83OSM    O14 7572   6.216   5.812   1.728  0.1007  0.3258  0.2905
   83OSM    O11 7573   6.279   5.748   1.955  0.1610 -0.0084 -0.5811
   83OSM    O12 7574   6.233   6.001   1.893 -0.7054  0.0075  0.2803
   83OSM    C1S 7575   6.381   5.800   2.034 -0.1097  0.0116  0.2567
   83OSM    H1S 7576   6.440   5.884   1.993 -0.6144  0.1335 -0.2346
   83OSM    H1T 7577   6.455   5.722   2.060  0.5664  0.6006  0.1332
   83OSM     NF 7578   6.469   5.907   2.247 -0.1599 -0.1195  0.4668
   83OSM    HNF 7579   6.529   5.841   2.292 -1.4363 -1.1444  0.7388
   83OSM    C2S 7580   6.342   5.845   2.178 -0.4505  0.1360 -0.9437
   83OSM    H2S 7581   6.268   5.927   2.166 -1.6711 -0.3135  2.4060
   83OSM    C3S 7582   6.274   5.738   2.266 -0.1953 -0.1509  0.5011
   83OSM    H3S 7583   6.352   5.662   2.287 -1.9794 -1.9527  0.9364
   83OSM     O3 7584   6.185   5.654   2.192 -0.0910  0.3130  0.2504
   83OSM    HO3 7585   6.208   5.666   2.099 -0.2523 -3.3747 -0.4348
   83OSM    C4S 7586   6.218   5.789   2.392  0.6082  0.3472 -0.5034
   83OSM    H4S 7587   6.283   5.773   2.480  1.6670 -0.0291 -1.3364
   83OSM    C5S 7588   6.110   5.871   2.410  0.4122  0.1666 -1.6006
   83OSM    H5S 7589   6.059   5.913   2.321 -1.1970  1.9914  0.0876
   83OSM    C6S 7590   6.078   5.948   2.537 -0.4776 -0.1065 -0.5491
   83OSM    H6S 7591   5.974   5.917   2.558 -0.0133 -0.9037  0.6312
   83OSM    H6T 7592   6.072   6.057   2.517 -3.7666  0.0629  0.8422
   83OSM    C7S 7593   6.177   5.938   2.654  0.2383  0.3159  0.5296
   83OSM    H7S 7594   6.275   5.960   2.606  0.8243 -1.0245  1.0770
   83OSM    H7T 7595   6.175   5.834   2.694  1.9189 -0.5171 -1.3809
   83OSM    C8S 7596   6.152   6.050   2.753 -0.3852  0.3466  0.4481
   83OSM    H8S 7597   6.047   6.057   2.788 -0.3965 -0.7983  0.6664
   83OSM    H8T 7598   6.167   6.150   2.706 -1.9158  1.5079  2.2830
   83OSM    C9S 7599   6.223   6.041   2.891  0.3375  0.7746 -0.6022
   83OSM    H9S 7600   6.216   6.147   2.925  1.3548  0.8240 -0.4953
   83OSM    H9T 7601   6.327   6.007   2.871  0.0261 -1.8915  1.7327
   83OSM   C10S 7602   6.145   5.954   2.988  0.0214 -0.2673 -0.0515
   83OSM   H10S 7603   6.157   5.849   2.952 -2.5561 -0.7266  0.2054
   83OSM   H10T 7604   6.035   5.972   2.986 -0.0074 -0.3905  0.3470
   83OSM   C11S 7605   6.178   5.986   3.137 -0.0825  0.0876  0.2090
   83OSM   H11S 7606   6.119   5.915   3.199  1.6361  0.5741  2.5435
   83OSM   H11T 7607   6.148   6.089   3.167 -0.4636 -0.2512  1.0392
   83OSM   C12S 7608   6.323   5.970   3.162 -0.4258  0.6698 -0.1442
   83OSM   H12S 7609   6.384   6.001   3.075  0.7994 -1.7970 -0.2533
   83OSM   H12T 7610   6.350   5.862   3.169  1.7183  1.1139 -0.9221
   83OSM   C13S 7611   6.371   6.040   3.288  0.2583  0.0585 -0.9692
   83OSM   H13S 7612   6.328   6.141   3.303  0.3092 -0.2154  1.3805
   83OSM   H13T 7613   6.479   6.065   3.289 -0.1300  2.0919  1.7610
   83OSM   C14S 7614   6.329   5.956   3.410 -0.3156 -0.4181 -0.7228
   83OSM   H14S 7615   6.398   5.869   3.417  0.4390  0.2125 -0.0070
   83OSM   H14T 7616   6.223   5.924   3.401 -0.9397  1.5022 -0.5377
   83OSM   C15S 7617   6.358   6.026   3.548 -0.2082  0.1099 -0.5124
   83OSM   H15S 7618   6.304   6.122   3.561 -1.5166 -0.5569 -0.9267
   83OSM   H15T 7619   6.466   6.054   3.544  0.2863 -1.1504  2.1075
   83OSM   C16S 7620   6.316   5.940   3.669 -0.6114 -0.1228 -0.3606
   83OSM   H16S 7621   6.394   5.861   3.664 -0.3738  0.0115  0.9394
   83OSM   H16T 7622   6.212   5.901   3.665 -1.1108  1.1858 -0.6834
   83OSM   C17S 7623   6.339   6.017   3.799 -0.0866  0.0526  0.8146
   83OSM   H17S 7624   6.253   6.083   3.819 -0.6777 -0.6503  0.6340
   83OSM   H17T 7625   6.427   6.084   3.786 -0.5005  0.2978 -1.0003
   83OSM   C18S 7626   6.359   5.928   3.927  0.6994  0.0550  0.4379
   83OSM   H18S 7627   6.416   5.982   4.005 -0.0179  2.3698 -0.5423
   83OSM   H18T 7628   6.414   5.836   3.898 -0.2807 -0.8182  1.2564
   83OSM   H18U 7629   6.263   5.894   3.972  0.2964 -0.0821 -0.4796
   83OSM    C1F 7630   6.518   6.025   2.200 -0.5608  0.2511  0.0148
   83OSM     OF 7631   6.464   6.110   2.127 -0.3912 -0.5679 -0.4300
   83OSM    C2F 7632   6.660   6.051   2.230 -0.1814  0.6398  0.0357
   83OSM    H2F 7633   6.710   6.088   2.137 -1.5690 -2.8969 -2.3276
   83OSM    H2G 7634   6.708   5.956   2.262 -0.4386  1.5796  3.5455
   83OSM    C3F 7635   6.670   6.142   2.353  0.2338 -0.4088  1.0505
   83OSM    H3F 7636   6.619   6.239   2.334  2.0457  0.4202  0.1950
   83OSM    H3G 7637   6.779   6.163   2.356  0.3923 -0.0528 -2.4005
   83OSM    C4F 7638   6.626   6.074   2.478 -0.0429  0.3096 -0.2474
   83OSM    H4F 7639   6.678   5.976   2.490  0.5680  0.6875  0.2545
   83OSM    H4G 7640   6.518   6.051   2.491  0.7608 -3.4208  1.0902
   83OSM    C5F 7641   6.664   6.155   2.606 -0.3408 -0.1984  0.2158
   83OSM    H5F 7642   6.592   6.239   2.614  0.9716  1.1306 -1.2712
   83OSM    H5G 7643   6.772   6.175   2.589 -0.6908 -0.2955 -2.6576
   83OSM    C6F 7644   6.644   6.072   2.736 -0.2769 -0.8865  0.2989
   83OSM    H6F 7645   6.701   5.977   2.729  0.3921 -0.3956 -1.4224
   83OSM    H6G 7646   6.537   6.041   2.739 -0.4989 -0.2455 -0.5250
   83OSM    C7F 7647   6.666   6.147   2.871  0.2312  0.1729  0.3495
   83OSM    H7F 7648   6.757   6.210   2.860  1.0540 -1.2461 -1.6965
   83OSM    H7G 7649   6.678   6.062   2.941 -0.0513  0.9478  1.3654
   83OSM    C8F 7650   6.547   6.239   2.906 -0.0838 -0.2009  0.0850
   83OSM    H8F 7651   6.454   6.197   2.862 -0.6598  1.0466  0.0643
   83OSM    H8G 7652   6.550   6.343   2.867  2.0660 -0.2721 -0.0298
   83OSM    C9F 7653   6.528   6.239   3.055  0.6708 -0.2213  0.1310
   83OSM    H9F 7654   6.515   6.138   3.095 -1.0304 -1.0017 -2.1817
   83OSM   C10F 7655   6.532   6.346   3.138 -0.4186  0.4516  0.9887
   83OSM   H10F 7656   6.510   6.347   3.246 -1.6703 -1.2751  0.7957
   83OSM   C11F 7657   6.576   6.488   3.094  0.4856  0.0154  0.6192
   83OSM   H11F 7658   6.608   6.491   2.988 -0.2447 -0.7782  0.3731
   83OSM   H11G 7659   6.663   6.518   3.157 -1.1479 -0.3969  3.1875
   83OSM   C12F 7660   6.458   6.579   3.120  0.0484 -0.4656  0.5477
   83OSM   H12F 7661   6.435   6.575   3.228 -0.3263  3.2163  0.7195
   83OSM   H12G 7662   6.368   6.549   3.062  0.0618  1.2746 -0.4508
   83OSM   C13F 7663   6.490   6.729   3.097 -0.3529  0.1604 -0.5497
   83OSM   H13F 7664   6.568   6.750   3.174  1.2115  0.0919 -2.0561
   83OSM   H13G 7665   6.407   6.791   3.137  0.1009 -0.3732  1.3366
   83OSM   C14F 7666   6.534   6.773   2.961 -0.4087 -0.7417 -0.4972
   83OSM   H14F 7667   6.625   6.716   2.931  0.4375 -0.3442  1.2299
   83OSM   H14G 7668   6.573   6.876   2.977  0.9985 -1.4522  0.8866
   83OSM   C15F 7669   6.429   6.771   2.843 -0.2602 -0.3341  0.1352
   83OSM   H15F 7670   6.382   6.671   2.858  3.1672 -2.0156  0.5796
   83OSM   H15G 7671   6.480   6.768   2.745 -1.5537 -0.1839 -0.5694
   83OSM   C16F 7672   6.334   6.894   2.853 -0.3594  0.6027 -0.4348
   83OSM   H16F 7673   6.382   6.994   2.839  0.3821  0.2857 -0.1780
   83OSM   H16G 7674   6.280   6.879   2.948  0.1524 -2.8349 -0.5863
   83OSM   C17F 7675   6.230   6.891   2.738 -0.2400  1.8110  0.3392
   83OSM   H17F 7676   6.149   6.821   2.768 -0.6795  1.1991 -2.0652
   83OSM   H17G 7677   6.279   6.859   2.644  2.0838  0.8418  1.7994
   83OSM   C18F 7678   6.164   7.027   2.716 -0.0296  0.0503  0.3832
   83OSM   H18F 7679   6.240   7.107   2.729  1.7624 -1.3749 -0.7992
   83OSM   H18G 7680   6.084   7.055   2.788 -0.0154  0.1350  0.3661
   83OSM   H18H 7681   6.133   7.026   2.610 -0.0436 -2.1089  0.3680
   84OSM      N 7682   2.218   1.194   2.191 -0.6151 -0.6537 -0.1034
   84OSM    C15 7683   2.149   1.263   2.078 -0.2042  0.1322  0.0481
   84OSM   H15A 7684   2.077   1.339   2.104  0.1332  0.1915  0.8349
   84OSM   H15B 7685   2.104   1.178   2.029  3.4253 -2.6615  1.1758
   84OSM   H15C 7686   2.222   1.313   2.016 -0.0851  0.1549  0.2107
   84OSM    C14 7687   2.313   1.095   2.140 -0.3614 -0.4267  0.2001
   84OSM   H14A 7688   2.363   1.037   2.217  1.2004  0.5141 -0.0684
   84OSM   H14B 7689   2.392   1.147   2.087  0.0136  0.0631  1.1994
   84OSM   H14C 7690   2.277   1.021   2.070 -0.3903  0.2689 -0.5349
   84OSM    C13 7691   2.310   1.296   2.252 -0.2885 -0.4382  0.1813
   84OSM   H13A 7692   2.255   1.363   2.316  0.2201  0.4214 -0.2638
   84OSM   H13B 7693   2.366   1.357   2.182  0.3387 -0.8397  0.3239
   84OSM   H13C 7694   2.385   1.248   2.313  1.2605 -1.3379 -2.2521
   84OSM    C12 7695   2.118   1.140   2.292  0.1539 -0.4638 -0.4477
   84OSM   H12A 7696   2.038   1.082   2.250 -0.2447 -0.8071  0.7383
   84OSM   H12B 7697   2.056   1.225   2.319  0.4811 -0.6169  0.8265
   84OSM    C11 7698   2.181   1.069   2.416  0.0721 -0.4391  0.1674
   84OSM   H11A 7699   2.105   1.062   2.496 -0.8080 -0.5848 -0.6698
   84OSM   H11B 7700   2.275   1.117   2.450 -0.0414 -0.6365  0.7690
   84OSM      P 7701   2.131   0.815   2.355  0.4759 -0.0816 -0.0630
   84OSM    O13 7702   2.002   0.870   2.300 -0.1709 -0.3328 -0.1428
   84OSM    O14 7703   2.201   0.717   2.267  0.7465  0.1919 -0.0869
   84OSM    O11 7704   2.115   0.765   2.499  0.4293  0.1483 -0.3850
   84OSM    O12 7705   2.232   0.939   2.383 -0.1229 -0.0947  0.2290
   84OSM    C1S 7706   2.224   0.731   2.576  0.1135 -0.4873 -0.5792
   84OSM    H1S 7707   2.324   0.757   2.535  1.5302  0.6704  3.2554
   84OSM    H1T 7708   2.226   0.622   2.594 -2.5437 -0.2832  1.5167
   84OSM     NF 7709   2.350   0.757   2.788  0.1123 -1.0445 -0.3995
   84OSM    HNF 7710   2.341   0.694   2.865  0.1143 -1.3417 -0.6433
   84OSM    C2S 7711   2.225   0.800   2.720 -0.9503 -0.1999  0.2050
   84OSM    H2S 7712   2.223   0.911   2.710  1.5557 -0.2267 -1.4814
   84OSM    C3S 7713   2.092   0.759   2.792 -0.1410 -0.2459  0.1294
   84OSM    H3S 7714   2.090   0.650   2.815  3.0254 -0.4287  0.0208
   84OSM     O3 7715   1.979   0.800   2.714 -0.4623 -1.2503  0.3289
   84OSM    HO3 7716   2.012   0.819   2.626  1.2394  0.9005  1.3148
   84OSM    C4S 7717   2.089   0.831   2.926 -0.6139 -0.3307  0.4729
   84OSM    H4S 7718   2.137   0.779   3.010  1.7836  0.3700 -0.3951
   84OSM    C5S 7719   2.039   0.960   2.947 -0.2286  0.7415 -0.5047
   84OSM    H5S 7720   2.017   1.014   2.853  1.5616 -0.3706 -1.6258
   84OSM    C6S 7721   2.052   1.041   3.072 -0.2002 -0.7249 -0.2076
   84OSM    H6S 7722   1.954   1.094   3.074 -0.1850 -0.7058 -0.0253
   84OSM    H6T 7723   2.136   1.113   3.055 -0.5746 -0.1663  0.2721
   84OSM    C7S 7724   2.072   0.975   3.206 -0.3364  0.7238 -0.8313
   84OSM    H7S 7725   2.171   0.923   3.202 -1.3143 -1.5710  1.7091
   84OSM    H7T 7726   1.990   0.901   3.219  0.0540  0.2540 -0.9731
   84OSM    C8S 7727   2.057   1.069   3.328  0.0088 -0.2682  0.4330
   84OSM    H8S 7728   1.970   1.134   3.306 -0.1152 -1.0198 -1.5130
   84OSM    H8T 7729   2.144   1.137   3.342 -0.7673  0.5273  1.5487
   84OSM    C9S 7730   2.030   0.993   3.461 -1.4091  0.1095 -0.0524
   84OSM    H9S 7731   2.108   0.914   3.470 -1.4522 -0.1673 -1.8018
   84OSM    H9T 7732   1.930   0.945   3.455  0.3972 -4.1038 -0.0536
   84OSM   C10S 7733   2.045   1.087   3.574  0.1256 -0.3974 -0.1560
   84OSM   H10S 7734   1.966   1.164   3.561 -1.0860 -1.7547 -1.1255
   84OSM   H10T 7735   2.144   1.136   3.570 -1.1123  2.4712  1.2862
   84OSM   C11S 7736   2.002   1.017   3.707 -0.5929  1.1906  0.4260
   84OSM   H11S 7737   2.077   0.945   3.746 -0.1309  0.7737 -1.1817
   84OSM   H11T 7738   1.914   0.953   3.686  0.4481  0.0685 -0.7180
   84OSM   C12S 7739   1.963   1.120   3.816 -0.6741 -0.5980  0.3716
   84OSM   H12S 7740   1.903   1.201   3.770  2.0525  0.8929 -0.8344
   84OSM   H12T 7741   2.062   1.172   3.817  0.0964 -1.9693 -0.5727
   84OSM   C13S 7742   1.907   1.073   3.956 -0.2412  0.4138  0.5736
   84OSM   H13S 7743   1.808   1.028   3.930 -0.0329  0.8150 -1.0117
   84OSM   H13T 7744   1.889   1.166   4.013 -0.6498  0.9132 -0.3495
   84OSM   C14S 7745   1.993   0.966   4.019 -0.2432  0.0089  0.1240
   84OSM   H14S 7746   2.020   0.888   3.944 -2.4764 -0.0701 -0.7089
   84OSM   H14T 7747   1.936   0.917   4.101 -0.5894 -1.5974 -1.0366
   84OSM   C15S 7748   2.137   1.010   4.067 -0.1851  0.1081  0.0590
   84OSM   H15S 7749   2.130   1.109   4.117 -1.9427  0.2501 -0.3944
   84OSM   H15T 7750   2.178   1.016   3.964 -1.5668 -1.2202 -0.6157
   84OSM   C16S 7751   2.214   0.901   4.142  0.0733 -1.0714 -0.5120
   84OSM   H16S 7752   2.324   0.910   4.130  0.2548 -2.0942  0.2256
   84OSM   H16T 7753   2.189   0.803   4.096 -2.2779 -1.1027  0.6767
   84OSM   C17S 7754   2.189   0.900   4.299  0.0943 -0.2632  0.1818
   84OSM   H17S 7755   2.081   0.908   4.322 -0.3733  1.0619 -2.1071
   84OSM   H17T 7756   2.232   0.996   4.332  1.0577 -1.0251  1.2124
   84OSM   C18S 7757   2.264   0.794   4.378  0.1302  0.0042  0.8008
   84OSM   H18S 7758   2.238   0.692   4.344 -0.4047  0.9588 -1.8479
   84OSM   H18T 7759   2.243   0.792   4.488  0.2285 -1.3022  0.8114
   84OSM   H18U 7760   2.374   0.810   4.373  0.1184  1.0616  2.7916
   84OSM    C1F 7761   2.476   0.797   2.755 -0.3458  0.9829  0.1508
   84OSM     OF 7762   2.490   0.852   2.651  0.0239 -0.7817 -0.0163
   84OSM    C2F 7763   2.589   0.749   2.842  0.2943  0.4136 -0.9619
   84OSM    H2F 7764   2.551   0.651   2.877 -3.0119  1.4528 -1.2878
   84OSM    H2G 7765   2.595   0.804   2.938  1.0713 -1.2903  0.0077
   84OSM    C3F 7766   2.718   0.744   2.770 -0.8678 -0.1436 -0.3968
   84OSM    H3F 7767   2.747   0.847   2.742  2.8029 -1.1430 -0.7441
   84OSM    H3G 7768   2.707   0.689   2.674 -2.9605  0.9341 -0.8325
   84OSM    C4F 7769   2.829   0.678   2.843 -0.4748 -0.1988 -0.0651
   84OSM    H4F 7770   2.915   0.665   2.774 -0.6886 -0.3381 -0.3064
   84OSM    H4G 7771   2.800   0.578   2.881  1.3841 -0.2987  1.2177
   84OSM    C5F 7772   2.874   0.748   2.964 -0.2849 -0.0204  0.0256
   84OSM    H5F 7773   2.809   0.753   3.054 -0.4282 -1.9857  0.0839
   84OSM    H5G 7774   2.892   0.856   2.944 -3.4523  0.8732  1.2927
   84OSM    C6F 7775   2.994   0.671   3.010 -0.1334 -0.3818 -0.0443
   84OSM    H6F 7776   3.069   0.702   2.935 -1.1726  1.3823 -0.4056
   84OSM    H6G 7777   2.971   0.562   3.004 -0.3343 -0.4006  0.8394
   84OSM    C7F 7778   3.060   0.699   3.151 -0.2767 -0.1858  0.1953
   84OSM    H7F 7779   3.057   0.807   3.175 -0.8019 -0.1201 -0.1481
   84OSM    H7G 7780   3.166   0.666   3.147  0.1850  1.0823  1.4226
   84OSM    C8F 7781   2.999   0.619   3.264  0.1083  0.1181 -0.1122
   84OSM    H8F 7782   3.005   0.511   3.242  0.1070  0.5581 -2.6256
   84OSM    H8G 7783   2.890   0.637   3.258  0.0604  0.6593  1.7216
   84OSM    C9F 7784   3.063   0.660   3.393 -0.1442 -0.4015  0.1177
   84OSM    H9F 7785   3.091   0.766   3.389  1.2546 -0.7465  0.3511
   84OSM   C10F 7786   3.093   0.582   3.498  0.5004 -0.1942  0.0086
   84OSM   H10F 7787   3.126   0.641   3.585  0.2178 -0.1409  0.0806
   84OSM   C11F 7788   3.062   0.436   3.524 -0.7486 -0.7289 -0.2261
   84OSM   H11F 7789   3.137   0.377   3.468 -1.3409 -2.0916  0.3737
   84OSM   H11G 7790   2.959   0.413   3.488  0.0743 -2.7805 -1.4526
   84OSM   C12F 7791   3.095   0.388   3.668 -0.5331 -0.4108 -0.2350
   84OSM   H12F 7792   3.069   0.282   3.689  0.2490 -0.9485 -1.8302
   84OSM   H12G 7793   3.040   0.448   3.743  2.7196  1.0880  1.1121
   84OSM   C13F 7794   3.248   0.394   3.710 -0.0235  0.0214  0.1561
   84OSM   H13F 7795   3.299   0.492   3.702 -1.6103  0.8327 -0.3293
   84OSM   H13G 7796   3.298   0.342   3.625 -2.5696  1.0351 -2.1227
   84OSM   C14F 7797   3.274   0.333   3.850 -0.1535  0.6884  0.4095
   84OSM   H14F 7798   3.381   0.349   3.877 -0.2177  1.0317  0.4694
   84OSM   H14G 7799   3.250   0.225   3.846 -1.6776  1.0139 -0.0119
   84OSM   C15F 7800   3.193   0.407   3.956  0.1728  0.2819 -0.4430
   84OSM   H15F 7801   3.085   0.412   3.931  0.7292  0.9101 -3.0604
   84OSM   H15G 7802   3.213   0.516   3.972 -0.5296  0.0976  2.0383
   84OSM   C16F 7803   3.224   0.335   4.091  0.3375  0.3084  0.1210
   84OSM   H16F 7804   3.331   0.357   4.112 -0.0041  0.4220  1.9024
   84OSM   H16G 7805   3.207   0.225   4.091 -1.0714  0.5004 -0.8065
   84OSM   C17F 7806   3.143   0.399   4.201  0.1110 -0.3082  0.1550
   84OSM   H17F 7807   3.039   0.417   4.167 -0.1208 -1.7443  0.0415
   84OSM   H17G 7808   3.197   0.493   4.224  1.1972 -1.0469  0.7316
   84OSM   C18F 7809   3.152   0.304   4.319  0.1009 -0.3134 -0.2590
   84OSM   H18F 7810   3.093   0.334   4.407  1.5754  0.9814  0.3311
   84OSM   H18G 7811   3.260   0.292   4.343 -0.3112 -0.2438  1.7187
   84OSM   H18H 7812   3.102   0.208   4.290 -0.0214 -0.5207  0.6235
   85OSM      N 7813   6.188   1.306   2.557 -0.2161  0.1448  0.5843
   85OSM    C15 7814   6.285   1.362   2.462 -0.7776  0.1470 -0.6556
   85OSM   H15A 7815   6.377   1.393   2.509 -0.3831 -1.5862 -0.1843
   85OSM   H15B 7816   6.247   1.451   2.416  0.4630  0.3949 -1.2483
   85OSM   H15C 7817   6.321   1.287   2.393 -0.3992 -1.9186  1.6019
   85OSM    C14 7818   6.172   1.409   2.664 -0.4073 -0.4210 -0.1677
   85OSM   H14A 7819   6.133   1.505   2.633 -0.8399 -0.9532 -1.3204
   85OSM   H14B 7820   6.270   1.432   2.703 -0.1297  0.9037 -1.5592
   85OSM   H14C 7821   6.103   1.379   2.742 -0.5213  0.3140  0.0219
   85OSM    C13 7822   6.054   1.281   2.491 -0.4244 -0.1429 -0.2406
   85OSM   H13A 7823   5.983   1.266   2.571 -1.1181  1.5693 -0.4913
   85OSM   H13B 7824   6.059   1.198   2.422  1.2205 -0.2932  0.0232
   85OSM   H13C 7825   6.022   1.371   2.440  2.4921  1.6099  0.7340
   85OSM    C12 7826   6.226   1.167   2.616  0.5365 -0.1492 -0.4109
   85OSM   H12A 7827   6.241   1.105   2.528 -0.0778  0.0113 -0.6368
   85OSM   H12B 7828   6.144   1.118   2.667  0.5953 -1.2722 -1.3453
   85OSM    C11 7829   6.357   1.161   2.700 -0.0957 -0.8364  0.3807
   85OSM   H11A 7830   6.363   1.061   2.748  0.3908 -1.9310 -1.8491
   85OSM   H11B 7831   6.344   1.242   2.775 -0.7269 -0.7712  0.2128
   85OSM      P 7832   6.553   1.083   2.556 -0.4260  0.1318  0.0870
   85OSM    O13 7833   6.467   0.988   2.474  0.2630  0.2347 -0.3303
   85OSM    O14 7834   6.673   1.139   2.493  0.0726 -0.1815  0.4656
   85OSM    O11 7835   6.604   0.994   2.677  0.1658  0.2820 -0.4040
   85OSM    O12 7836   6.463   1.197   2.617  0.1945 -0.1563 -1.2793
   85OSM    C1S 7837   6.668   1.064   2.780 -0.8291 -0.7042 -0.9111
   85OSM    H1S 7838   6.599   1.141   2.820  0.4376  0.8998 -1.7432
   85OSM    H1T 7839   6.750   1.127   2.740 -2.1267  0.8774 -1.1669
   85OSM     NF 7840   6.748   1.037   3.023 -0.0103  0.3252 -0.0643
   85OSM    HNF 7841   6.845   1.033   3.043  0.3067  0.5926 -1.4617
   85OSM    C2S 7842   6.711   0.968   2.895  0.2281 -0.9338 -0.9727
   85OSM    H2S 7843   6.634   0.892   2.921  0.8626 -1.0749  0.5847
   85OSM    C3S 7844   6.828   0.887   2.845 -0.2798 -0.3570 -0.0176
   85OSM    H3S 7845   6.909   0.963   2.844  0.9031 -1.4170  2.7962
   85OSM     O3 7846   6.819   0.839   2.713  0.4663 -0.1244 -0.1764
   85OSM    HO3 7847   6.734   0.875   2.684 -0.4195 -2.0373 -0.0907
   85OSM    C4S 7848   6.871   0.780   2.943 -0.2363  0.5729  0.4820
   85OSM    H4S 7849   6.953   0.810   3.009 -0.1081  1.2456  0.0289
   85OSM    C5S 7850   6.813   0.657   2.946 -0.2184  0.5570 -0.4722
   85OSM    H5S 7851   6.724   0.641   2.883 -1.0085 -0.9487  0.9707
   85OSM    C6S 7852   6.847   0.547   3.048  0.4358  0.1604 -0.1840
   85OSM    H6S 7853   6.877   0.455   2.994 -2.0002 -0.8688  0.0899
   85OSM    H6T 7854   6.754   0.519   3.102  0.9331 -0.6567  0.2671
   85OSM    C7S 7855   6.959   0.574   3.150 -0.1036 -0.6583  0.2577
   85OSM    H7S 7856   6.959   0.673   3.200 -0.7749 -0.0656 -0.8742
   85OSM    H7T 7857   7.052   0.573   3.089  1.0545  0.1417  1.9301
   85OSM    C8S 7858   6.976   0.464   3.252 -0.0891  0.3778  0.5289
   85OSM    H8S 7859   6.948   0.365   3.211  0.4949 -0.1875  1.4446
   85OSM    H8T 7860   6.919   0.486   3.345 -1.4262 -0.2786 -0.1218
   85OSM    C9S 7861   7.120   0.450   3.295 -0.6296  0.1288 -0.4429
   85OSM    H9S 7862   7.164   0.538   3.346  1.7803 -2.4256  2.3138
   85OSM    H9T 7863   7.183   0.427   3.206 -0.7284 -0.6169 -0.3278
   85OSM   C10S 7864   7.146   0.325   3.385 -0.0553  0.4109 -0.6306
   85OSM   H10S 7865   7.256   0.309   3.385  0.2201  2.0554 -0.0724
   85OSM   H10T 7866   7.093   0.242   3.334  1.0209  0.1211 -1.3105
   85OSM   C11S 7867   7.103   0.335   3.535 -0.7026  0.3315  0.0530
   85OSM   H11S 7868   7.110   0.232   3.575 -1.6041  0.1141 -0.3213
   85OSM   H11T 7869   6.997   0.365   3.546 -1.2348 -1.3611 -0.1906
   85OSM   C12S 7870   7.200   0.431   3.610  0.4388  0.0533 -0.0122
   85OSM   H12S 7871   7.189   0.540   3.593  0.5866  0.0282 -0.2697
   85OSM   H12T 7872   7.304   0.410   3.577  1.3395  1.9595  1.4347
   85OSM   C13S 7873   7.207   0.396   3.760  0.5928  0.0270  0.1760
   85OSM   H13S 7874   7.199   0.286   3.754 -0.9832  0.1996 -2.3044
   85OSM   H13T 7875   7.121   0.451   3.805  2.2502  2.9911 -0.0212
   85OSM   C14S 7876   7.331   0.441   3.829 -0.3000  0.4238  0.2856
   85OSM   H14S 7877   7.340   0.549   3.807 -0.5996  0.4550  0.3091
   85OSM   H14T 7878   7.424   0.395   3.790  1.5481  1.9903  2.5645
   85OSM   C15S 7879   7.322   0.420   3.975  0.3675 -0.0981  0.7243
   85OSM   H15S 7880   7.334   0.312   4.000  0.5847 -0.5037 -0.9850
   85OSM   H15T 7881   7.217   0.444   4.004  0.7753  0.5657  1.7031
   85OSM   C16S 7882   7.399   0.520   4.067  0.1082  0.1993 -0.7960
   85OSM   H16S 7883   7.351   0.620   4.066 -1.7744 -0.6481 -3.0864
   85OSM   H16T 7884   7.497   0.521   4.014  0.4756 -1.5724 -0.2281
   85OSM   C17S 7885   7.407   0.465   4.205  0.5168  0.2415 -0.2259
   85OSM   H17S 7886   7.314   0.409   4.226 -0.1618  0.9949 -1.1558
   85OSM   H17T 7887   7.409   0.549   4.278 -0.5730 -0.0439  0.1471
   85OSM   C18S 7888   7.530   0.374   4.237  0.1314 -0.4201  0.4998
   85OSM   H18S 7889   7.627   0.419   4.208 -0.4644  1.1714  0.8460
   85OSM   H18T 7890   7.522   0.274   4.189 -1.0834 -0.1798  0.1499
   85OSM   H18U 7891   7.534   0.355   4.346  0.6286 -0.4237  0.4793
   85OSM    C1F 7892   6.658   1.113   3.082  0.6471  0.0937 -0.0270
   85OSM     OF 7893   6.538   1.115   3.057 -0.1625  0.5832  0.0538
   85OSM    C2F 7894   6.720   1.210   3.172 -0.5426 -0.5290 -0.2742
   85OSM    H2F 7895   6.720   1.310   3.125  1.5044  0.9484  2.5541
   85OSM    H2G 7896   6.825   1.179   3.193 -0.7826 -0.9364  0.3814
   85OSM    C3F 7897   6.648   1.229   3.306  0.1466  0.3794 -0.2273
   85OSM    H3F 7898   6.548   1.273   3.283 -0.6903 -1.6381 -0.6937
   85OSM    H3G 7899   6.691   1.307   3.372  1.4308 -1.8978  1.8001
   85OSM    C4F 7900   6.623   1.101   3.387 -0.2040 -0.2558 -0.1542
   85OSM    H4F 7901   6.723   1.061   3.410  0.2164 -0.2841 -1.8851
   85OSM    H4G 7902   6.568   1.023   3.330  1.2392  0.0785 -2.1311
   85OSM    C5F 7903   6.554   1.121   3.522  0.0907 -0.6366  0.3839
   85OSM    H5F 7904   6.450   1.157   3.505 -0.0852 -0.6779  1.2894
   85OSM    H5G 7905   6.601   1.199   3.587  0.6333 -0.5543 -0.1014
   85OSM    C6F 7906   6.556   0.996   3.611 -0.1259  0.2491 -0.4524
   85OSM    H6F 7907   6.661   0.963   3.628 -0.0215  1.5992  2.0554
   85OSM    H6G 7908   6.515   0.912   3.551  1.0167  1.0290 -2.4159
   85OSM    C7F 7909   6.467   1.013   3.740 -0.4551 -0.1116  0.0840
   85OSM    H7F 7910   6.438   0.909   3.764  0.6664 -0.3532  0.4528
   85OSM    H7G 7911   6.374   1.059   3.701 -2.1164 -1.2436  2.5027
   85OSM    C8F 7912   6.518   1.091   3.859  0.5478 -0.1123  0.1609
   85OSM    H8F 7913   6.512   1.198   3.829  1.5813  0.3265  1.3974
   85OSM    H8G 7914   6.620   1.053   3.882 -0.2102 -1.7075  1.0632
   85OSM    C9F 7915   6.438   1.063   3.984 -0.0669  0.7885 -0.1312
   85OSM    H9F 7916   6.341   1.115   3.986 -1.0276 -0.6800 -3.0134
   85OSM   C10F 7917   6.481   0.974   4.078  0.2537 -0.6033  0.6146
   85OSM   H10F 7918   6.414   0.953   4.163 -0.1190 -3.1034 -0.2261
   85OSM   C11F 7919   6.617   0.908   4.090  0.8248  0.2168  0.6094
   85OSM   H11F 7920   6.662   0.894   3.989 -1.3110  3.1902 -0.8944
   85OSM   H11G 7921   6.625   0.810   4.142  3.5904  1.2067  2.2531
   85OSM   C12F 7922   6.709   0.997   4.173  0.0526 -0.1939  0.5936
   85OSM   H12F 7923   6.730   1.091   4.118  0.4678  0.6966  2.2239
   85OSM   H12G 7924   6.804   0.940   4.173 -0.3057 -0.8420  2.2284
   85OSM   C13F 7925   6.656   1.025   4.313 -0.8901  0.4452 -0.8766
   85OSM   H13F 7926   6.605   0.934   4.352 -0.4030  0.6044  0.1414
   85OSM   H13G 7927   6.581   1.104   4.291 -0.7315  0.4994 -1.2302
   85OSM   C14F 7928   6.769   1.064   4.410 -0.3947  0.6118 -0.6663
   85OSM   H14F 7929   6.825   1.159   4.397  0.5554  0.0348 -0.8620
   85OSM   H14G 7930   6.846   0.989   4.380 -0.1559  1.8869 -3.6154
   85OSM   C15F 7931   6.723   1.039   4.556  0.0626 -0.2878  0.3908
   85OSM   H15F 7932   6.672   0.941   4.566 -0.7217 -0.0449 -1.0096
   85OSM   H15G 7933   6.648   1.117   4.580  0.3180  0.9562 -2.4425
   85OSM   C16F 7934   6.840   1.042   4.655 -0.8862  0.0292 -0.1214
   85OSM   H16F 7935   6.895   1.138   4.645 -0.6669 -0.1946 -1.1816
   85OSM   H16G 7936   6.906   0.960   4.619  0.0982  1.4042 -1.5709
   85OSM   C17F 7937   6.800   1.007   4.800 -0.2354  0.0966 -0.1289
   85OSM   H17F 7938   6.729   1.088   4.826 -0.6064 -0.2859  0.0698
   85OSM   H17G 7939   6.877   1.004   4.880  0.3598 -1.0782 -0.7138
   85OSM   C18F 7940   6.723   0.874   4.820 -0.0289 -0.1912 -0.5950
   85OSM   H18F 7941   6.794   0.789   4.818  0.3432  0.1281 -1.2219
   85OSM   H18G 7942   6.665   0.883   4.915 -1.2917 -0.2117 -1.3486
   85OSM   H18H 7943   6.643   0.856   4.745  0.4455  1.6735 -1.5974
   86OSM      N 7944   0.581   3.411   2.125  0.2237  0.9391  0.2429
   86OSM    C15 7945   0.701   3.355   2.044 -1.0376  0.4354 -0.2213
   86OSM   H15A 7946   0.724   3.259   2.087 -3.8275  0.0323  0.5734
   86OSM   H15B 7947   0.781   3.427   2.053 -1.8841  1.3021  0.7473
   86OSM   H15C 7948   0.667   3.335   1.943 -1.6125 -0.2465  0.1035
   86OSM    C14 7949   0.622   3.458   2.260  0.3387  0.0736 -0.2625
   86OSM   H14A 7950   0.541   3.500   2.318  0.7315 -0.1162  0.4344
   86OSM   H14B 7951   0.700   3.531   2.246  0.7467 -0.0246  1.2568
   86OSM   H14C 7952   0.651   3.380   2.329  0.1306  1.2509  1.2074
   86OSM    C13 7953   0.526   3.533   2.050 -0.3374  0.1608  0.4787
   86OSM   H13A 7954   0.491   3.499   1.953 -0.2701 -0.8141  0.7863
   86OSM   H13B 7955   0.604   3.607   2.045 -1.1225  1.1745  2.3501
   86OSM   H13C 7956   0.437   3.565   2.101 -1.1605 -0.4752 -0.5152
   86OSM    C12 7957   0.467   3.307   2.127 -0.2464 -0.1973 -0.3819
   86OSM   H12A 7958   0.507   3.210   2.149  1.0013  0.4633  0.3787
   86OSM   H12B 7959   0.426   3.308   2.027 -1.5036 -1.0027  0.1075
   86OSM    C11 7960   0.342   3.329   2.225  0.5142 -0.4932 -0.0030
   86OSM   H11A 7961   0.387   3.337   2.327 -0.4228 -0.1942  0.3994
   86OSM   H11B 7962   0.278   3.238   2.218 -0.7497  0.5324 -3.1456
   86OSM      P 7963   0.162   3.453   2.081  0.3732  0.5622 -0.4373
   86OSM    O13 7964   0.206   3.540   1.971  0.8552  0.5473 -0.4610
   86OSM    O14 7965   0.114   3.316   2.053 -0.5103 -0.2285 -0.5950
   86OSM    O11 7966   0.038   3.520   2.160 -0.3155 -0.6820  0.1323
   86OSM    O12 7967   0.270   3.452   2.195 -0.0945  0.5581  0.0176
   86OSM    C1S 7968  -0.009   3.483   2.287 -0.2410  0.1429 -0.5885
   86OSM    H1S 7969   0.076   3.439   2.343 -0.7020  0.8732  0.7223
   86OSM    H1T 7970  -0.093   3.413   2.271 -0.9649  0.6632  0.7965
   86OSM     NF 7971  -0.080   3.567   2.511 -0.4193 -0.5118 -0.0195
   86OSM    HNF 7972  -0.171   3.538   2.539 -0.8167 -2.0127 -2.5334
   86OSM    C2S 7973  -0.062   3.597   2.367 -0.8046  0.1854  0.1060
   86OSM    H2S 7974   0.017   3.676   2.370 -2.1609  1.5467  1.3744
   86OSM    C3S 7975  -0.184   3.654   2.292 -0.3263  0.1543 -0.2803
   86OSM    H3S 7976  -0.249   3.566   2.272 -1.7217  1.1568 -0.2950
   86OSM     O3 7977  -0.147   3.711   2.166  0.2315  0.0969 -0.5078
   86OSM    HO3 7978  -0.069   3.659   2.148 -0.6404 -2.0036  1.2667
   86OSM    C4S 7979  -0.261   3.752   2.378  0.2518  0.1924  0.7940
   86OSM    H4S 7980  -0.209   3.846   2.399  1.6629 -0.2181 -0.6291
   86OSM    C5S 7981  -0.387   3.729   2.408  0.3970  0.1619 -0.3366
   86OSM    H5S 7982  -0.437   3.639   2.369  1.5583 -0.7954  0.3130
   86OSM    C6S 7983  -0.462   3.821   2.500 -0.2852  0.3886  0.0015
   86OSM    H6S 7984  -0.567   3.825   2.465 -0.2642 -1.3584 -0.3263
   86OSM    H6T 7985  -0.421   3.925   2.492 -0.5657  0.4459 -0.6899
   86OSM    C7S 7986  -0.454   3.796   2.649 -0.0036  0.5511  0.5447
   86OSM    H7S 7987  -0.348   3.780   2.681  0.7950  1.5809 -1.4136
   86OSM    H7T 7988  -0.494   3.697   2.680  3.1931 -0.7569  0.8793
   86OSM    C8S 7989  -0.513   3.906   2.738 -0.8867 -0.5397 -0.6932
   86OSM    H8S 7990  -0.620   3.932   2.720 -1.0350 -0.1934  0.6137
   86OSM    H8T 7991  -0.469   4.006   2.718 -0.4317 -0.5106  0.3952
   86OSM    C9S 7992  -0.507   3.877   2.887  0.4052 -0.1617 -0.7873
   86OSM    H9S 7993  -0.542   3.962   2.949 -2.0951 -1.4372 -0.2831
   86OSM    H9T 7994  -0.400   3.850   2.903 -0.2222 -2.4994 -0.1181
   86OSM   C10S 7995  -0.570   3.752   2.923 -0.0511 -0.1206  0.4896
   86OSM   H10S 7996  -0.536   3.666   2.861  0.7673  0.5724 -0.0585
   86OSM   H10T 7997  -0.681   3.760   2.916 -0.0135  0.3503  0.4445
   86OSM   C11S 7998  -0.549   3.719   3.075 -0.1094  0.0443  0.2917
   86OSM   H11S 7999  -0.628   3.648   3.106 -0.6306  0.1015 -0.8379
   86OSM   H11T 8000  -0.569   3.805   3.142  1.1293 -0.4667  1.3535
   86OSM   C12S 8001  -0.422   3.636   3.097 -0.6464  0.2744  0.4431
   86OSM   H12S 8002  -0.330   3.695   3.076 -1.3637  1.4266  0.4509
   86OSM   H12T 8003  -0.421   3.557   3.019 -0.4605  1.6481 -0.9713
   86OSM   C13S 8004  -0.409   3.569   3.230 -0.0441  0.2501  0.4835
   86OSM   H13S 8005  -0.313   3.516   3.244  0.2821  0.5390 -0.5487
   86OSM   H13T 8006  -0.488   3.492   3.230 -0.7033  0.9189  0.4607
   86OSM   C14S 8007  -0.421   3.663   3.349  0.6248 -0.3456 -0.1399
   86OSM   H14S 8008  -0.519   3.715   3.354  0.3717 -0.9252  1.4621
   86OSM   H14T 8009  -0.342   3.741   3.340 -1.3911  1.5818 -2.7084
   86OSM   C15S 8010  -0.410   3.587   3.481 -0.1829 -0.2319 -0.3048
   86OSM   H15S 8011  -0.332   3.508   3.470 -1.8885 -2.2785  1.4348
   86OSM   H15T 8012  -0.503   3.536   3.514  0.1439 -0.1349  0.8279
   86OSM   C16S 8013  -0.372   3.685   3.598 -0.3352  0.3794 -0.5102
   86OSM   H16S 8014  -0.441   3.773   3.593 -2.7263 -1.4275 -1.3916
   86OSM   H16T 8015  -0.270   3.722   3.573 -0.4836  0.4719 -1.0038
   86OSM   C17S 8016  -0.384   3.627   3.732  0.0698 -0.3194 -0.2181
   86OSM   H17S 8017  -0.301   3.559   3.761  1.8210  1.4600 -0.8307
   86OSM   H17T 8018  -0.472   3.559   3.726 -0.5872  0.5383 -0.4943
   86OSM   C18S 8019  -0.413   3.728   3.850  0.2081  0.0549 -0.0973
   86OSM   H18S 8020  -0.451   3.669   3.936  1.2190  1.6227  1.4853
   86OSM   H18T 8021  -0.487   3.807   3.828  0.8047  0.1020 -2.0816
   86OSM   H18U 8022  -0.313   3.772   3.864  1.4232 -2.1585 -1.2048
   86OSM    C1F 8023   0.024   3.544   2.592  0.5377 -0.3509  0.1608
   86OSM     OF 8024   0.137   3.565   2.547  0.0866 -0.0718  0.1987
   86OSM    C2F 8025  -0.017   3.479   2.724 -0.4260  0.6696 -0.2192
   86OSM    H2F 8026   0.042   3.386   2.738  1.1874  1.6028 -0.6196
   86OSM    H2G 8027  -0.123   3.446   2.721 -0.8020  1.7745  0.2342
   86OSM    C3F 8028  -0.009   3.585   2.834 -0.7416  0.1212  0.4942
   86OSM    H3F 8029  -0.072   3.668   2.796  1.2853  2.1704  1.3908
   86OSM    H3G 8030   0.094   3.624   2.847 -0.4012 -0.7082  0.3449
   86OSM    C4F 8031  -0.060   3.532   2.973 -0.0495 -0.2230  0.0594
   86OSM    H4F 8032  -0.159   3.484   2.959 -0.3339  0.1858  0.6354
   86OSM    H4G 8033  -0.093   3.604   3.050 -0.2149 -0.2375  0.0037
   86OSM    C5F 8034   0.042   3.435   3.042  0.2279 -0.3934  0.4501
   86OSM    H5F 8035   0.142   3.480   3.056  0.6751 -2.0422  3.7886
   86OSM    H5G 8036   0.052   3.349   2.973  0.0683  0.0119 -0.0795
   86OSM    C6F 8037   0.004   3.385   3.181 -0.3022  0.6185  0.4372
   86OSM    H6F 8038   0.087   3.314   3.200 -0.2667  0.6376  0.3546
   86OSM    H6G 8039  -0.094   3.334   3.182  0.4597 -0.9398 -0.4400
   86OSM    C7F 8040   0.008   3.483   3.291 -0.3805 -0.2347  0.1372
   86OSM    H7F 8041  -0.068   3.557   3.260 -0.5338  0.9429  3.0390
   86OSM    H7G 8042   0.101   3.544   3.286  0.2324 -1.0627  1.1178
   86OSM    C8F 8043   0.002   3.439   3.438  0.0418  0.3403  0.1601
   86OSM    H8F 8044   0.098   3.386   3.458 -0.4708 -0.5549  0.2988
   86OSM    H8G 8045  -0.079   3.364   3.450  1.4142 -1.1072  0.8692
   86OSM    C9F 8046  -0.025   3.552   3.533 -0.6085 -0.7663  0.1616
   86OSM    H9F 8047  -0.050   3.648   3.487  1.3321 -0.9864 -1.4538
   86OSM   C10F 8048   0.006   3.552   3.669  0.0110  0.0931  1.0602
   86OSM   H10F 8049  -0.008   3.642   3.729  1.2013  1.0958 -0.1150
   86OSM   C11F 8050   0.056   3.426   3.737  0.4796  0.0760  0.7024
   86OSM   H11F 8051   0.155   3.396   3.698 -0.7342 -1.6565 -1.3266
   86OSM   H11G 8052  -0.001   3.334   3.710  0.7385 -0.0078  0.4341
   86OSM   C12F 8053   0.056   3.447   3.890 -0.3955 -0.5899  0.6335
   86OSM   H12F 8054   0.117   3.537   3.914 -0.6380 -0.3193  0.2495
   86OSM   H12G 8055   0.109   3.359   3.933 -0.5342  0.0388  2.1616
   86OSM   C13F 8056  -0.075   3.450   3.969 -0.6625  0.3599 -0.1624
   86OSM   H13F 8057  -0.151   3.375   3.939  0.3652 -0.9790  0.4651
   86OSM   H13G 8058  -0.121   3.550   3.953  0.7160  0.6591 -2.8297
   86OSM   C14F 8059  -0.053   3.417   4.124  0.2444 -0.2890 -0.3302
   86OSM   H14F 8060  -0.001   3.319   4.131 -1.4997 -1.3732 -1.5642
   86OSM   H14G 8061  -0.154   3.406   4.170 -0.4517  0.0882 -1.7108
   86OSM   C15F 8062   0.029   3.528   4.194  0.5463  0.1401  0.3286
   86OSM   H15F 8063  -0.043   3.611   4.211  1.3754  1.0375 -0.4076
   86OSM   H15G 8064   0.117   3.563   4.136 -0.1152  1.2461 -0.0292
   86OSM   C16F 8065   0.089   3.487   4.326  0.4043  0.1655 -0.6441
   86OSM   H16F 8066   0.135   3.387   4.313  0.4905  0.4198 -2.5300
   86OSM   H16G 8067   0.008   3.450   4.393  0.3984 -1.3534 -1.4458
   86OSM   C17F 8068   0.206   3.570   4.384 -0.0639  0.1588 -0.4859
   86OSM   H17F 8069   0.163   3.642   4.456 -0.8899 -2.0622  1.3405
   86OSM   H17G 8070   0.258   3.627   4.304 -2.5513  5.1689  1.0550
   86OSM   C18F 8071   0.312   3.497   4.460 -0.0795 -0.1558  0.3260
   86OSM   H18F 8072   0.369   3.570   4.522 -1.1003  0.1370  0.9278
   86OSM   H18G 8073   0.376   3.446   4.383  0.4267  1.5579 -0.4329
   86OSM   H18H 8074   0.272   3.419   4.528  1.6790 -0.8574  0.6091
   87OSM      N 8075   6.257   0.063   2.254  0.2435 -0.1060  0.6246
   87OSM    C15 8076   6.304   0.138   2.131 -0.6354  0.2714 -0.3780
   87OSM   H15A 8077   6.314   0.245   2.140  0.6512  0.4272 -2.8556
   87OSM   H15B 8078   6.240   0.099   2.053  0.9640 -2.2347 -0.5373
   87OSM   H15C 8079   6.403   0.104   2.105 -0.9454 -0.2593 -0.8837
   87OSM    C14 8080   6.273  -0.084   2.229  0.1816 -0.2515 -0.0727
   87OSM   H14A 8081   6.211  -0.134   2.301 -1.4531  1.1369 -0.4476
   87OSM   H14B 8082   6.375  -0.119   2.220  0.4141  0.7497 -1.9468
   87OSM   H14C 8083   6.227  -0.106   2.133 -0.3451  1.2465 -0.1903
   87OSM    C13 8084   6.339   0.115   2.362 -0.1705  0.9056  0.0450
   87OSM   H13A 8085   6.340   0.221   2.379 -1.9459  1.1161 -0.9737
   87OSM   H13B 8086   6.442   0.088   2.341 -0.5356  1.5386 -3.1674
   87OSM   H13C 8087   6.320   0.071   2.459  1.4383  0.3505  0.1441
   87OSM    C12 8088   6.105   0.102   2.279 -0.8984 -0.4856 -0.2429
   87OSM   H12A 8089   6.049   0.106   2.187  0.5940  3.6367 -1.1553
   87OSM   H12B 8090   6.115   0.204   2.312 -1.7564 -0.4738 -0.0088
   87OSM    C11 8091   6.035   0.026   2.389 -0.4674  0.4311  0.1330
   87OSM   H11A 8092   5.941   0.081   2.412  0.4448  3.1800 -2.1004
   87OSM   H11B 8093   6.092   0.025   2.484 -0.5997 -1.6262  0.2198
   87OSM      P 8094   5.869  -0.170   2.306 -0.0332 -0.0962 -0.4763
   87OSM    O13 8095   5.795  -0.083   2.216 -0.2387  0.1971  0.6492
   87OSM    O14 8096   5.898  -0.304   2.247  0.1610  0.1669 -0.5708
   87OSM    O11 8097   5.787  -0.195   2.444 -0.2414 -0.1713 -0.1158
   87OSM    O12 8098   6.014  -0.114   2.350 -0.3308 -0.1763 -0.1655
   87OSM    C1S 8099   5.721  -0.326   2.458  0.1790  0.4652  0.6210
   87OSM    H1S 8100   5.781  -0.413   2.422 -0.5606 -0.4985  1.6502
   87OSM    H1T 8101   5.619  -0.330   2.413  0.6609 -1.1578 -0.4345
   87OSM     NF 8102   5.656  -0.498   2.628 -0.0465  0.0603 -0.1176
   87OSM    HNF 8103   5.571  -0.520   2.674 -0.5092  1.6805 -0.1347
   87OSM    C2S 8104   5.696  -0.358   2.609  0.0479  0.1829  0.3306
   87OSM    H2S 8105   5.797  -0.351   2.655 -0.1439 -0.3064  0.8416
   87OSM    C3S 8106   5.602  -0.262   2.674 -0.4157 -0.2971  0.1781
   87OSM    H3S 8107   5.499  -0.275   2.636  0.3934 -0.5770 -2.1187
   87OSM     O3 8108   5.644  -0.126   2.656  0.5137 -0.6235 -0.4702
   87OSM    HO3 8109   5.708  -0.133   2.585 -1.2424  1.3627 -2.4039
   87OSM    C4S 8110   5.601  -0.297   2.819  0.2329 -0.3214  0.5442
   87OSM    H4S 8111   5.500  -0.335   2.839 -0.3145  0.2026 -1.1018
   87OSM    C5S 8112   5.694  -0.302   2.914 -0.6029 -0.4665 -1.0054
   87OSM    H5S 8113   5.798  -0.272   2.894 -0.4351 -1.1939 -1.2870
   87OSM    C6S 8114   5.668  -0.338   3.058 -0.4918 -0.1798 -0.9037
   87OSM    H6S 8115   5.742  -0.415   3.088  0.9348  1.6219  0.4035
   87OSM    H6T 8116   5.565  -0.374   3.078 -0.8171  0.4282 -1.4408
   87OSM    C7S 8117   5.686  -0.215   3.157 -0.6243 -0.6702  0.6672
   87OSM    H7S 8118   5.630  -0.124   3.127  0.5385 -0.0220  0.3868
   87OSM    H7T 8119   5.794  -0.190   3.146 -0.9396  0.0881 -0.9608
   87OSM    C8S 8120   5.661  -0.250   3.303  0.5435 -0.1356  0.5402
   87OSM    H8S 8121   5.686  -0.358   3.311  0.3205 -0.3301 -1.0893
   87OSM    H8T 8122   5.555  -0.237   3.332  1.0240 -0.7207  2.7269
   87OSM    C9S 8123   5.745  -0.174   3.411  0.5880  0.9619  0.1594
   87OSM    H9S 8124   5.707  -0.070   3.410  2.5179  1.8162  2.8232
   87OSM    H9T 8125   5.850  -0.171   3.376 -0.1890  1.2842 -2.3600
   87OSM   C10S 8126   5.731  -0.224   3.556  0.1742  0.4171  0.0806
   87OSM   H10S 8127   5.827  -0.228   3.611  0.7969  3.2334 -0.6614
   87OSM   H10T 8128   5.683  -0.324   3.570 -0.7063  0.4161 -2.4515
   87OSM   C11S 8129   5.659  -0.121   3.648 -0.2428  0.7823  0.0896
   87OSM   H11S 8130   5.589  -0.188   3.702  0.4868 -1.3683 -1.4848
   87OSM   H11T 8131   5.604  -0.051   3.582  0.6222  0.7650 -0.6836
   87OSM   C12S 8132   5.751  -0.052   3.749  0.5004 -0.0407 -0.9890
   87OSM   H12S 8133   5.832   0.004   3.697  0.7757  3.1986  2.4919
   87OSM   H12T 8134   5.799  -0.125   3.817 -1.2577 -0.0323  0.3093
   87OSM   C13S 8135   5.676   0.057   3.831  0.6746 -0.4285 -0.4544
   87OSM   H13S 8136   5.573   0.018   3.838  0.9676 -1.3737 -1.1292
   87OSM   H13T 8137   5.662   0.157   3.785 -0.0610  0.4786  1.6479
   87OSM   C14S 8138   5.740   0.088   3.971 -0.1973 -0.7134  0.2144
   87OSM   H14S 8139   5.737   0.004   4.044  1.6337 -1.1851 -0.2004
   87OSM   H14T 8140   5.848   0.114   3.960 -0.2336  0.3147  1.9463
   87OSM   C15S 8141   5.684   0.216   4.033 -0.2621  0.2094  0.4618
   87OSM   H15S 8142   5.666   0.291   3.953  1.2074 -0.7838 -0.8501
   87OSM   H15T 8143   5.746   0.259   4.115 -1.6603  0.5073  1.4031
   87OSM   C16S 8144   5.541   0.198   4.095  0.4806 -0.0167 -1.1501
   87OSM   H16S 8145   5.494   0.132   4.019  0.0957 -1.4192  0.2607
   87OSM   H16T 8146   5.493   0.298   4.106 -0.6246 -0.7616  1.6108
   87OSM   C17S 8147   5.535   0.138   4.236 -0.0817  0.9283 -0.2044
   87OSM   H17S 8148   5.598   0.188   4.312  2.0284 -0.1492 -1.1573
   87OSM   H17T 8149   5.585   0.042   4.213 -1.2464  0.3618 -0.4685
   87OSM   C18S 8150   5.394   0.113   4.296  0.2826  0.2422 -0.6470
   87OSM   H18S 8151   5.402   0.071   4.399  1.1916  0.3346 -0.6785
   87OSM   H18T 8152   5.346   0.041   4.227 -0.1308  0.6422 -0.7796
   87OSM   H18U 8153   5.344   0.212   4.296  0.5421  0.3848 -2.1609
   87OSM    C1F 8154   5.732  -0.610   2.608  0.4039 -0.1158  0.3761
   87OSM     OF 8155   5.840  -0.606   2.545  0.3294 -0.0244  0.0223
   87OSM    C2F 8156   5.667  -0.740   2.646 -0.1152  0.6380  0.0565
   87OSM    H2F 8157   5.689  -0.814   2.566  2.7885  1.3273  0.1166
   87OSM    H2G 8158   5.558  -0.727   2.661  0.1952  2.9765  0.6421
   87OSM    C3F 8159   5.730  -0.799   2.779 -0.1442 -0.4293 -0.2787
   87OSM    H3F 8160   5.839  -0.813   2.761 -0.9816 -3.6006 -4.2407
   87OSM    H3G 8161   5.690  -0.902   2.788  1.2208 -0.9601 -0.0345
   87OSM    C4F 8162   5.687  -0.728   2.907  0.6857  0.3672 -0.8875
   87OSM    H4F 8163   5.585  -0.691   2.884 -1.3658 -4.7127 -1.2801
   87OSM    H4G 8164   5.766  -0.652   2.926 -0.7562  1.2131  2.4670
   87OSM    C5F 8165   5.681  -0.816   3.036  0.6475 -0.4421  0.6338
   87OSM    H5F 8166   5.781  -0.865   3.029  0.5432 -0.5360 -0.4187
   87OSM    H5G 8167   5.602  -0.894   3.029  0.4850 -0.2841  0.7212
   87OSM    C6F 8168   5.678  -0.734   3.157 -0.3915  0.0043 -0.5255
   87OSM    H6F 8169   5.602  -0.783   3.221 -0.9581 -0.7479 -1.7364
   87OSM    H6G 8170   5.645  -0.629   3.141 -3.2839 -0.7830 -0.2584
   87OSM    C7F 8171   5.818  -0.740   3.225 -0.8067 -0.6072  0.5438
   87OSM    H7F 8172   5.879  -0.720   3.134  0.0822  0.7866  1.4134
   87OSM    H7G 8173   5.834  -0.842   3.265 -0.3752 -0.0046  1.9894
   87OSM    C8F 8174   5.841  -0.635   3.331 -0.0512  0.5047 -0.0363
   87OSM    H8F 8175   5.758  -0.639   3.405  0.2939 -3.9914  0.3758
   87OSM    H8G 8176   5.846  -0.535   3.283  1.2524 -0.1455 -1.3301
   87OSM    C9F 8177   5.973  -0.675   3.410  0.8797  0.2313 -0.1861
   87OSM    H9F 8178   6.062  -0.679   3.345  0.1941  2.2670 -1.3366
   87OSM   C10F 8179   5.976  -0.709   3.536  0.3331  0.1089 -1.0413
   87OSM   H10F 8180   6.072  -0.730   3.585 -0.1013  0.4757 -0.0044
   87OSM   C11F 8181   5.855  -0.732   3.628 -0.1500 -0.3770  0.0253
   87OSM   H11F 8182   5.856  -0.814   3.704 -3.2481 -0.4878  0.0582
   87OSM   H11G 8183   5.770  -0.766   3.565 -0.1033  0.1847 -0.3522
   87OSM   C12F 8184   5.824  -0.601   3.701  0.4039 -0.1248  0.1625
   87OSM   H12F 8185   5.721  -0.618   3.741 -0.3135  1.6938 -0.8053
   87OSM   H12G 8186   5.810  -0.520   3.626  0.6306  0.2212  0.4887
   87OSM   C13F 8187   5.909  -0.554   3.819 -0.4160 -0.8437 -0.1961
   87OSM   H13F 8188   6.007  -0.519   3.780  0.0529 -1.7137  0.1814
   87OSM   H13G 8189   5.941  -0.632   3.892 -1.3405 -1.7556 -0.7477
   87OSM   C14F 8190   5.839  -0.445   3.903 -0.2022  0.0547 -0.5341
   87OSM   H14F 8191   5.746  -0.480   3.953  1.1761 -3.3462 -0.0574
   87OSM   H14G 8192   5.800  -0.366   3.836 -0.2960 -1.1474 -1.9606
   87OSM   C15F 8193   5.929  -0.384   4.010  0.4422  0.5224  0.3047
   87OSM   H15F 8194   6.019  -0.344   3.959  0.1396  2.1520  0.9942
   87OSM   H15G 8195   5.961  -0.457   4.088 -0.2757 -0.7126 -0.5128
   87OSM   C16F 8196   5.860  -0.280   4.095 -0.1286 -0.7500 -0.1443
   87OSM   H16F 8197   5.752  -0.306   4.098 -0.4829  0.7288  0.7078
   87OSM   H16G 8198   5.871  -0.183   4.042  4.3635 -0.7724  0.3255
   87OSM   C17F 8199   5.909  -0.273   4.244  0.6997 -0.1470  0.5373
   87OSM   H17F 8200   6.020  -0.278   4.256  0.6311 -0.7807  1.0017
   87OSM   H17G 8201   5.874  -0.367   4.293 -1.8934 -0.7063 -2.1410
   87OSM   C18F 8202   5.851  -0.151   4.317  0.3393  0.1365  0.7020
   87OSM   H18F 8203   5.895  -0.121   4.414 -0.6552  0.9101  0.9292
   87OSM   H18G 8204   5.742  -0.156   4.340 -0.1774  1.9543 -1.0173
   87OSM   H18H 8205   5.866  -0.054   4.265 -0.1150  0.4268  1.0990
   88OSM      N 8206   4.191   5.728   2.277  0.1640  0.4266 -0.0277
   88OSM    C15 8207   4.225   5.589   2.326 -0.6073 -0.1008  0.5951
   88OSM   H15A 8208   4.303   5.599   2.400  2.0584 -2.3272 -1.6802
   88OSM   H15B 8209   4.267   5.530   2.246 -0.6197  2.3957 -1.3615
   88OSM   H15C 8210   4.142   5.531   2.366 -1.2361  0.4275  0.0777
   88OSM    C14 8211   4.172   5.816   2.395 -0.3890  0.3704 -0.6163
   88OSM   H14A 8212   4.271   5.839   2.431  0.1355 -0.9491 -1.1437
   88OSM   H14B 8213   4.116   5.774   2.478 -0.1862  1.7571  0.2452
   88OSM   H14C 8214   4.126   5.910   2.368  1.8734  1.4961 -0.7420
   88OSM    C13 8215   4.293   5.788   2.192  0.5974  0.0654 -0.4954
   88OSM   H13A 8216   4.392   5.772   2.231  1.2533  3.9665 -0.0981
   88OSM   H13B 8217   4.288   5.896   2.188 -1.5377  0.2686  3.2778
   88OSM   H13C 8218   4.294   5.757   2.088  1.5267 -0.6119 -0.2938
   88OSM    C12 8219   4.057   5.729   2.208 -0.9457 -0.4016  0.0719
   88OSM   H12A 8220   4.036   5.827   2.169 -0.0828 -0.2485 -0.0395
   88OSM   H12B 8221   3.979   5.718   2.282 -0.7076  0.6061  0.4979
   88OSM    C11 8222   4.024   5.630   2.093  0.4190  0.5073 -0.3680
   88OSM   H11A 8223   4.100   5.641   2.012 -0.4045  0.0174 -1.2351
   88OSM   H11B 8224   3.935   5.673   2.043 -0.9141 -1.4897  0.1554
   88OSM      P 8225   3.868   5.451   2.189  0.4799 -0.1691 -0.1765
   88OSM    O13 8226   3.833   5.490   2.330 -0.0972  0.3894  0.5498
   88OSM    O14 8227   3.780   5.496   2.082 -0.0843 -0.5529 -0.3321
   88OSM    O11 8228   3.877   5.302   2.185  0.3769  0.0376 -0.6669
   88OSM    O12 8229   4.016   5.496   2.149 -0.2088  0.0533 -0.3076
   88OSM    C1S 8230   3.981   5.232   2.264 -0.0278 -0.3898 -0.2077
   88OSM    H1S 8231   4.053   5.307   2.305  0.2510 -0.2014 -1.0118
   88OSM    H1T 8232   4.028   5.154   2.200 -0.7598 -1.4639  0.5190
   88OSM     NF 8233   4.012   5.120   2.499 -0.3529  0.1261  0.0813
   88OSM    HNF 8234   4.034   5.025   2.523 -2.1115 -0.1775  0.6736
   88OSM    C2S 8235   3.918   5.157   2.391 -0.4351  0.3561 -0.1670
   88OSM    H2S 8236   3.849   5.230   2.437  0.7130 -0.1518  2.5624
   88OSM    C3S 8237   3.832   5.039   2.338 -0.2255  0.1385  0.3042
   88OSM    H3S 8238   3.905   4.958   2.315 -0.5227 -0.0163 -0.0999
   88OSM     O3 8239   3.772   5.047   2.212 -0.4106  0.2448  0.2934
   88OSM    HO3 8240   3.801   5.130   2.176  1.9695 -0.6074  0.0796
   88OSM    C4S 8241   3.742   4.973   2.434 -0.2669 -0.0881  1.1792
   88OSM    H4S 8242   3.786   4.886   2.484 -0.6003 -1.5721 -0.9537
   88OSM    C5S 8243   3.615   5.005   2.461  0.2120  0.0400 -0.3621
   88OSM    H5S 8244   3.567   5.084   2.402  0.2560  0.0328 -0.4072
   88OSM    C6S 8245   3.524   4.933   2.554 -0.3057  0.0100  0.1832
   88OSM    H6S 8246   3.433   4.905   2.498 -1.6057  3.3206  0.4351
   88OSM    H6T 8247   3.490   5.008   2.629  0.5440  1.6004 -0.9660
   88OSM    C7S 8248   3.574   4.805   2.613 -0.1993  0.1424  0.2403
   88OSM    H7S 8249   3.614   4.750   2.525 -0.0964 -1.2702  1.1320
   88OSM    H7T 8250   3.482   4.749   2.641  1.4158 -1.6234  2.4726
   88OSM    C8S 8251   3.656   4.816   2.739  0.2224  1.0070  0.3016
   88OSM    H8S 8252   3.763   4.843   2.721  0.0345  0.7086 -1.4838
   88OSM    H8T 8253   3.672   4.711   2.772  1.2810  1.0279 -0.0934
   88OSM    C9S 8254   3.608   4.890   2.864  0.4038  0.3752  0.0670
   88OSM    H9S 8255   3.500   4.866   2.866  0.7463 -1.3460 -0.4450
   88OSM    H9T 8256   3.626   4.998   2.844 -1.8118  0.6896 -0.4970
   88OSM   C10S 8257   3.667   4.851   3.000  0.3555  0.0447  0.7393
   88OSM   H10S 8258   3.776   4.868   3.001  0.3495  0.1443 -0.0434
   88OSM   H10T 8259   3.658   4.742   3.017  0.5749 -0.6113 -2.7114
   88OSM   C11S 8260   3.612   4.925   3.129  0.4686  0.1549 -0.0010
   88OSM   H11S 8261   3.504   4.901   3.137  0.6970 -1.6814 -1.5189
   88OSM   H11T 8262   3.626   5.034   3.117  1.2676  0.2465  1.5105
   88OSM   C12S 8263   3.678   4.872   3.254 -0.1150  0.8028  0.1637
   88OSM   H12S 8264   3.677   4.762   3.240  3.5182  0.8447 -1.4683
   88OSM   H12T 8265   3.610   4.899   3.338  0.6703  0.4200  0.9425
   88OSM   C13S 8266   3.812   4.939   3.284  0.4711  0.4070  0.3730
   88OSM   H13S 8267   3.797   5.048   3.297  0.4536  0.7518 -2.0992
   88OSM   H13T 8268   3.871   4.938   3.190 -0.3550 -0.4273 -0.1560
   88OSM   C14S 8269   3.888   4.876   3.401 -0.2411 -0.3943  0.5207
   88OSM   H14S 8270   3.997   4.894   3.394 -0.4783  0.9291  0.0046
   88OSM   H14T 8271   3.871   4.766   3.399  0.7894 -0.5486 -0.4242
   88OSM   C15S 8272   3.841   4.935   3.535  0.8348  0.2058 -0.0179
   88OSM   H15S 8273   3.744   4.885   3.553  0.9545 -0.2105 -0.4915
   88OSM   H15T 8274   3.826   5.045   3.526 -1.6191 -0.1196 -0.7828
   88OSM   C16S 8275   3.943   4.906   3.639  0.6175 -0.1212  0.6487
   88OSM   H16S 8276   4.035   4.965   3.618 -0.0525  0.2297 -1.6695
   88OSM   H16T 8277   3.966   4.798   3.650  0.6112 -0.1528  0.3754
   88OSM   C17S 8278   3.878   4.945   3.775 -0.4616 -1.2817 -0.6328
   88OSM   H17S 8279   3.785   4.886   3.791  0.0349 -1.4352  2.1647
   88OSM   H17T 8280   3.841   5.050   3.773 -1.7222 -1.6885  0.0434
   88OSM   C18S 8281   3.965   4.905   3.888  0.2569 -0.2690 -1.2356
   88OSM   H18S 8282   3.929   4.809   3.931  0.7471  1.0395  2.4755
   88OSM   H18T 8283   3.945   4.957   3.984 -0.4631 -0.4938 -1.2574
   88OSM   H18U 8284   4.075   4.898   3.873  0.3646  0.5047 -0.8750
   88OSM    C1F 8285   4.080   5.220   2.562  0.2070 -0.1479  0.0007
   88OSM     OF 8286   4.049   5.341   2.546 -0.1179 -0.2157  0.0279
   88OSM    C2F 8287   4.203   5.172   2.636 -0.7380 -0.1453 -0.3137
   88OSM    H2F 8288   4.265   5.120   2.561 -0.2166 -2.0642  1.3490
   88OSM    H2G 8289   4.166   5.096   2.709  0.2564  0.9862  1.4322
   88OSM    C3F 8290   4.274   5.279   2.723 -0.6780 -0.1497  0.4410
   88OSM    H3F 8291   4.206   5.322   2.800 -2.8924 -2.4359 -0.1002
   88OSM    H3G 8292   4.316   5.364   2.665 -0.6721 -0.1309  0.4723
   88OSM    C4F 8293   4.386   5.222   2.805 -0.0604 -0.3743 -0.1023
   88OSM    H4F 8294   4.434   5.309   2.855 -1.7463 -0.5859  2.0219
   88OSM    H4G 8295   4.460   5.168   2.742 -0.5160  0.8680 -1.7581
   88OSM    C5F 8296   4.342   5.147   2.927 -0.1986  0.4620  0.1177
   88OSM    H5F 8297   4.258   5.079   2.901  0.1087 -0.3514  1.2054
   88OSM    H5G 8298   4.293   5.222   2.993 -0.8011  0.2536 -0.0947
   88OSM    C6F 8299   4.454   5.078   3.007 -0.3322 -0.1254  0.6205
   88OSM    H6F 8300   4.530   5.154   3.035  0.2362  0.1674 -1.5812
   88OSM    H6G 8301   4.510   5.008   2.940  0.3631  1.8746 -0.9718
   88OSM    C7F 8302   4.398   5.027   3.141  0.5335  0.4844  0.0988
   88OSM    H7F 8303   4.345   4.935   3.109  2.6624  0.1342 -2.8359
   88OSM    H7G 8304   4.313   5.089   3.177 -0.1492  0.0475 -0.7062
   88OSM    C8F 8305   4.509   4.987   3.229  0.5735  0.8074  0.1612
   88OSM    H8F 8306   4.572   5.071   3.264  1.6146 -0.3148  1.0564
   88OSM    H8G 8307   4.567   4.928   3.155 -1.7066 -2.4328  0.7401
   88OSM    C9F 8308   4.464   4.897   3.352  0.5883 -0.1413  0.7627
   88OSM    H9F 8309   4.457   4.790   3.326 -0.5935 -0.1309  1.0029
   88OSM   C10F 8310   4.459   4.949   3.474 -0.2673 -0.7455  0.3242
   88OSM   H10F 8311   4.432   4.886   3.560 -0.5933 -0.9297  0.0879
   88OSM   C11F 8312   4.473   5.091   3.519  0.2886 -0.4510 -0.5028
   88OSM   H11F 8313   4.529   5.147   3.441 -0.2192  0.6661 -0.0941
   88OSM   H11G 8314   4.539   5.087   3.608 -0.4463 -0.6497  0.0420
   88OSM   C12F 8315   4.346   5.178   3.552 -0.3540  0.4546 -0.2026
   88OSM   H12F 8316   4.280   5.178   3.462  0.3790 -0.2005 -0.7542
   88OSM   H12G 8317   4.386   5.281   3.561  0.4199  0.2827 -1.4957
   88OSM   C13F 8318   4.273   5.137   3.683  0.2825  0.3475 -0.5721
   88OSM   H13F 8319   4.303   5.033   3.709  0.5931  0.9877  1.8854
   88OSM   H13G 8320   4.162   5.136   3.674  0.3919 -0.2972 -2.1415
   88OSM   C14F 8321   4.309   5.227   3.807 -0.3945 -0.0074 -0.3929
   88OSM   H14F 8322   4.269   5.327   3.782  1.5909  1.3670  1.5134
   88OSM   H14G 8323   4.420   5.236   3.814 -0.5940  1.5454  2.1373
   88OSM   C15F 8324   4.258   5.191   3.951 -0.3723 -0.3947 -0.2378
   88OSM   H15F 8325   4.295   5.090   3.976 -0.9167 -0.9873 -1.7443
   88OSM   H15G 8326   4.148   5.179   3.947 -0.4026  0.3102 -2.7105
   88OSM   C16F 8327   4.290   5.306   4.048 -0.1628 -0.1465 -0.2543
   88OSM   H16F 8328   4.240   5.401   4.019 -1.7997 -0.9220 -0.0290
   88OSM   H16G 8329   4.398   5.324   4.027 -0.2351 -0.5787 -1.0259
   88OSM   C17F 8330   4.270   5.282   4.200 -0.1386  0.0652 -0.0353
   88OSM   H17F 8331   4.324   5.191   4.233  0.9562  1.0112  0.8645
   88OSM   H17G 8332   4.166   5.255   4.227 -0.1147  0.9571  0.9995
   88OSM   C18F 8333   4.311   5.406   4.277  0.0006  0.3034 -0.2384
   88OSM   H18F 8334   4.418   5.422   4.255 -0.2682  0.6251 -1.4135
   88OSM   H18G 8335   4.309   5.391   4.387  3.7967  0.2370 -0.0639
   88OSM   H18H 8336   4.251   5.496   4.250 -1.2110  0.0153  1.3333
   89OSM      N 8337   4.907   0.872   1.884 -0.1215  0.1956 -0.2432
   89OSM    C15 8338   5.016   0.788   1.942 -0.0590 -0.3423  0.1750
   89OSM   H15A 8339   4.989   0.743   2.036  1.0311 -0.1046  0.6142
   89OSM   H15B 8340   5.105   0.841   1.972  0.1193 -0.2570 -0.4730
   89OSM   H15C 8341   5.042   0.716   1.866 -2.6310 -1.1934  0.0096
   89OSM    C14 8342   4.954   0.932   1.757  0.3544 -0.2678 -0.1177
   89OSM   H14A 8343   4.951   0.856   1.680 -0.1661  0.3547 -0.7343
   89OSM   H14B 8344   5.057   0.959   1.776  0.1322  0.9906 -0.5840
   89OSM   H14C 8345   4.890   1.012   1.723  0.1218 -0.6362 -0.5731
   89OSM    C13 8346   4.792   0.776   1.858 -0.0321 -0.4601  0.3280
   89OSM   H13A 8347   4.753   0.727   1.945 -2.7497 -0.1654 -0.6371
   89OSM   H13B 8348   4.818   0.706   1.780  0.2450  0.6578 -0.6131
   89OSM   H13C 8349   4.700   0.828   1.833  0.0560 -0.5189 -0.1237
   89OSM    C12 8350   4.857   0.984   1.971 -0.1227  0.0877  0.3137
   89OSM   H12A 8351   4.785   0.944   2.040 -1.0467  0.3865 -0.4512
   89OSM   H12B 8352   4.790   1.050   1.918 -1.9516 -1.8466  0.1019
   89OSM    C11 8353   4.961   1.070   2.049  0.7953 -0.0472 -0.3369
   89OSM   H11A 8354   4.902   1.134   2.119  1.5975  0.7644 -0.3828
   89OSM   H11B 8355   5.007   1.148   1.985  1.6882 -1.1953 -1.1246
   89OSM      P 8356   5.204   1.036   2.136  0.2892 -0.1165  0.3402
   89OSM    O13 8357   5.277   0.927   2.208 -0.4697 -0.5866 -0.5836
   89OSM    O14 8358   5.252   1.068   1.999 -0.2980  0.3906  0.8069
   89OSM    O11 8359   5.193   1.171   2.216  0.4384 -0.3503  0.0985
   89OSM    O12 8360   5.053   0.993   2.127 -0.0743 -0.1026 -0.2130
   89OSM    C1S 8361   5.148   1.170   2.352 -0.5094  0.4350  0.0828
   89OSM    H1S 8362   5.166   1.070   2.398  0.9998  0.3315 -0.6703
   89OSM    H1T 8363   5.040   1.193   2.368 -0.6656 -1.6111  3.0102
   89OSM     NF 8364   5.188   1.233   2.580  0.0604 -0.3031  0.0933
   89OSM    HNF 8365   5.144   1.303   2.636 -0.2854 -1.1266  0.8761
   89OSM    C2S 8366   5.240   1.252   2.443 -0.4464  0.4465 -0.2388
   89OSM    H2S 8367   5.345   1.214   2.438 -0.5068  0.2855 -0.2669
   89OSM    C3S 8368   5.246   1.403   2.391  0.2385  0.3464  0.4376
   89OSM    H3S 8369   5.139   1.430   2.391  0.3350  0.9464 -2.0377
   89OSM     O3 8370   5.281   1.416   2.255 -0.3622  0.3180  0.0653
   89OSM    HO3 8371   5.264   1.329   2.218 -0.2379 -1.5067  3.8062
   89OSM    C4S 8372   5.334   1.495   2.485  0.1343 -0.2818 -0.4449
   89OSM    H4S 8373   5.438   1.502   2.451  0.0179  2.2895 -0.4230
   89OSM    C5S 8374   5.294   1.581   2.587  0.2203  0.3893 -0.0368
   89OSM    H5S 8375   5.189   1.591   2.616 -0.3699 -1.2550 -1.4096
   89OSM    C6S 8376   5.401   1.651   2.669  0.4850  0.2346 -0.2896
   89OSM    H6S 8377   5.398   1.761   2.651  0.3978  0.1188 -1.0038
   89OSM    H6T 8378   5.502   1.612   2.646  1.3380  1.2269  1.5604
   89OSM    C7S 8379   5.362   1.623   2.819  0.4395  0.4494  0.2728
   89OSM    H7S 8380   5.257   1.644   2.848  0.2930 -2.0125  1.8017
   89OSM    H7T 8381   5.427   1.697   2.872  2.8631 -0.6497 -1.0503
   89OSM    C8S 8382   5.400   1.480   2.867 -0.1650 -0.9720  0.0781
   89OSM    H8S 8383   5.363   1.406   2.793 -2.5212 -1.1643  1.3314
   89OSM    H8T 8384   5.353   1.448   2.962  1.0916  1.4749  1.6296
   89OSM    C9S 8385   5.546   1.465   2.900  1.0335 -0.2224 -0.4447
   89OSM    H9S 8386   5.579   1.522   2.990 -0.4955 -1.0375  0.6674
   89OSM    H9T 8387   5.608   1.499   2.814 -0.7168  1.1022 -1.2415
   89OSM   C10S 8388   5.602   1.325   2.933 -0.6639  0.3307  0.8857
   89OSM   H10S 8389   5.710   1.330   2.955 -0.3968  1.2941 -0.4981
   89OSM   H10T 8390   5.592   1.266   2.839  0.2069  1.2026  0.2310
   89OSM   C11S 8391   5.541   1.241   3.046 -0.0687  0.2726 -0.0636
   89OSM   H11S 8392   5.595   1.144   3.047 -0.1167  0.2449  0.3857
   89OSM   H11T 8393   5.436   1.220   3.017 -0.4440 -0.1681  1.4930
   89OSM   C12S 8394   5.549   1.316   3.177 -0.4930 -0.3671 -0.0061
   89OSM   H12S 8395   5.506   1.418   3.166  1.4557  0.5725  0.6318
   89OSM   H12T 8396   5.656   1.340   3.193 -0.1861 -0.4067 -1.8094
   89OSM   C13S 8397   5.498   1.248   3.298 -0.1708 -0.2507 -0.1267
   89OSM   H13S 8398   5.547   1.152   3.324 -2.8466 -1.3577  1.1293
   89OSM   H13T 8399   5.390   1.229   3.283  0.2012 -1.2029 -1.8649
   89OSM   C14S 8400   5.517   1.340   3.417  0.6431 -0.1814 -0.3248
   89OSM   H14S 8401   5.459   1.433   3.397  1.1911  0.5070  1.1575
   89OSM   H14T 8402   5.620   1.377   3.430  0.4168 -0.0685  1.3786
   89OSM   C15S 8403   5.479   1.284   3.556  0.2559  0.3779 -0.0101
   89OSM   H15S 8404   5.373   1.250   3.550 -0.1109  1.1309  1.6228
   89OSM   H15T 8405   5.480   1.360   3.637  0.7380  0.6311 -0.2530
   89OSM   C16S 8406   5.564   1.173   3.606  0.8650  0.9593 -0.2959
   89OSM   H16S 8407   5.665   1.219   3.614  1.7324 -0.7565 -1.0266
   89OSM   H16T 8408   5.563   1.089   3.534 -0.7492  1.4620 -0.9181
   89OSM   C17S 8409   5.509   1.124   3.738  0.1534  0.1150 -0.2332
   89OSM   H17S 8410   5.458   1.201   3.801  2.2975  0.9685  0.5453
   89OSM   H17T 8411   5.599   1.086   3.791  0.2977  1.2635  0.3877
   89OSM   C18S 8412   5.410   1.017   3.719  0.5624  0.4262 -0.0110
   89OSM   H18S 8413   5.446   0.931   3.659 -0.8639  0.1820 -0.5661
   89OSM   H18T 8414   5.314   1.049   3.672  0.3766 -0.9583 -0.6287
   89OSM   H18U 8415   5.379   0.965   3.813 -0.9182 -0.3209 -0.8704
   89OSM    C1F 8416   5.211   1.119   2.647 -0.2047  0.6178 -0.2186
   89OSM     OF 8417   5.299   1.042   2.600  0.0923  0.3126 -0.5486
   89OSM    C2F 8418   5.151   1.106   2.784 -0.0197 -0.3172 -0.2088
   89OSM    H2F 8419   5.052   1.056   2.777  1.0843 -2.5292 -0.6828
   89OSM    H2G 8420   5.147   1.207   2.831  1.6291  0.1446 -1.0109
   89OSM    C3F 8421   5.232   1.015   2.875 -0.0962  0.3508 -0.5771
   89OSM    H3F 8422   5.328   1.068   2.896  0.5174 -1.7702  2.5544
   89OSM    H3G 8423   5.248   0.923   2.815 -1.4120  1.0520 -2.0844
   89OSM    C4F 8424   5.154   0.987   3.002  0.5458  0.2675  0.5422
   89OSM    H4F 8425   5.215   0.915   3.061 -0.7954  0.4320  2.2355
   89OSM    H4G 8426   5.058   0.934   2.983  1.7278 -2.3531  1.3490
   89OSM    C5F 8427   5.132   1.110   3.090 -0.4324 -0.2050 -0.1521
   89OSM    H5F 8428   5.059   1.173   3.035 -0.6474 -2.2544 -2.3437
   89OSM    H5G 8429   5.223   1.172   3.107 -1.6110  1.0591  2.0164
   89OSM    C6F 8430   5.089   1.081   3.231  0.7109 -0.2194 -0.2004
   89OSM    H6F 8431   5.170   1.027   3.286  0.6333 -0.2833 -0.1478
   89OSM    H6G 8432   4.994   1.025   3.237  0.6208 -0.1300 -0.7523
   89OSM    C7F 8433   5.070   1.210   3.311 -0.6467  0.6476  0.3188
   89OSM    H7F 8434   4.972   1.248   3.277 -2.0098 -1.9580  1.0505
   89OSM    H7G 8435   5.158   1.270   3.281  0.2462 -1.1797 -0.9302
   89OSM    C8F 8436   5.056   1.186   3.463 -0.0651  0.0507  0.0000
   89OSM    H8F 8437   5.144   1.125   3.493 -0.6601 -0.8107  0.0353
   89OSM    H8G 8438   4.971   1.118   3.484  0.2793 -0.0852  1.0495
   89OSM    C9F 8439   5.040   1.317   3.541  0.2173 -0.1077 -0.8026
   89OSM    H9F 8440   5.004   1.406   3.486 -0.4032 -0.7348 -1.4270
   89OSM   C10F 8441   5.080   1.344   3.670  0.6047 -0.3667  0.0091
   89OSM   H10F 8442   5.062   1.443   3.716 -1.1582 -0.5483 -0.1934
   89OSM   C11F 8443   5.142   1.247   3.762  0.0233 -0.7998 -0.6606
   89OSM   H11F 8444   5.253   1.255   3.768  0.1503 -3.0208  1.0591
   89OSM   H11G 8445   5.129   1.143   3.727 -0.5380 -0.7756 -0.5284
   89OSM   C12F 8446   5.089   1.236   3.905 -0.3155 -0.2043 -0.3181
   89OSM   H12F 8447   5.091   1.335   3.955 -3.2281 -0.7507  1.1114
   89OSM   H12G 8448   5.165   1.176   3.958 -0.0225 -0.5564 -1.1210
   89OSM   C13F 8449   4.943   1.186   3.927 -0.2436 -0.1272 -0.2767
   89OSM   H13F 8450   4.939   1.092   3.869  2.5671  0.4791 -1.6276
   89OSM   H13G 8451   4.871   1.260   3.885  0.6178  2.1004  1.8694
   89OSM   C14F 8452   4.905   1.161   4.073 -0.4459 -0.4812  1.0700
   89OSM   H14F 8453   4.962   1.076   4.117  0.5931 -1.3280 -1.7492
   89OSM   H14G 8454   4.797   1.136   4.076 -0.7287  0.4438 -0.3943
   89OSM   C15F 8455   4.922   1.286   4.155  0.8507 -0.7225 -0.1197
   89OSM   H15F 8456   4.874   1.367   4.095  1.9145  0.3160  0.3852
   89OSM   H15G 8457   5.028   1.316   4.172  1.4239 -0.1672 -3.7321
   89OSM   C16F 8458   4.848   1.260   4.296  0.0620 -0.0495  0.3018
   89OSM   H16F 8459   4.882   1.324   4.380 -2.2120 -1.9457  2.8551
   89OSM   H16G 8460   4.877   1.159   4.331  3.9225 -0.6558 -3.7031
   89OSM   C17F 8461   4.691   1.262   4.290 -0.0982 -0.2664  0.3890
   89OSM   H17F 8462   4.660   1.253   4.396  1.3283 -1.4038  0.7373
   89OSM   H17G 8463   4.645   1.170   4.249  0.0465  0.1864 -0.8474
   89OSM   C18F 8464   4.635   1.392   4.233  0.8071  0.2117  0.4295
   89OSM   H18F 8465   4.616   1.379   4.124  0.2400 -1.2839  0.6805
   89OSM   H18G 8466   4.715   1.468   4.243  0.8608  0.5697 -2.1254
   89OSM   H18H 8467   4.537   1.418   4.280 -0.7441 -2.1662 -1.2147
   90OSM      N 8468   3.022   2.662   2.098  0.2027 -0.2409 -0.1041
   90OSM    C15 8469   2.885   2.587   2.112  0.0887 -0.8203  0.9519
   90OSM   H15A 8470   2.900   2.496   2.168  0.7964 -1.0582  0.3969
   90OSM   H15B 8471   2.840   2.576   2.014 -0.5414  1.6470  0.8959
   90OSM   H15C 8472   2.816   2.642   2.173 -0.9864  0.5460 -1.3426
   90OSM    C14 8473   3.095   2.672   2.228  0.1877  0.6019  0.5266
   90OSM   H14A 8474   3.044   2.745   2.290  0.5511  1.3101  0.0030
   90OSM   H14B 8475   3.194   2.714   2.223 -0.3130  2.0536  1.7368
   90OSM   H14C 8476   3.104   2.576   2.275  0.2121  0.0319 -0.6149
   90OSM    C13 8477   3.108   2.583   2.011 -0.4407  0.0958 -0.0939
   90OSM   H13A 8478   3.149   2.489   2.046 -1.9678 -1.3031 -1.7953
   90OSM   H13B 8479   3.196   2.637   1.982  0.3094 -0.4859  1.0314
   90OSM   H13C 8480   3.051   2.561   1.921 -0.5093  2.5521 -0.7040
   90OSM    C12 8481   2.992   2.795   2.041  0.0830 -0.0215  0.7467
   90OSM   H12A 8482   3.085   2.845   2.017 -1.6133  3.5088  0.8326
   90OSM   H12B 8483   2.948   2.856   2.118 -2.6644 -0.8210 -0.1002
   90OSM    C11 8484   2.897   2.804   1.922 -0.4394 -0.2594  0.0473
   90OSM   H11A 8485   2.895   2.719   1.851 -1.5718  0.1636 -0.4509
   90OSM   H11B 8486   2.919   2.897   1.866 -2.6427  0.5065  0.3346
   90OSM      P 8487   2.705   2.944   2.024  0.0328 -0.2511 -0.0455
   90OSM    O13 8488   2.809   3.026   2.084 -0.0821  0.4360  0.0285
   90OSM    O14 8489   2.621   3.010   1.921 -1.0825  0.5324 -0.2168
   90OSM    O11 8490   2.602   2.907   2.135 -0.0732 -0.0853 -0.4423
   90OSM    O12 8491   2.758   2.806   1.974  0.1306  0.0229 -0.4106
   90OSM    C1S 8492   2.641   2.840   2.257 -0.1582 -0.2515 -0.6346
   90OSM    H1S 8493   2.739   2.787   2.257 -0.1818 -0.3379  0.7859
   90OSM    H1T 8494   2.572   2.760   2.290  0.5920 -0.0225  1.6361
   90OSM     NF 8495   2.716   2.878   2.485  0.4378 -0.3904  0.4409
   90OSM    HNF 8496   2.650   2.849   2.553  0.9254 -0.7339  0.7780
   90OSM    C2S 8497   2.657   2.948   2.378 -0.0191  0.2018  0.8032
   90OSM    H2S 8498   2.729   3.022   2.337 -2.3631  2.4527  0.4223
   90OSM    C3S 8499   2.524   3.023   2.415  0.2196 -0.4885  0.8705
   90OSM    H3S 8500   2.453   2.957   2.469 -1.9012  1.8823  1.1599
   90OSM     O3 8501   2.470   3.082   2.297  0.6069  0.5014 -0.4421
   90OSM    HO3 8502   2.511   3.040   2.221 -3.4342 -2.8015 -1.1649
   90OSM    C4S 8503   2.545   3.142   2.502 -0.2890 -0.0080 -0.6943
   90OSM    H4S 8504   2.579   3.237   2.458 -1.4196  0.6706 -0.1459
   90OSM    C5S 8505   2.491   3.144   2.626  0.6098  0.0005 -0.7865
   90OSM    H5S 8506   2.444   3.052   2.663  1.1223 -0.4976 -1.3520
   90OSM    C6S 8507   2.485   3.257   2.731  0.6089  0.5022  0.3861
   90OSM    H6S 8508   2.531   3.227   2.827 -1.4097 -0.5073  1.1074
   90OSM    H6T 8509   2.377   3.276   2.750  0.3840  0.2236 -0.5339
   90OSM    C7S 8510   2.556   3.388   2.689 -0.1517 -0.4569 -0.3461
   90OSM    H7S 8511   2.577   3.402   2.580  0.5764  2.7776  0.1184
   90OSM    H7T 8512   2.648   3.404   2.749 -0.8739 -1.3622  1.0413
   90OSM    C8S 8513   2.469   3.516   2.728 -0.4673 -0.1514  0.4409
   90OSM    H8S 8514   2.365   3.500   2.693  0.2264 -0.5130 -1.6039
   90OSM    H8T 8515   2.495   3.613   2.681 -2.0073 -0.6380 -1.5467
   90OSM    C9S 8516   2.460   3.536   2.876 -1.0488 -0.5916 -0.7767
   90OSM    H9S 8517   2.558   3.526   2.927 -0.4710  1.4564 -1.3975
   90OSM    H9T 8518   2.386   3.466   2.922 -3.3286  2.7227  1.0131
   90OSM   C10S 8519   2.411   3.678   2.915 -0.2585 -0.4808 -0.5938
   90OSM   H10S 8520   2.307   3.695   2.881 -1.0157 -0.0081  1.8291
   90OSM   H10T 8521   2.463   3.757   2.857  0.4140 -0.5939 -0.1515
   90OSM   C11S 8522   2.410   3.709   3.069  0.2949  0.6764  0.0061
   90OSM   H11S 8523   2.401   3.820   3.071  0.6587  0.7274 -0.8344
   90OSM   H11T 8524   2.516   3.698   3.100 -0.3501  0.2926  2.3265
   90OSM   C12S 8525   2.307   3.628   3.155 -0.0128  0.0703  0.1920
   90OSM   H12S 8526   2.315   3.518   3.146 -3.0537 -0.3893  1.8242
   90OSM   H12T 8527   2.210   3.650   3.107 -0.2280  1.3267  1.1603
   90OSM   C13S 8528   2.300   3.661   3.307  0.2572  0.7207  0.6093
   90OSM   H13S 8529   2.211   3.604   3.343 -0.4593  0.6273 -1.2072
   90OSM   H13T 8530   2.270   3.767   3.320 -2.0384  0.3023 -0.6350
   90OSM   C14S 8531   2.425   3.632   3.390  0.5607  0.4872 -0.4094
   90OSM   H14S 8532   2.522   3.670   3.352  0.2537  0.4861 -1.2006
   90OSM   H14T 8533   2.448   3.523   3.396 -1.2749  0.1014  0.4189
   90OSM   C15S 8534   2.411   3.673   3.538 -0.0181 -0.3064 -0.4648
   90OSM   H15S 8535   2.317   3.623   3.570 -0.2244 -0.7258 -1.6751
   90OSM   H15T 8536   2.382   3.780   3.540 -0.9983 -0.5476 -1.0869
   90OSM   C16S 8537   2.541   3.655   3.622  0.6199 -0.2409 -1.3005
   90OSM   H16S 8538   2.604   3.746   3.616  0.1537  0.2173  0.2162
   90OSM   H16T 8539   2.602   3.570   3.585  2.5130  1.1062 -1.3904
   90OSM   C17S 8540   2.501   3.639   3.773 -0.3366  0.1429 -0.5068
   90OSM   H17S 8541   2.431   3.552   3.778 -0.4447  0.2513 -0.0952
   90OSM   H17T 8542   2.443   3.732   3.791 -2.8091 -1.0391 -1.8664
   90OSM   C18S 8543   2.617   3.623   3.871 -0.2909 -0.6365 -0.2214
   90OSM   H18S 8544   2.662   3.722   3.898 -0.2974 -0.2541 -1.5691
   90OSM   H18T 8545   2.695   3.567   3.815  0.6122  0.9100 -0.5919
   90OSM   H18U 8546   2.581   3.568   3.961 -0.7011  0.2620  0.1786
   90OSM    C1F 8547   2.844   2.833   2.509 -0.2317 -0.0209  0.4860
   90OSM     OF 8548   2.934   2.865   2.427  0.0644 -0.1364 -0.2351
   90OSM    C2F 8549   2.870   2.767   2.638  0.6377  0.7615 -0.7148
   90OSM    H2F 8550   2.817   2.669   2.642  1.2796  0.4219 -0.2900
   90OSM    H2G 8551   2.828   2.837   2.713 -0.0336  0.0453 -0.4079
   90OSM    C3F 8552   3.013   2.741   2.677 -0.9911  0.6829  0.4283
   90OSM    H3F 8553   3.086   2.824   2.676  0.9061 -0.9086 -1.0261
   90OSM    H3G 8554   3.039   2.653   2.614  1.0916  1.4056  0.2108
   90OSM    C4F 8555   3.030   2.681   2.818 -0.2318  0.2968 -0.4803
   90OSM    H4F 8556   3.122   2.620   2.810 -0.5106 -0.1446 -0.3225
   90OSM    H4G 8557   2.949   2.609   2.841  2.7059 -3.0265  0.1951
   90OSM    C5F 8558   3.054   2.785   2.930 -1.4761 -0.6328  0.4892
   90OSM    H5F 8559   2.971   2.858   2.941  1.0107  2.3634  0.4555
   90OSM    H5G 8560   3.148   2.835   2.901 -2.0162 -0.7231 -1.5834
   90OSM    C6F 8561   3.079   2.719   3.066  0.1258  0.7374  0.2125
   90OSM    H6F 8562   3.121   2.795   3.135 -0.3509  1.4516 -0.2602
   90OSM    H6G 8563   3.153   2.637   3.054  0.9376  1.0284  2.8119
   90OSM    C7F 8564   2.949   2.655   3.122  0.5001 -0.0634 -0.2856
   90OSM    H7F 8565   2.911   2.570   3.061 -2.7513  1.7184 -0.9590
   90OSM    H7G 8566   2.864   2.725   3.109  0.0544 -0.6122 -0.3364
   90OSM    C8F 8567   2.956   2.605   3.271  0.4915 -0.1676  0.0574
   90OSM    H8F 8568   2.996   2.690   3.331 -1.0656 -0.5737  1.7742
   90OSM    H8G 8569   3.032   2.525   3.286 -1.3747 -2.4162 -1.7694
   90OSM    C9F 8570   2.823   2.550   3.319 -0.6990 -0.5049 -0.9480
   90OSM    H9F 8571   2.807   2.441   3.318 -0.7430 -0.5092 -2.6403
   90OSM   C10F 8572   2.732   2.627   3.380 -0.4259  0.5563 -0.1666
   90OSM   H10F 8573   2.642   2.577   3.419  0.6654 -0.7545  0.7913
   90OSM   C11F 8574   2.744   2.781   3.391  0.1087  0.1837 -0.2962
   90OSM   H11F 8575   2.709   2.822   3.294 -1.6542  1.6402  0.8862
   90OSM   H11G 8576   2.852   2.806   3.388  0.3606 -0.8872 -0.7042
   90OSM   C12F 8577   2.669   2.848   3.511 -0.6142  0.1154  0.6017
   90OSM   H12F 8578   2.560   2.831   3.506 -0.6445 -0.2072  2.0901
   90OSM   H12G 8579   2.707   2.952   3.502  4.5921 -1.4239  1.3210
   90OSM   C13F 8580   2.727   2.785   3.642  0.2650 -0.8528 -0.0346
   90OSM   H13F 8581   2.726   2.674   3.649 -0.4076 -0.9188 -1.0096
   90OSM   H13G 8582   2.656   2.807   3.725 -1.9422 -0.0975 -2.0126
   90OSM   C14F 8583   2.868   2.814   3.691 -0.3269  0.2731  0.5363
   90OSM   H14F 8584   2.910   2.909   3.653  3.0310 -0.2946  2.4227
   90OSM   H14G 8585   2.936   2.732   3.658 -1.1890  0.0014 -0.6399
   90OSM   C15F 8586   2.887   2.826   3.842  0.0009 -0.2063 -1.0085
   90OSM   H15F 8587   2.833   2.742   3.891  1.7117 -1.3431 -0.9965
   90OSM   H15G 8588   2.832   2.916   3.878  0.7791 -0.5530  1.2313
   90OSM   C16F 8589   3.033   2.837   3.880  0.0470 -0.1425  0.2750
   90OSM   H16F 8590   3.072   2.928   3.831 -0.0095  1.4225  2.9155
   90OSM   H16G 8591   3.092   2.754   3.836  0.1191 -1.3326  2.4460
   90OSM   C17F 8592   3.057   2.843   4.036 -0.0628  0.4796  0.0576
   90OSM   H17F 8593   2.991   2.772   4.090 -0.4533  1.8936  1.5213
   90OSM   H17G 8594   3.022   2.946   4.061 -2.5482 -0.7945  2.2259
   90OSM   C18F 8595   3.198   2.811   4.071 -0.4470 -0.0536 -0.4901
   90OSM   H18F 8596   3.202   2.790   4.180 -2.8539  2.2120  0.1335
   90OSM   H18G 8597   3.263   2.892   4.031 -0.0006  0.8092  1.7981
   90OSM   H18H 8598   3.227   2.721   4.014  1.0534  0.8967 -1.3211
   91OSM      N 8599   6.662   1.097   2.084  0.3367  0.1542 -0.6254
   91OSM    C15 8600   6.629   1.185   2.197 -0.1253  0.3939 -0.0157
   91OSM   H15A 8601   6.705   1.179   2.274  1.4531  2.1045 -1.3356
   91OSM   H15B 8602   6.535   1.155   2.240 -0.4464 -0.3349 -1.1968
   91OSM   H15C 8603   6.634   1.289   2.167  0.4387 -0.1192 -1.8133
   91OSM    C14 8604   6.662   0.948   2.120  0.2303 -0.6292  0.2990
   91OSM   H14A 8605   6.690   0.889   2.034 -2.4031  1.0656 -1.8926
   91OSM   H14B 8606   6.562   0.916   2.142 -0.6048 -0.2660 -2.5556
   91OSM   H14C 8607   6.726   0.925   2.204  0.1136 -0.6434  0.3839
   91OSM    C13 8608   6.564   1.111   1.979  0.0522  0.2909  0.0983
   91OSM   H13A 8609   6.465   1.096   2.019 -0.6345  2.6781 -0.5462
   91OSM   H13B 8610   6.580   1.047   1.893  0.6244  2.2821 -1.3475
   91OSM   H13C 8611   6.561   1.208   1.933  2.3298  1.3217  1.9269
   91OSM    C12 8612   6.800   1.131   2.029  0.3228  0.4306  0.6555
   91OSM   H12A 8613   6.798   1.226   1.976  1.4240  0.0125 -0.1558
   91OSM   H12B 8614   6.808   1.047   1.961  1.6763 -0.4968  1.9073
   91OSM    C11 8615   6.923   1.124   2.127 -0.0036 -0.1454  0.5350
   91OSM   H11A 8616   7.022   1.125   2.077 -0.6998  0.3920 -0.8667
   91OSM   H11B 8617   6.929   1.022   2.171 -2.4074 -2.6387 -4.1737
   91OSM      P 8618   6.941   1.363   2.215  0.0480 -0.1999  0.1727
   91OSM    O13 8619   6.968   1.399   2.076 -0.3176 -0.0315  0.1560
   91OSM    O14 8620   6.823   1.438   2.271 -0.1988  0.1564 -0.2516
   91OSM    O11 8621   7.070   1.399   2.299 -0.1090 -0.0702 -0.5045
   91OSM    O12 8622   6.913   1.215   2.230 -0.0051 -0.0782 -0.5361
   91OSM    C1S 8623   7.042   1.423   2.444 -0.0230 -0.4070 -0.1607
   91OSM    H1S 8624   6.963   1.355   2.483 -0.7263  0.3633 -0.2094
   91OSM    H1T 8625   7.005   1.526   2.460 -1.9529 -1.0289 -0.3082
   91OSM     NF 8626   7.110   1.414   2.677  0.1970 -0.1208 -0.4008
   91OSM    HNF 8627   7.131   1.498   2.727  0.5698 -0.1183 -0.5577
   91OSM    C2S 8628   7.159   1.403   2.543 -0.7576 -0.1131 -0.2791
   91OSM    H2S 8629   7.202   1.301   2.534 -1.4472 -0.4094 -0.2379
   91OSM    C3S 8630   7.273   1.498   2.510 -0.2749 -0.3359 -0.5574
   91OSM    H3S 8631   7.243   1.604   2.527  0.7998  0.2139 -1.8489
   91OSM     O3 8632   7.320   1.500   2.372  0.3364 -0.2281 -0.3166
   91OSM    HO3 8633   7.251   1.444   2.335  0.6159 -1.4252  0.8902
   91OSM    C4S 8634   7.387   1.483   2.605  0.9213  0.3772 -0.3141
   91OSM    H4S 8635   7.431   1.381   2.607 -0.1859 -0.1542 -1.5513
   91OSM    C5S 8636   7.463   1.586   2.669  0.4432  1.1011  1.1102
   91OSM    H5S 8637   7.430   1.690   2.655  2.3716  1.4865 -1.4170
   91OSM    C6S 8638   7.595   1.560   2.745  0.1689 -0.7303  0.6192
   91OSM    H6S 8639   7.606   1.647   2.814 -0.4000 -1.1046  1.1911
   91OSM    H6T 8640   7.679   1.568   2.672  0.5094 -1.3510  0.9352
   91OSM    C7S 8641   7.590   1.435   2.831 -0.4333 -0.0702 -0.8416
   91OSM    H7S 8642   7.693   1.419   2.870 -0.6453 -0.8503 -0.5701
   91OSM    H7T 8643   7.575   1.344   2.769  1.1813 -0.0488 -1.3179
   91OSM    C8S 8644   7.503   1.451   2.961  0.3489  0.4605  0.2634
   91OSM    H8S 8645   7.442   1.359   2.953  0.1731  0.6569 -0.7499
   91OSM    H8T 8646   7.434   1.538   2.949  0.3568  0.5757  0.9654
   91OSM    C9S 8647   7.572   1.440   3.100 -0.1297 -0.5963 -0.7499
   91OSM    H9S 8648   7.621   1.539   3.115 -0.1628 -0.8871  1.5464
   91OSM    H9T 8649   7.660   1.372   3.098  2.0383  1.9924  0.2150
   91OSM   C10S 8650   7.485   1.402   3.224 -0.6151 -0.3665  0.3350
   91OSM   H10S 8651   7.447   1.299   3.206  1.2110 -1.0609  0.2107
   91OSM   H10T 8652   7.400   1.473   3.226 -0.3138  0.0927 -1.4710
   91OSM   C11S 8653   7.552   1.412   3.366 -0.4744  0.3913  0.2048
   91OSM   H11S 8654   7.615   1.503   3.372  0.4706 -0.2909  1.1899
   91OSM   H11T 8655   7.629   1.334   3.386 -0.7986 -0.3493 -1.3098
   91OSM   C12S 8656   7.447   1.401   3.483 -0.1819  0.2967  0.0689
   91OSM   H12S 8657   7.412   1.296   3.484  1.6561 -0.3624 -0.5017
   91OSM   H12T 8658   7.364   1.466   3.449  0.5540  1.0910 -0.2488
   91OSM   C13S 8659   7.510   1.447   3.616 -0.8675  0.1677 -0.3278
   91OSM   H13S 8660   7.544   1.553   3.622  0.5769 -0.2951  4.7974
   91OSM   H13T 8661   7.597   1.380   3.632 -0.5666  0.6499  0.1076
   91OSM   C14S 8662   7.429   1.428   3.749 -0.1593  0.6054  0.1748
   91OSM   H14S 8663   7.413   1.320   3.771  0.1401  1.1198  3.2967
   91OSM   H14T 8664   7.331   1.477   3.731  0.4223  1.2853 -1.3090
   91OSM   C15S 8665   7.498   1.472   3.880  0.5333 -0.4734  0.3376
   91OSM   H15S 8666   7.537   1.575   3.865  1.2178 -0.7596  0.0878
   91OSM   H15T 8667   7.587   1.407   3.895  0.2094 -0.9877  0.0572
   91OSM   C16S 8668   7.395   1.451   3.993 -0.5655  0.1040 -0.1974
   91OSM   H16S 8669   7.374   1.347   4.027 -0.2223  0.4348  1.0621
   91OSM   H16T 8670   7.303   1.493   3.949  1.1205  1.6099 -2.5605
   91OSM   C17S 8671   7.431   1.531   4.115  0.6094  0.0590 -1.0138
   91OSM   H17S 8672   7.346   1.514   4.185  0.4773 -1.4700 -1.4961
   91OSM   H17T 8673   7.432   1.639   4.093  1.5631  0.1644 -0.5379
   91OSM   C18S 8674   7.555   1.484   4.195  0.6904 -0.0699  0.0793
   91OSM   H18S 8675   7.547   1.374   4.206  0.0925  0.1238  1.8955
   91OSM   H18T 8676   7.561   1.523   4.299 -1.5632 -0.0097  0.2225
   91OSM   H18U 8677   7.645   1.509   4.135  0.7039 -0.0016  0.1271
   91OSM    C1F 8678   7.033   1.329   2.738 -0.3619 -0.0499 -0.3663
   91OSM     OF 8679   7.013   1.217   2.692  0.2780  0.4231 -0.5615
   91OSM    C2F 8680   6.941   1.387   2.845  0.2741 -0.0297  0.3426
   91OSM    H2F 8681   6.841   1.340   2.833  0.9174 -1.6758  1.1686
   91OSM    H2G 8682   6.942   1.497   2.861 -0.6959  0.2498 -1.2083
   91OSM    C3F 8683   6.972   1.327   2.979 -1.3384  0.9228 -0.5315
   91OSM    H3F 8684   6.976   1.217   2.959 -0.3056  1.0742 -1.2453
   91OSM    H3G 8685   6.895   1.354   3.054 -1.7541 -1.6303  0.0763
   91OSM    C4F 8686   7.103   1.379   3.037  0.3463 -0.5098 -0.4753
   91OSM    H4F 8687   7.164   1.433   2.962 -0.2466  1.3323  0.2963
   91OSM    H4G 8688   7.172   1.304   3.080 -0.3339 -1.1310 -0.4371
   91OSM    C5F 8689   7.073   1.470   3.157 -0.2229  0.1127  0.1828
   91OSM    H5F 8690   6.979   1.526   3.142  0.3729  0.6829 -1.7065
   91OSM    H5G 8691   7.159   1.540   3.162 -0.2149  0.0511  1.0096
   91OSM    C6F 8692   7.075   1.396   3.293  0.1637 -0.0716  0.5100
   91OSM    H6F 8693   7.162   1.330   3.315 -0.1883  0.1579  2.7537
   91OSM    H6G 8694   6.987   1.330   3.301  1.8246 -2.2467  1.9086
   91OSM    C7F 8695   7.072   1.489   3.419 -0.2246  0.1200 -0.0542
   91OSM    H7F 8696   6.993   1.566   3.405  0.7356  1.1718  0.2717
   91OSM    H7G 8697   7.166   1.546   3.433 -0.1505 -0.1120  0.4014
   91OSM    C8F 8698   7.055   1.422   3.557 -0.6123  0.3906 -0.8928
   91OSM    H8F 8699   7.085   1.498   3.632  4.6641 -3.3641  1.4666
   91OSM    H8G 8700   7.127   1.337   3.564 -1.1609  0.0320  2.7232
   91OSM    C9F 8701   6.923   1.363   3.583  0.1179 -0.5871  0.3923
   91OSM    H9F 8702   6.842   1.395   3.515  0.5802  2.8530  1.2737
   91OSM   C10F 8703   6.882   1.269   3.668  0.1124 -0.7035  0.4691
   91OSM   H10F 8704   6.774   1.246   3.671 -0.2753  0.9836  0.2472
   91OSM   C11F 8705   6.964   1.194   3.766 -0.9560  0.2353 -0.0867
   91OSM   H11F 8706   7.070   1.194   3.733 -0.5740 -0.1780  1.0766
   91OSM   H11G 8707   6.944   1.085   3.762  0.6008 -0.0423 -1.1764
   91OSM   C12F 8708   6.961   1.245   3.914  0.0773 -0.3218 -0.4213
   91OSM   H12F 8709   6.857   1.234   3.951  0.9122 -1.1376  1.8141
   91OSM   H12G 8710   6.991   1.352   3.912 -0.6317 -0.1020  0.4427
   91OSM   C13F 8711   7.035   1.160   4.013 -0.2979  0.1793  0.4729
   91OSM   H13F 8712   7.140   1.156   3.978 -0.5055 -2.0011 -0.0398
   91OSM   H13G 8713   6.986   1.060   4.008  2.0593 -0.9918 -0.9281
   91OSM   C14F 8714   7.007   1.206   4.156  0.7355 -0.2591 -0.4670
   91OSM   H14F 8715   6.987   1.119   4.222 -1.9587 -0.5837 -1.5860
   91OSM   H14G 8716   6.912   1.264   4.156 -0.0650 -1.5172 -1.2357
   91OSM   C15F 8717   7.126   1.281   4.215 -0.1889  0.1619  0.1625
   91OSM   H15F 8718   7.154   1.379   4.169 -2.5279  1.2789  0.9803
   91OSM   H15G 8719   7.222   1.225   4.219 -0.0788  0.3855  0.7517
   91OSM   C16F 8720   7.091   1.324   4.358  0.9416 -0.2097 -0.7368
   91OSM   H16F 8721   7.080   1.233   4.421 -1.2126 -0.5969 -1.5800
   91OSM   H16G 8722   6.993   1.374   4.347  1.4363  0.8858 -0.2892
   91OSM   C17F 8723   7.196   1.416   4.409 -0.6977 -0.2653  0.1672
   91OSM   H17F 8724   7.199   1.504   4.341  0.4545 -0.9322 -0.6755
   91OSM   H17G 8725   7.290   1.359   4.394 -0.5576 -0.0720  0.3008
   91OSM   C18F 8726   7.167   1.451   4.553 -0.6811 -0.2989 -0.2744
   91OSM   H18F 8727   7.248   1.517   4.592  1.5658 -2.9107 -0.1867
   91OSM   H18G 8728   7.176   1.364   4.622  0.4629  0.6996  0.8834
   91OSM   H18H 8729   7.068   1.498   4.568 -0.0741  0.0559  3.6730
   92OSM      N 8730   3.997   4.681   2.035 -0.0842  0.9152 -0.1079
   92OSM    C15 8731   3.895   4.629   1.939 -0.0247  0.5109 -0.6574
   92OSM   H15A 8732   3.942   4.629   1.841  2.0104  1.1049  0.2606
   92OSM   H15B 8733   3.808   4.692   1.933 -1.7675 -1.5461  1.0688
   92OSM   H15C 8734   3.864   4.526   1.952  2.3320 -0.5100 -2.3163
   92OSM    C14 8735   4.051   4.806   1.969 -0.2792 -0.0044  1.2897
   92OSM   H14A 8736   3.979   4.885   1.958 -0.1055  0.0470  0.5015
   92OSM   H14B 8737   4.089   4.774   1.873 -0.0272 -1.0959  1.7395
   92OSM   H14C 8738   4.136   4.839   2.027  0.5204  0.5028 -0.1168
   92OSM    C13 8739   3.928   4.720   2.164  0.1310 -0.1725 -0.4723
   92OSM   H13A 8740   3.887   4.638   2.221  0.5089 -0.4825 -0.6426
   92OSM   H13B 8741   3.845   4.787   2.147 -0.1516 -0.3693  0.1348
   92OSM   H13C 8742   4.005   4.767   2.223  0.7600 -0.5955 -0.9417
   92OSM    C12 8743   4.113   4.585   2.070 -0.3814 -0.2479 -0.2990
   92OSM   H12A 8744   4.170   4.647   2.137 -3.2345  2.7442 -0.3814
   92OSM   H12B 8745   4.172   4.565   1.982  1.3568  0.0365  0.7575
   92OSM    C11 8746   4.084   4.452   2.131 -0.2650 -0.0907 -0.1922
   92OSM   H11A 8747   4.024   4.469   2.223  1.0359  2.6034  0.2503
   92OSM   H11B 8748   4.182   4.420   2.174 -0.0868  1.7497  0.8807
   92OSM      P 8749   3.897   4.284   2.040 -0.2283  0.0347  0.1950
   92OSM    O13 8750   3.795   4.352   2.124 -0.6294 -0.6072  0.7141
   92OSM    O14 8751   3.853   4.252   1.900 -0.1513  0.5894 -0.1829
   92OSM    O11 8752   3.935   4.143   2.112  0.3929 -0.8876  0.4144
   92OSM    O12 8753   4.033   4.365   2.031  0.4158 -0.0083  0.0346
   92OSM    C1S 8754   4.004   4.142   2.239  0.1953 -0.1652 -0.3003
   92OSM    H1S 8755   3.956   4.210   2.313 -0.6322 -1.4659  0.3968
   92OSM    H1T 8756   4.108   4.176   2.220  0.3967 -0.2576  0.5730
   92OSM     NF 8757   4.046   4.015   2.440 -0.5233  0.6107 -0.0028
   92OSM    HNF 8758   4.137   3.981   2.465 -0.7075  0.8631  1.0745
   92OSM    C2S 8759   4.002   4.005   2.299 -0.6502 -0.1662 -0.2837
   92OSM    H2S 8760   3.897   3.967   2.301  0.3530 -3.2143 -0.9581
   92OSM    C3S 8761   4.082   3.912   2.205 -0.5071  0.3543  0.1926
   92OSM    H3S 8762   4.185   3.949   2.188 -0.0125 -1.6933 -1.8215
   92OSM     O3 8763   4.039   3.908   2.071 -0.1221 -0.6434  0.1084
   92OSM    HO3 8764   4.006   3.997   2.057  0.2633 -0.4611  0.3497
   92OSM    C4S 8765   4.097   3.767   2.256  0.1291 -0.5156 -0.6388
   92OSM    H4S 8766   4.186   3.753   2.320 -0.7392  0.4836  0.8585
   92OSM    C5S 8767   4.028   3.657   2.231  0.1315  0.2769  0.5565
   92OSM    H5S 8768   3.954   3.667   2.149  0.7194  0.6498  0.0570
   92OSM    C6S 8769   4.061   3.521   2.284  0.0235  0.3087 -0.2021
   92OSM    H6S 8770   4.160   3.493   2.241  0.5034  1.1136  0.3588
   92OSM    H6T 8771   3.979   3.448   2.266  0.7355 -1.0887  1.8608
   92OSM    C7S 8772   4.096   3.502   2.427 -0.2171  0.1283  0.7114
   92OSM    H7S 8773   4.182   3.566   2.456  0.4196  1.3368 -3.3129
   92OSM    H7T 8774   4.128   3.396   2.439  0.2778  0.2653  0.6085
   92OSM    C8S 8775   3.972   3.531   2.520 -0.5036 -0.1356  0.1253
   92OSM    H8S 8776   3.902   3.448   2.499 -0.2487 -0.6246  1.1324
   92OSM    H8T 8777   3.931   3.630   2.493  2.8217  1.8918  1.7460
   92OSM    C9S 8778   4.028   3.548   2.664 -0.0279  0.0258 -0.1290
   92OSM    H9S 8779   4.089   3.641   2.667  0.6739 -0.4485  1.1441
   92OSM    H9T 8780   4.101   3.471   2.698  0.6712  1.4599  1.8021
   92OSM   C10S 8781   3.915   3.558   2.760  0.3416 -1.2258  0.2157
   92OSM   H10S 8782   3.853   3.465   2.764  0.9650 -1.6117  1.9864
   92OSM   H10T 8783   3.840   3.633   2.729 -1.7479 -2.3008  2.2758
   92OSM   C11S 8784   3.960   3.610   2.889 -0.2457 -0.2323 -0.3462
   92OSM   H11S 8785   4.027   3.698   2.901 -1.9277  1.0127  0.2430
   92OSM   H11T 8786   4.032   3.538   2.935 -0.7744  0.0265  0.9095
   92OSM   C12S 8787   3.843   3.631   2.987 -0.3779 -0.1189  0.1802
   92OSM   H12S 8788   3.774   3.544   2.980  1.0865 -1.2362 -1.1508
   92OSM   H12T 8789   3.794   3.725   2.953 -0.7690 -0.2365  0.4135
   92OSM   C13S 8790   3.901   3.658   3.122 -0.0244 -0.0419  0.3568
   92OSM   H13S 8791   3.959   3.752   3.124  0.5968 -0.4317  0.8421
   92OSM   H13T 8792   3.966   3.574   3.153  2.0809  0.6690 -1.8406
   92OSM   C14S 8793   3.790   3.684   3.223  0.3467 -0.0188 -0.1976
   92OSM   H14S 8794   3.714   3.605   3.234 -1.5755  1.9960  1.9092
   92OSM   H14T 8795   3.733   3.769   3.179  1.3272  0.8814  0.2202
   92OSM   C15S 8796   3.843   3.724   3.365  1.1042  0.6909 -1.3356
   92OSM   H15S 8797   3.762   3.761   3.431  0.9831  0.8313 -1.5619
   92OSM   H15T 8798   3.913   3.811   3.361  1.0282  0.8750  0.4220
   92OSM   C16S 8799   3.900   3.607   3.439  0.1645 -0.2110  0.2955
   92OSM   H16S 8800   3.997   3.583   3.390  0.5800  1.1720  0.3810
   92OSM   H16T 8801   3.835   3.518   3.440  0.3492 -0.3691 -0.5533
   92OSM   C17S 8802   3.950   3.644   3.576  0.4145 -0.2960  0.0339
   92OSM   H17S 8803   3.869   3.665   3.649  0.1174 -1.3660  0.0385
   92OSM   H17T 8804   4.005   3.740   3.577 -0.3200  0.1240  0.1455
   92OSM   C18S 8805   4.032   3.536   3.639 -0.3882  0.0992  0.1000
   92OSM   H18S 8806   3.968   3.446   3.650 -1.3482  0.9114  1.6079
   92OSM   H18T 8807   4.077   3.564   3.737  1.0303 -1.7006  0.0051
   92OSM   H18U 8808   4.121   3.511   3.578 -0.4309  1.5378 -0.5939
   92OSM    C1F 8809   3.968   4.067   2.531  0.2140  0.3610  0.1805
   92OSM     OF 8810   3.850   4.095   2.499 -0.3276 -0.0691  0.4902
   92OSM    C2F 8811   4.022   4.089   2.666  0.1695  0.2961 -0.0207
   92OSM    H2F 8812   4.028   4.200   2.671  1.3877  0.4108 -2.4683
   92OSM    H2G 8813   4.120   4.039   2.679 -1.1867 -2.4350  0.4226
   92OSM    C3F 8814   3.934   4.025   2.770  0.7820 -0.2109  0.3763
   92OSM    H3F 8815   3.927   3.916   2.749  1.0520  0.0579 -1.2872
   92OSM    H3G 8816   3.832   4.069   2.763  0.2224 -1.6942 -2.2293
   92OSM    C4F 8817   3.983   4.051   2.916  0.2554 -0.2400  0.5825
   92OSM    H4F 8818   4.020   4.155   2.926  1.6185 -0.7350  0.9746
   92OSM    H4G 8819   4.074   3.992   2.941  1.1934  0.3581 -1.2394
   92OSM    C5F 8820   3.879   4.045   3.027 -0.1976  0.0128  0.2546
   92OSM    H5F 8821   3.855   3.937   3.034 -2.6445  0.4833 -0.0047
   92OSM    H5G 8822   3.788   4.101   2.995  0.9223  1.6266 -0.2554
   92OSM    C6F 8823   3.927   4.096   3.160 -0.5550 -0.5108 -0.9868
   92OSM    H6F 8824   3.942   4.206   3.165  0.2703 -0.6771  1.4546
   92OSM    H6G 8825   4.021   4.044   3.188 -0.0601 -0.3160 -2.2004
   92OSM    C7F 8826   3.829   4.079   3.276 -0.6203 -0.3954 -0.7454
   92OSM    H7F 8827   3.800   3.972   3.286 -1.1980 -0.1177  0.8576
   92OSM    H7G 8828   3.730   4.121   3.248 -1.2667 -1.5378 -0.2349
   92OSM    C8F 8829   3.873   4.140   3.413 -0.3968 -0.2818 -0.1880
   92OSM    H8F 8830   3.779   4.179   3.458 -1.1794 -0.8340 -1.3047
   92OSM    H8G 8831   3.939   4.228   3.400 -0.3376  0.0593  1.9435
   92OSM    C9F 8832   3.944   4.034   3.498 -0.5055 -0.1101  0.3377
   92OSM    H9F 8833   4.037   3.991   3.458  0.8892  1.0721  2.1599
   92OSM   C10F 8834   3.922   4.011   3.629 -0.5674  0.3345 -0.2391
   92OSM   H10F 8835   3.962   3.917   3.668 -1.1578  1.0364  2.2129
   92OSM   C11F 8836   3.828   4.085   3.721 -0.5148  0.7617  0.1182
   92OSM   H11F 8837   3.760   4.009   3.765 -0.5431 -1.1908 -2.9423
   92OSM   H11G 8838   3.760   4.155   3.668 -2.3022  0.4444  1.9079
   92OSM   C12F 8839   3.909   4.163   3.828  0.0430 -0.8298 -0.4233
   92OSM   H12F 8840   3.987   4.217   3.770 -1.5656  0.4287 -1.4892
   92OSM   H12G 8841   3.963   4.101   3.904 -1.6288 -1.8262  0.0126
   92OSM   C13F 8842   3.823   4.261   3.910  0.1978 -0.4178  0.1576
   92OSM   H13F 8843   3.892   4.296   3.990 -0.0556  1.1466 -0.2794
   92OSM   H13G 8844   3.744   4.211   3.969 -1.2079 -0.5710 -1.7899
   92OSM   C14F 8845   3.754   4.376   3.839 -1.0828 -0.3033  0.2802
   92OSM   H14F 8846   3.681   4.336   3.766 -1.6495  0.3616  0.4764
   92OSM   H14G 8847   3.830   4.441   3.791 -3.3684  0.7221 -2.1974
   92OSM   C15F 8848   3.675   4.454   3.947  0.3408 -0.1767 -0.3943
   92OSM   H15F 8849   3.591   4.392   3.984 -0.5043  0.0633 -1.8110
   92OSM   H15G 8850   3.638   4.547   3.899  0.0968 -0.6755 -1.1990
   92OSM   C16F 8851   3.758   4.496   4.068  0.4378 -0.1283 -0.3374
   92OSM   H16F 8852   3.858   4.532   4.035  2.6275 -2.4185  3.0334
   92OSM   H16G 8853   3.783   4.405   4.126 -1.5142 -0.3639  0.1904
   92OSM   C17F 8854   3.693   4.601   4.167 -0.0289 -0.0507  0.3320
   92OSM   H17F 8855   3.709   4.700   4.119  0.3065 -0.2576  0.0105
   92OSM   H17G 8856   3.746   4.608   4.265  2.6184  1.8818 -1.1022
   92OSM   C18F 8857   3.549   4.571   4.204  0.3118 -0.9022  0.1989
   92OSM   H18F 8858   3.512   4.633   4.288  3.2816 -0.8753  1.6475
   92OSM   H18G 8859   3.539   4.465   4.237  2.7542 -1.2416  0.0429
   92OSM   H18H 8860   3.485   4.580   4.114 -0.1070  0.5826  0.6268
   93OSM      N 8861   3.551   3.991   1.955  0.6921  0.0507  0.7348
   93OSM    C15 8862   3.688   3.924   1.993  0.4296  0.0883  0.7606
   93OSM   H15A 8863   3.732   3.978   2.076 -0.1775  2.1619 -0.2127
   93OSM   H15B 8864   3.759   3.938   1.913  1.1045 -1.1560  1.1183
   93OSM   H15C 8865   3.677   3.820   2.018 -0.4378  0.1041  0.4660
   93OSM    C14 8866   3.562   4.138   1.953  0.4932  0.2718  1.0969
   93OSM   H14A 8867   3.632   4.175   1.880  0.7992 -0.1728  1.1642
   93OSM   H14B 8868   3.611   4.165   2.046  0.4030 -1.0480  1.5532
   93OSM   H14C 8869   3.462   4.179   1.945  0.4406 -0.1166 -0.4235
   93OSM    C13 8870   3.513   3.935   1.820 -0.0207  0.3806 -0.2507
   93OSM   H13A 8871   3.412   3.954   1.786 -1.3963 -2.8539  1.5411
   93OSM   H13B 8872   3.526   3.828   1.813  0.5855  0.3425  1.1047
   93OSM   H13C 8873   3.581   3.979   1.750  2.0523  0.1535  1.5198
   93OSM    C12 8874   3.446   3.951   2.064  0.3324  0.9538 -0.0683
   93OSM   H12A 8875   3.477   3.991   2.159  1.2219 -3.1497  1.5490
   93OSM   H12B 8876   3.457   3.844   2.071 -0.7242  0.8242 -0.1538
   93OSM    C11 8877   3.304   3.993   2.040  0.1735 -0.1728  0.1186
   93OSM   H11A 8878   3.232   3.947   2.111 -0.9373 -0.6916 -1.2818
   93OSM   H11B 8879   3.263   3.944   1.949  0.3556 -2.3401  1.1537
   93OSM      P 8880   3.266   4.241   2.140  0.3231 -0.0850 -0.3849
   93OSM    O13 8881   3.337   4.370   2.110  0.0089 -0.1194 -0.3459
   93OSM    O14 8882   3.129   4.260   2.177  0.4083  0.0816  0.2731
   93OSM    O11 8883   3.330   4.157   2.262 -0.5523 -0.6792 -0.0406
   93OSM    O12 8884   3.296   4.137   2.027  0.0228 -0.4222  0.1636
   93OSM    C1S 8885   3.456   4.204   2.313 -0.2776  1.0482  0.2203
   93OSM    H1S 8886   3.461   4.315   2.318 -0.2334  1.0068  1.3736
   93OSM    H1T 8887   3.540   4.181   2.244  0.1450  1.8838  0.4396
   93OSM     NF 8888   3.577   4.235   2.530 -0.2243 -0.2374  0.4538
   93OSM    HNF 8889   3.668   4.195   2.542  0.1193  0.4646  0.2688
   93OSM    C2S 8890   3.485   4.153   2.456  0.3090 -0.5940  0.1696
   93OSM    H2S 8891   3.387   4.165   2.508  1.5728  2.4811  2.1177
   93OSM    C3S 8892   3.522   4.000   2.444  0.5033 -0.3166 -0.3125
   93OSM    H3S 8893   3.615   3.982   2.385  0.8884  0.5431  0.0198
   93OSM     O3 8894   3.416   3.916   2.399 -0.0484  0.3675 -0.4414
   93OSM    HO3 8895   3.345   3.979   2.379 -0.4324 -0.1241 -0.6481
   93OSM    C4S 8896   3.554   3.953   2.583 -0.4534  0.2244 -0.2809
   93OSM    H4S 8897   3.660   3.955   2.613 -0.4968  1.4857 -0.1486
   93OSM    C5S 8898   3.460   3.936   2.679 -0.0065  0.1099 -0.0901
   93OSM    H5S 8899   3.353   3.946   2.654 -0.2300 -2.8609 -0.7620
   93OSM    C6S 8900   3.505   3.900   2.822  0.3902 -0.3272 -0.4993
   93OSM    H6S 8901   3.612   3.871   2.826  0.7436  0.6924 -1.7329
   93OSM    H6T 8902   3.446   3.811   2.852  2.0269 -2.1003 -2.2608
   93OSM    C7S 8903   3.486   4.014   2.922 -0.0947 -0.0478  0.6112
   93OSM    H7S 8904   3.388   4.064   2.930 -0.2871  0.1090 -1.9040
   93OSM    H7T 8905   3.556   4.098   2.902  0.4737 -0.5440  0.4914
   93OSM    C8S 8906   3.519   3.954   3.060 -0.3259 -0.3232  0.5999
   93OSM    H8S 8907   3.552   4.037   3.127  1.2962 -0.2585 -0.2318
   93OSM    H8T 8908   3.612   3.893   3.050  1.2537  1.8985  1.0559
   93OSM    C9S 8909   3.399   3.884   3.124  0.2826 -0.7469  0.8077
   93OSM    H9S 8910   3.375   3.796   3.061  4.2480 -2.3432  1.2318
   93OSM    H9T 8911   3.312   3.953   3.115  0.6282 -0.1843  1.6295
   93OSM   C10S 8912   3.418   3.851   3.269 -0.2725  0.7323 -0.3458
   93OSM   H10S 8913   3.509   3.788   3.278 -0.2101  0.7214 -0.9739
   93OSM   H10T 8914   3.330   3.785   3.286  0.9681 -0.5881  1.3524
   93OSM   C11S 8915   3.418   3.969   3.358  0.1539  0.2984 -0.2090
   93OSM   H11S 8916   3.324   4.028   3.355 -0.2734 -0.1721  1.8701
   93OSM   H11T 8917   3.507   4.031   3.333  2.2167 -2.0468  0.8498
   93OSM   C12S 8918   3.425   3.943   3.511 -0.1017 -0.6471 -0.4462
   93OSM   H12S 8919   3.524   3.898   3.533  0.4920  1.2833  1.1751
   93OSM   H12T 8920   3.346   3.885   3.563 -0.7356  1.7011  1.3696
   93OSM   C13S 8921   3.426   4.078   3.588 -0.9365  0.5699  0.5613
   93OSM   H13S 8922   3.332   4.131   3.564 -0.3395  1.8012  0.8499
   93OSM   H13T 8923   3.505   4.146   3.550  0.2627 -0.9148  0.3155
   93OSM   C14S 8924   3.439   4.082   3.741 -0.6277  0.0319  0.1358
   93OSM   H14S 8925   3.546   4.090   3.772 -0.9986  1.8061  1.0636
   93OSM   H14T 8926   3.385   3.992   3.777 -0.5130  0.2276  0.8180
   93OSM   C15S 8927   3.382   4.206   3.817 -0.2928 -0.3868 -0.1003
   93OSM   H15S 8928   3.360   4.300   3.762  1.9207 -0.1623 -0.7063
   93OSM   H15T 8929   3.451   4.236   3.899 -0.1360  0.8808 -0.6779
   93OSM   C16S 8930   3.250   4.168   3.885 -0.3061  0.1101 -0.1803
   93OSM   H16S 8931   3.271   4.080   3.950 -0.0542  0.5613  0.3602
   93OSM   H16T 8932   3.183   4.132   3.804  0.9863 -2.2950 -0.2663
   93OSM   C17S 8933   3.178   4.279   3.971  0.0494  0.7386 -0.1782
   93OSM   H17S 8934   3.155   4.369   3.911 -3.6627  0.2578  0.2924
   93OSM   H17T 8935   3.253   4.310   4.047 -0.1407 -2.1132  1.3297
   93OSM   C18S 8936   3.054   4.227   4.030  0.3744  0.1371  0.4725
   93OSM   H18S 8937   3.076   4.155   4.111 -0.2953 -0.1176  0.4399
   93OSM   H18T 8938   2.992   4.305   4.080 -0.5346 -0.6144  0.5537
   93OSM   H18U 8939   2.987   4.170   3.962 -1.1752  2.7703 -0.3326
   93OSM    C1F 8940   3.547   4.351   2.589  0.6994  0.2316  0.7095
   93OSM     OF 8941   3.427   4.386   2.600 -0.4234  0.0545  0.7722
   93OSM    C2F 8942   3.658   4.443   2.622  0.3152 -0.3347 -0.2170
   93OSM    H2F 8943   3.627   4.547   2.598 -0.8281 -0.5796  0.1016
   93OSM    H2G 8944   3.739   4.423   2.549  0.5000  2.8396 -1.0083
   93OSM    C3F 8945   3.721   4.432   2.767 -0.0906 -0.0170 -0.4121
   93OSM    H3F 8946   3.792   4.517   2.774  0.3979 -0.3068 -1.6383
   93OSM    H3G 8947   3.784   4.340   2.765  2.0535  1.3795  0.2377
   93OSM    C4F 8948   3.617   4.437   2.885 -0.3360  0.0548  0.2814
   93OSM    H4F 8949   3.542   4.357   2.865  0.2930 -0.7071  0.8616
   93OSM    H4G 8950   3.554   4.526   2.870 -0.8679  0.4586  4.0527
   93OSM    C5F 8951   3.677   4.432   3.028 -0.3058 -0.1706  0.5606
   93OSM    H5F 8952   3.736   4.526   3.037 -1.0635  0.4495 -0.6509
   93OSM    H5G 8953   3.731   4.336   3.039  0.4487  0.2431  0.5058
   93OSM    C6F 8954   3.573   4.437   3.136 -0.1586  0.1145  0.0722
   93OSM    H6F 8955   3.507   4.348   3.134 -0.2953  0.1876  1.0265
   93OSM    H6G 8956   3.512   4.530   3.124 -1.3844 -0.4986  1.2610
   93OSM    C7F 8957   3.626   4.432   3.279 -0.3359 -0.2459 -0.7953
   93OSM    H7F 8958   3.714   4.499   3.284 -1.8299  1.8875 -1.5291
   93OSM    H7G 8959   3.652   4.326   3.300 -1.7962 -0.0124  2.9472
   93OSM    C8F 8960   3.524   4.490   3.387 -0.1953  0.2979 -0.0293
   93OSM    H8F 8961   3.445   4.413   3.402  0.1235 -0.4213 -1.8677
   93OSM    H8G 8962   3.471   4.578   3.343  2.4085  0.5917 -2.8321
   93OSM    C9F 8963   3.598   4.528   3.512 -0.2521 -0.7319 -0.2589
   93OSM    H9F 8964   3.672   4.451   3.540  1.5588  1.3947  1.1887
   93OSM   C10F 8965   3.579   4.638   3.591  0.5156  0.7856 -0.5593
   93OSM   H10F 8966   3.641   4.654   3.680 -0.2890  1.2429 -0.0755
   93OSM   C11F 8967   3.465   4.740   3.578  0.3364  0.3177  0.4211
   93OSM   H11F 8968   3.390   4.712   3.501  0.0938 -0.1710  0.8332
   93OSM   H11G 8969   3.516   4.833   3.544 -1.3114  0.8677 -0.6387
   93OSM   C12F 8970   3.385   4.787   3.700  0.4955 -0.7323 -1.3767
   93OSM   H12F 8971   3.328   4.694   3.722  1.6555 -1.1728 -0.1062
   93OSM   H12G 8972   3.309   4.861   3.668  0.6365 -0.2087 -0.5433
   93OSM   C13F 8973   3.457   4.833   3.834 -0.0369  0.1364  0.0348
   93OSM   H13F 8974   3.508   4.930   3.814  1.1203 -0.1850  1.2533
   93OSM   H13G 8975   3.540   4.759   3.841 -0.6517 -0.8298 -1.9522
   93OSM   C14F 8976   3.371   4.835   3.963 -0.2816 -0.3103  0.6515
   93OSM   H14F 8977   3.314   4.930   3.959  1.1059  0.5958  1.6498
   93OSM   H14G 8978   3.444   4.846   4.046 -0.4870  3.0380  0.5094
   93OSM   C15F 8979   3.270   4.717   3.988 -0.8474 -0.5390  0.1089
   93OSM   H15F 8980   3.330   4.625   3.971  1.6314  1.0262 -0.2136
   93OSM   H15G 8981   3.191   4.706   3.911 -0.4940 -0.4298 -0.2811
   93OSM   C16F 8982   3.201   4.732   4.123 -0.2014 -1.0632  0.1547
   93OSM   H16F 8983   3.139   4.823   4.108  1.4923 -0.1466 -1.7653
   93OSM   H16G 8984   3.276   4.755   4.203 -0.4478  3.4680 -0.6477
   93OSM   C17F 8985   3.112   4.618   4.167 -0.8920 -0.7346  0.8737
   93OSM   H17F 8986   3.075   4.610   4.271 -2.1659 -1.0227  0.4091
   93OSM   H17G 8987   3.168   4.523   4.150  1.1571  0.4479  0.6195
   93OSM   C18F 8988   2.984   4.624   4.079 -0.5264  0.1396 -0.4626
   93OSM   H18F 8989   3.012   4.600   3.974  0.2674  2.8243 -0.9422
   93OSM   H18G 8990   2.907   4.555   4.119 -1.3711 -0.2294 -2.5914
   93OSM   H18H 8991   2.934   4.723   4.089 -1.8587 -0.0255 -3.9347
   94OSM      N 8992   3.462   3.050   1.630  0.3007  0.5992  0.6900
   94OSM    C15 8993   3.333   2.973   1.650  0.1826  0.1946 -0.5670
   94OSM   H15A 8994   3.349   2.892   1.720  1.3936  0.2694 -0.7416
   94OSM   H15B 8995   3.315   2.916   1.560  2.6448  0.7717 -1.4820
   94OSM   H15C 8996   3.250   3.037   1.675 -0.7439 -0.2952 -2.2542
   94OSM    C14 8997   3.442   3.134   1.500 -0.1865  0.3653  0.3559
   94OSM   H14A 8998   3.361   3.205   1.499  0.4094  1.0719  0.8207
   94OSM   H14B 8999   3.428   3.067   1.417  0.7043  0.5825  0.0150
   94OSM   H14C 9000   3.534   3.178   1.464  0.1220 -2.2965 -2.5902
   94OSM    C13 9001   3.470   3.148   1.746 -0.0399 -0.1794 -0.4567
   94OSM   H13A 9002   3.486   3.108   1.845 -0.9093 -0.0763 -0.2602
   94OSM   H13B 9003   3.377   3.202   1.758 -0.0966 -0.5650  1.0608
   94OSM   H13C 9004   3.555   3.213   1.731 -0.1594 -0.0141 -0.4252
   94OSM    C12 9005   3.586   2.965   1.622 -0.0511  0.0417 -0.0948
   94OSM   H12A 9006   3.585   2.915   1.718 -0.2155  0.5490  0.1710
   94OSM   H12B 9007   3.674   3.028   1.616 -0.4693  0.7182  0.7248
   94OSM    C11 9008   3.601   2.871   1.504 -0.1589  0.6458  0.1177
   94OSM   H11A 9009   3.599   2.924   1.407  1.9307 -0.5651 -0.6704
   94OSM   H11B 9010   3.523   2.792   1.503 -0.5162  0.9917  0.5602
   94OSM      P 9011   3.757   2.683   1.594  0.0816  0.0268  0.5790
   94OSM    O13 9012   3.653   2.585   1.556 -0.6132 -0.4507 -0.0012
   94OSM    O14 9013   3.898   2.639   1.585 -0.6379 -0.5680  0.0267
   94OSM    O11 9014   3.724   2.725   1.745 -0.3222 -0.3433  0.2459
   94OSM    O12 9015   3.734   2.820   1.513 -0.1106  0.1223  0.4402
   94OSM    C1S 9016   3.733   2.622   1.844 -0.8548 -0.0395  0.7144
   94OSM    H1S 9017   3.832   2.570   1.841 -0.5774  0.4069  1.8710
   94OSM    H1T 9018   3.662   2.538   1.831 -0.7684 -0.1306  0.8346
   94OSM     NF 9019   3.753   2.577   2.081  1.0040 -0.0563  0.1592
   94OSM    HNF 9020   3.685   2.512   2.112  0.6908  0.4425  0.5339
   94OSM    C2S 9021   3.718   2.674   1.985  0.6624  0.3564 -0.2293
   94OSM    H2S 9022   3.785   2.761   1.996  0.8515  0.0082  1.7590
   94OSM    C3S 9023   3.570   2.724   1.991 -0.0641  0.1296  0.4124
   94OSM    H3S 9024   3.517   2.627   1.979  0.9919 -0.2638 -1.3389
   94OSM     O3 9025   3.530   2.819   1.884 -0.4347 -0.0398  0.0234
   94OSM    HO3 9026   3.600   2.792   1.824  1.0742 -1.3346  2.2149
   94OSM    C4S 9027   3.543   2.784   2.127  0.4499  0.6394  0.0900
   94OSM    H4S 9028   3.509   2.717   2.207 -0.0498  1.9451  0.9936
   94OSM    C5S 9029   3.542   2.918   2.150  0.5554  0.6540 -0.3223
   94OSM    H5S 9030   3.556   2.988   2.066 -0.6620  1.8092  0.3979
   94OSM    C6S 9031   3.484   2.986   2.271  0.1826  0.2360 -0.4002
   94OSM    H6S 9032   3.414   3.065   2.238 -1.4213 -1.4064 -1.0892
   94OSM    H6T 9033   3.567   3.044   2.317  2.8636 -1.9621 -2.1393
   94OSM    C7S 9034   3.407   2.919   2.389  0.1290 -0.4185  0.4867
   94OSM    H7S 9035   3.479   2.851   2.441  1.5823  0.1343 -0.7494
   94OSM    H7T 9036   3.320   2.860   2.352 -0.3060 -2.1894  3.8913
   94OSM    C8S 9037   3.357   3.028   2.484 -0.4414  0.4933 -0.1095
   94OSM    H8S 9038   3.283   2.992   2.559 -2.4174  2.6590 -0.8772
   94OSM    H8T 9039   3.301   3.102   2.423  0.5752  1.4205  0.0577
   94OSM    C9S 9040   3.460   3.098   2.573  0.9209  0.4836  0.2628
   94OSM    H9S 9041   3.409   3.188   2.611  2.8352  2.2740 -1.1684
   94OSM    H9T 9042   3.554   3.128   2.521 -0.6890  3.0106 -1.3826
   94OSM   C10S 9043   3.488   3.028   2.707 -0.6251 -0.2137 -0.1849
   94OSM   H10S 9044   3.569   3.086   2.755  0.6188 -2.0732  0.0773
   94OSM   H10T 9045   3.523   2.925   2.684 -0.4366  0.0717 -1.2355
   94OSM   C11S 9046   3.379   3.031   2.816 -0.3038 -0.5887  0.9699
   94OSM   H11S 9047   3.281   2.994   2.778 -0.3713  2.2619 -2.0643
   94OSM   H11T 9048   3.373   3.140   2.838 -0.5993  0.0629 -1.8349
   94OSM   C12S 9049   3.434   2.954   2.931  0.1386 -0.1201  0.0637
   94OSM   H12S 9050   3.542   2.974   2.945  0.3470 -1.0803 -0.0807
   94OSM   H12T 9051   3.422   2.847   2.902 -2.6811  0.4428 -1.1961
   94OSM   C13S 9052   3.354   2.974   3.061 -0.0446 -0.2897 -0.1551
   94OSM   H13S 9053   3.245   2.954   3.046 -0.0766 -1.4623  1.4591
   94OSM   H13T 9054   3.366   3.084   3.074  1.9381 -0.4943  0.0377
   94OSM   C14S 9055   3.416   2.901   3.184 -0.5523  0.9025 -0.2833
   94OSM   H14S 9056   3.526   2.912   3.194 -0.3667 -0.7593 -0.2786
   94OSM   H14T 9057   3.403   2.794   3.157 -1.3839  1.1287 -0.8288
   94OSM   C15S 9058   3.334   2.939   3.314 -0.3986  1.0477  0.1350
   94OSM   H15S 9059   3.228   2.914   3.291 -0.0197  0.0331 -0.6073
   94OSM   H15T 9060   3.335   3.049   3.331 -1.6899  0.9963  0.6440
   94OSM   C16S 9061   3.391   2.863   3.426  0.4604  0.1494 -0.2597
   94OSM   H16S 9062   3.488   2.909   3.451  0.5441  0.8819 -1.8342
   94OSM   H16T 9063   3.406   2.756   3.399  2.9690  0.0427  1.2667
   94OSM   C17S 9064   3.307   2.863   3.558  0.0848  0.0954  0.9250
   94OSM   H17S 9065   3.206   2.831   3.525  0.8378 -0.3952 -1.0613
   94OSM   H17T 9066   3.307   2.969   3.592  0.7664  0.0786  0.9895
   94OSM   C18S 9067   3.365   2.774   3.665 -0.5550  0.3981  1.0268
   94OSM   H18S 9068   3.474   2.790   3.682 -0.0956 -4.0954  4.5770
   94OSM   H18T 9069   3.352   2.666   3.646 -4.1667  1.1116 -1.3813
   94OSM   H18U 9070   3.313   2.799   3.760 -1.8405 -2.2212  1.0838
   94OSM    C1F 9071   3.871   2.547   2.127 -0.6659  0.2001 -0.4887
   94OSM     OF 9072   3.975   2.600   2.084 -0.3116 -0.2349  0.1225
   94OSM    C2F 9073   3.883   2.446   2.246 -0.1862  0.2392  0.2809
   94OSM    H2F 9074   3.906   2.343   2.211  1.1752  1.3795 -2.5592
   94OSM    H2G 9075   3.791   2.445   2.308  0.2905  0.7226  1.0233
   94OSM    C3F 9076   4.006   2.476   2.341  0.5765 -0.2179 -0.0015
   94OSM    H3F 9077   3.998   2.582   2.375  2.3512 -0.2573  0.6561
   94OSM    H3G 9078   4.097   2.477   2.278  0.0817  3.3158 -0.8906
   94OSM    C4F 9079   4.009   2.387   2.465 -1.0727  0.0146  0.1509
   94OSM    H4F 9080   4.049   2.290   2.427  2.1654  0.7750  1.2513
   94OSM    H4G 9081   3.907   2.383   2.509 -1.8497 -1.4708 -1.6479
   94OSM    C5F 9082   4.120   2.446   2.560  0.3292  0.1202  0.4169
   94OSM    H5F 9083   4.075   2.543   2.591 -0.9811 -1.1412  2.8373
   94OSM    H5G 9084   4.219   2.450   2.511 -0.2782 -1.1958 -1.0213
   94OSM    C6F 9085   4.141   2.357   2.689 -0.0455  0.8493  0.2157
   94OSM    H6F 9086   4.183   2.261   2.651  2.5704  1.5792  1.0817
   94OSM    H6G 9087   4.045   2.336   2.741 -0.4563 -0.8428 -1.1178
   94OSM    C7F 9088   4.253   2.408   2.783  1.0938 -0.1330  0.6803
   94OSM    H7F 9089   4.344   2.438   2.727  0.6845  0.5798  0.3890
   94OSM    H7G 9090   4.281   2.318   2.842  0.9033  0.5821  1.8829
   94OSM    C8F 9091   4.203   2.520   2.878  0.0518  0.0747 -0.4658
   94OSM    H8F 9092   4.117   2.472   2.929 -0.6047  2.7599  1.1757
   94OSM    H8G 9093   4.160   2.602   2.817  0.4728 -0.0715 -0.9647
   94OSM    C9F 9094   4.315   2.579   2.968  0.5033 -0.5893 -0.1228
   94OSM    H9F 9095   4.403   2.614   2.912 -0.7853  1.7508 -0.8334
   94OSM   C10F 9096   4.301   2.591   3.103 -0.0712  0.2220  0.7962
   94OSM   H10F 9097   4.387   2.622   3.165 -0.4781  2.2186  0.4354
   94OSM   C11F 9098   4.188   2.540   3.191 -0.1625  0.2796 -0.3922
   94OSM   H11F 9099   4.133   2.461   3.135 -0.2967  0.0937 -0.0072
   94OSM   H11G 9100   4.126   2.630   3.208 -1.9782 -1.2713  2.0513
   94OSM   C12F 9101   4.236   2.495   3.333 -0.0535 -0.1156 -0.3696
   94OSM   H12F 9102   4.276   2.392   3.338 -1.0746 -0.4811  0.5576
   94OSM   H12G 9103   4.152   2.503   3.406  0.2428 -0.2774 -0.0065
   94OSM   C13F 9104   4.329   2.586   3.414  0.2384  0.2616  0.1497
   94OSM   H13F 9105   4.272   2.680   3.426 -0.3615 -0.2476  1.6097
   94OSM   H13G 9106   4.418   2.603   3.351 -1.8504 -0.3781 -3.2179
   94OSM   C14F 9107   4.368   2.533   3.555  0.3269 -0.0553  0.2256
   94OSM   H14F 9108   4.440   2.448   3.550  0.7283  0.3016 -0.1241
   94OSM   H14G 9109   4.275   2.498   3.605 -0.4626  1.2429 -0.2694
   94OSM   C15F 9110   4.424   2.648   3.637 -0.3392 -0.1181  1.1813
   94OSM   H15F 9111   4.356   2.735   3.624 -0.8928 -0.3360  2.4504
   94OSM   H15G 9112   4.519   2.685   3.593 -1.0863  0.1489 -0.2529
   94OSM   C16F 9113   4.448   2.619   3.782  0.1756 -0.2573  0.0483
   94OSM   H16F 9114   4.528   2.542   3.791  0.7915  0.1208 -1.8158
   94OSM   H16G 9115   4.352   2.578   3.819 -0.2428  0.8031  0.1664
   94OSM   C17F 9116   4.476   2.738   3.871  0.2753  0.5383  0.4654
   94OSM   H17F 9117   4.382   2.797   3.865  1.0249  1.7969  0.5697
   94OSM   H17G 9118   4.565   2.798   3.841  1.5061 -0.0543  2.7141
   94OSM   C18F 9119   4.493   2.694   4.016  0.1891 -0.1037  0.8686
   94OSM   H18F 9120   4.593   2.646   4.021  0.5807 -0.2479 -3.6593
   94OSM   H18G 9121   4.409   2.625   4.039  0.1537 -0.5702 -0.5339
   94OSM   H18H 9122   4.507   2.779   4.086  0.5952  0.5055  0.0680
   95OSM      N 9123   5.408   5.407   1.723  0.4390  0.5439 -0.0877
   95OSM    C15 9124   5.282   5.360   1.667  0.7706 -0.0699  0.3099
   95OSM   H15A 9125   5.217   5.336   1.749  0.4202  0.0840  0.0812
   95OSM   H15B 9126   5.297   5.265   1.617  0.1262 -1.1251  2.0411
   95OSM   H15C 9127   5.233   5.434   1.605  1.9276 -0.6544 -1.3970
   95OSM    C14 9128   5.503   5.459   1.616  0.6236 -0.4753 -0.0360
   95OSM   H14A 9129   5.463   5.534   1.549  0.8036  1.8710  2.3459
   95OSM   H14B 9130   5.537   5.377   1.555  0.8410 -0.5272  0.1541
   95OSM   H14C 9131   5.590   5.498   1.666  1.1593 -1.1612 -0.4052
   95OSM    C13 9132   5.379   5.523   1.818 -0.7745  0.4932  0.7981
   95OSM   H13A 9133   5.467   5.550   1.874  1.7335 -1.5362 -1.8706
   95OSM   H13B 9134   5.311   5.492   1.896 -2.4040 -0.7369 -1.0060
   95OSM   H13C 9135   5.362   5.617   1.768  1.7391  0.8917  0.5777
   95OSM    C12 9136   5.475   5.297   1.801  0.0686  0.5872 -0.6595
   95OSM   H12A 9137   5.564   5.333   1.852  1.1385 -1.3783 -1.0522
   95OSM   H12B 9138   5.519   5.218   1.742 -2.8113 -1.4259 -0.3061
   95OSM    C11 9139   5.391   5.225   1.912 -0.5055 -0.3183  0.3103
   95OSM   H11A 9140   5.332   5.294   1.975  0.0207  0.1841  0.2565
   95OSM   H11B 9141   5.466   5.181   1.981  0.4540  0.0047 -0.5009
   95OSM      P 9142   5.356   4.992   1.800  0.4305  0.4039  0.3395
   95OSM    O13 9143   5.245   4.901   1.764  0.4543 -0.3782  0.2755
   95OSM    O14 9144   5.466   5.018   1.706 -0.0829 -0.4923 -0.1573
   95OSM    O11 9145   5.425   4.932   1.927  0.0911 -0.2452 -0.0099
   95OSM    O12 9146   5.303   5.133   1.850 -0.3454  0.2501 -0.1498
   95OSM    C1S 9147   5.366   4.911   2.059  0.6248  0.0645 -0.0457
   95OSM    H1S 9148   5.294   4.826   2.060  0.2133  0.4113 -0.3694
   95OSM    H1T 9149   5.318   4.998   2.108 -0.3869 -0.4483 -0.0995
   95OSM     NF 9150   5.432   4.841   2.285  0.4219 -0.2466 -0.0388
   95OSM    HNF 9151   5.442   4.911   2.355  0.4532  1.0394 -1.2932
   95OSM    C2S 9152   5.483   4.880   2.153  0.9499 -0.4002 -0.1404
   95OSM    H2S 9153   5.536   4.788   2.121  0.9747 -0.6359  0.5658
   95OSM    C3S 9154   5.598   4.982   2.150  0.1515  0.1951 -0.2917
   95OSM    H3S 9155   5.543   5.075   2.175 -0.5934 -0.2548 -0.2146
   95OSM     O3 9156   5.657   5.005   2.020  0.5486 -0.7555 -0.0538
   95OSM    HO3 9157   5.603   4.965   1.952 -0.0364  1.7250 -1.1415
   95OSM    C4S 9158   5.695   4.944   2.255 -0.3846  0.3609 -0.4126
   95OSM    H4S 9159   5.758   4.856   2.234 -1.0571 -0.0122 -0.8871
   95OSM    C5S 9160   5.715   5.024   2.363 -0.8252 -0.3292 -0.4828
   95OSM    H5S 9161   5.651   5.111   2.384  0.1259  0.3234 -0.2152
   95OSM    C6S 9162   5.818   4.991   2.469 -0.0509  1.0021  0.3527
   95OSM    H6S 9163   5.916   5.020   2.426 -0.3570 -0.9238 -1.8340
   95OSM    H6T 9164   5.818   4.883   2.497  1.3675  0.7480 -0.5561
   95OSM    C7S 9165   5.793   5.065   2.600  0.1129 -0.4081 -0.1430
   95OSM    H7S 9166   5.816   5.173   2.585  2.6717 -1.0814 -1.6459
   95OSM    H7T 9167   5.867   5.021   2.670 -0.2775 -2.5948 -1.0489
   95OSM    C8S 9168   5.653   5.059   2.653 -0.1837 -0.2808 -0.3081
   95OSM    H8S 9169   5.619   4.956   2.677 -0.2789 -0.2775 -0.4284
   95OSM    H8T 9170   5.592   5.115   2.580  1.8438 -0.2117 -2.0386
   95OSM    C9S 9171   5.653   5.139   2.785 -0.3548  0.2577 -0.6850
   95OSM    H9S 9172   5.546   5.165   2.803 -0.7230  1.8608 -4.3340
   95OSM    H9T 9173   5.709   5.231   2.760  2.0108 -0.4314  1.6339
   95OSM   C10S 9174   5.711   5.059   2.906 -0.3438  1.1217 -0.1495
   95OSM   H10S 9175   5.805   5.001   2.893 -1.2964 -1.0684  1.9513
   95OSM   H10T 9176   5.645   4.978   2.943  2.0657 -2.1695 -2.4540
   95OSM   C11S 9177   5.723   5.147   3.030  0.3714 -0.6820  0.3545
   95OSM   H11S 9178   5.620   5.179   3.057  0.4326  1.3108 -1.4556
   95OSM   H11T 9179   5.771   5.240   2.993 -1.3012 -0.0845 -0.4364
   95OSM   C12S 9180   5.807   5.099   3.147  0.3214 -0.5643  0.3838
   95OSM   H12S 9181   5.905   5.067   3.106  0.2419  1.3789 -1.5168
   95OSM   H12T 9182   5.756   5.002   3.170 -1.9736 -0.1225 -2.2695
   95OSM   C13S 9183   5.825   5.190   3.266  0.9680  0.0454 -0.1469
   95OSM   H13S 9184   5.723   5.227   3.290  0.5236  0.1893 -2.0882
   95OSM   H13T 9185   5.882   5.283   3.247  0.2782  1.4622  3.6854
   95OSM   C14S 9186   5.866   5.120   3.391  0.5111 -0.2242  0.2511
   95OSM   H14S 9187   5.964   5.069   3.381  0.2108 -0.9397  0.8849
   95OSM   H14T 9188   5.812   5.024   3.411  2.8292 -2.0272 -1.4714
   95OSM   C15S 9189   5.854   5.213   3.517 -0.2942 -1.0075  0.4838
   95OSM   H15S 9190   5.749   5.250   3.522  0.3440  1.3056 -1.3378
   95OSM   H15T 9191   5.912   5.305   3.493 -1.7486 -0.6739 -2.0990
   95OSM   C16S 9192   5.903   5.141   3.643  0.1069  0.0698  0.6146
   95OSM   H16S 9193   6.005   5.097   3.636  1.2049  2.4635  0.3614
   95OSM   H16T 9194   5.826   5.063   3.658  0.0690  0.4169  2.4450
   95OSM   C17S 9195   5.898   5.221   3.773 -0.4819 -0.2341 -0.0601
   95OSM   H17S 9196   5.807   5.283   3.786  1.0265  1.7695  1.6003
   95OSM   H17T 9197   5.983   5.293   3.771 -0.2772 -0.4605 -2.5066
   95OSM   C18S 9198   5.915   5.131   3.897 -0.4408  0.4321 -0.5794
   95OSM   H18S 9199   5.896   5.191   3.988 -2.8655 -1.8604  0.5691
   95OSM   H18T 9200   6.016   5.085   3.907 -1.1690 -0.9581  0.7241
   95OSM   H18U 9201   5.837   5.052   3.897 -0.5996  0.5550  0.9538
   95OSM    C1F 9202   5.357   4.739   2.304  0.8098 -0.2801 -0.1792
   95OSM     OF 9203   5.340   4.657   2.215  0.0089 -0.4321 -0.2376
   95OSM    C2F 9204   5.296   4.727   2.444  0.3885  0.2516 -0.3104
   95OSM    H2F 9205   5.306   4.622   2.482 -1.5662 -0.2419 -1.0588
   95OSM    H2G 9206   5.192   4.764   2.434  0.8507  1.2945 -1.4298
   95OSM    C3F 9207   5.379   4.818   2.543  0.7786  0.5631 -0.4141
   95OSM    H3F 9208   5.360   4.922   2.509 -3.4813 -0.3824 -1.6078
   95OSM    H3G 9209   5.483   4.780   2.547  0.3698 -0.6853 -1.2220
   95OSM    C4F 9210   5.320   4.807   2.688  0.3135 -0.0000  0.5258
   95OSM    H4F 9211   5.337   4.704   2.728 -0.2132 -0.9188 -1.4687
   95OSM    H4G 9212   5.209   4.817   2.681  0.4188  0.5810 -0.3139
   95OSM    C5F 9213   5.359   4.907   2.795 -0.1223 -0.0634 -0.8450
   95OSM    H5F 9214   5.351   5.012   2.759  0.6038 -0.3456 -1.8680
   95OSM    H5G 9215   5.468   4.891   2.811 -0.3676 -1.9752 -0.8297
   95OSM    C6F 9216   5.295   4.872   2.932  0.2031  0.4254  0.1223
   95OSM    H6F 9217   5.301   4.764   2.958 -2.7316 -0.6446 -2.9289
   95OSM    H6G 9218   5.185   4.874   2.916 -0.0062 -2.0248  0.9422
   95OSM    C7F 9219   5.331   4.972   3.041  0.3833  0.9534 -0.2764
   95OSM    H7F 9220   5.290   5.073   3.020  0.8082  1.5501  1.5760
   95OSM    H7G 9221   5.442   4.974   3.042  0.4678 -0.8051  2.2355
   95OSM    C8F 9222   5.277   4.914   3.176  0.1591 -0.2589  0.8275
   95OSM    H8F 9223   5.173   4.884   3.150  0.7495 -0.7937 -1.1287
   95OSM    H8G 9224   5.260   5.005   3.237  0.5079  1.1923 -1.1294
   95OSM    C9F 9225   5.368   4.812   3.254  0.7729 -0.2914  0.0581
   95OSM    H9F 9226   5.361   4.707   3.222  1.7718 -0.5670  0.7211
   95OSM   C10F 9227   5.459   4.841   3.350  0.1005 -0.5026 -0.2103
   95OSM   H10F 9228   5.501   4.753   3.401 -2.8424 -1.7849  0.2251
   95OSM   C11F 9229   5.503   4.966   3.410  0.8110 -0.4618 -0.6668
   95OSM   H11F 9230   5.429   5.048   3.398  2.2541  0.9557 -0.3153
   95OSM   H11G 9231   5.596   4.995   3.357  0.4423 -0.5155 -1.3498
   95OSM   C12F 9232   5.534   4.957   3.560  0.2715  0.9391  0.4672
   95OSM   H12F 9233   5.591   5.047   3.591 -1.0281  1.9460  0.0051
   95OSM   H12G 9234   5.599   4.867   3.572 -1.0696  0.0334  1.1764
   95OSM   C13F 9235   5.411   4.944   3.644  0.6919 -0.1484  0.0086
   95OSM   H13F 9236   5.353   4.853   3.617 -1.9792  2.1970 -2.8799
   95OSM   H13G 9237   5.346   5.031   3.622  3.1788  1.7018 -0.4904
   95OSM   C14F 9238   5.444   4.950   3.793  0.2279  0.2941  0.3537
   95OSM   H14F 9239   5.520   5.029   3.810  1.8636 -0.5719 -2.2907
   95OSM   H14G 9240   5.481   4.851   3.829 -0.1216 -0.4266 -1.1685
   95OSM   C15F 9241   5.313   4.968   3.870 -0.0183  0.6936 -0.0785
   95OSM   H15F 9242   5.233   4.905   3.825  1.3913 -0.5022 -0.9873
   95OSM   H15G 9243   5.274   5.072   3.863 -1.2710  0.1790 -1.5016
   95OSM   C16F 9244   5.324   4.931   4.012 -0.3836 -0.2450 -0.4791
   95OSM   H16F 9245   5.411   4.980   4.061  0.7197 -1.3177 -1.2847
   95OSM   H16G 9246   5.343   4.821   4.017 -1.4222 -0.4777 -1.2522
   95OSM   C17F 9247   5.195   4.953   4.097 -0.3377 -0.0997  0.4271
   95OSM   H17F 9248   5.147   5.053   4.083 -3.7231 -1.5451  0.6824
   95OSM   H17G 9249   5.220   4.932   4.203 -0.6319  1.3638  0.8114
   95OSM   C18F 9250   5.082   4.853   4.064 -0.4281 -0.3306 -0.0471
   95OSM   H18F 9251   5.094   4.755   4.114 -0.3553 -0.5265 -0.4449
   95OSM   H18G 9252   5.065   4.834   3.956 -1.2209  0.4474 -0.0690
   95OSM   H18H 9253   4.990   4.895   4.110 -1.2588 -0.7000 -1.3166
   96OSM      N 9254   1.709   5.208   1.919  0.3007  0.2117  0.1608
   96OSM    C15 9255   1.741   5.067   1.903 -0.3268  0.3007 -0.8828
   96OSM   H15A 9256   1.843   5.038   1.922 -0.9567 -1.7035 -0.3370
   96OSM   H15B 9257   1.716   5.044   1.800 -1.1512  1.5137 -0.9827
   96OSM   H15C 9258   1.685   5.005   1.971 -0.7189  0.2291 -1.2665
   96OSM    C14 9259   1.564   5.234   1.895  0.8503  0.0579 -0.1218
   96OSM   H14A 9260   1.550   5.341   1.887  0.3065 -0.0750 -1.1412
   96OSM   H14B 9261   1.500   5.180   1.963  1.3142 -2.5699 -1.6428
   96OSM   H14C 9262   1.529   5.192   1.802 -1.5631 -1.9474  1.5625
   96OSM    C13 9263   1.731   5.230   2.069  1.0078 -0.1817  0.6486
   96OSM   H13A 9264   1.725   5.332   2.106 -0.9757 -0.7968  2.1970
   96OSM   H13B 9265   1.835   5.201   2.076  0.5285 -3.3464 -2.8262
   96OSM   H13C 9266   1.677   5.165   2.135  0.1182 -0.8980 -0.7562
   96OSM    C12 9267   1.795   5.301   1.840 -0.2636 -0.5619 -0.2198
   96OSM   H12A 9268   1.786   5.265   1.739 -0.3750  1.9946 -1.2007
   96OSM   H12B 9269   1.897   5.290   1.874  0.1265 -1.8058 -1.6644
   96OSM    C11 9270   1.767   5.450   1.843  0.0185 -0.1064  0.5316
   96OSM   H11A 9271   1.675   5.472   1.785  1.0075 -0.7419 -1.3573
   96OSM   H11B 9272   1.853   5.504   1.799  0.8914 -2.2661 -0.5593
   96OSM      P 9273   1.652   5.585   2.040  0.1591  0.2535  0.0744
   96OSM    O13 9274   1.703   5.720   2.067 -0.3548  0.4852  0.2809
   96OSM    O14 9275   1.525   5.580   1.959 -0.4064 -1.0024 -0.4163
   96OSM    O11 9276   1.636   5.504   2.182  0.2712  0.2213  0.6224
   96OSM    O12 9277   1.763   5.494   1.982  0.6620  0.3610 -0.0874
   96OSM    C1S 9278   1.747   5.491   2.266 -0.5063  0.0369 -0.5926
   96OSM    H1S 9279   1.846   5.530   2.232 -0.1386  0.1677  0.5875
   96OSM    H1T 9280   1.766   5.383   2.287 -2.0818 -0.4247 -1.3844
   96OSM     NF 9281   1.860   5.516   2.481  0.7896  0.1634 -0.4776
   96OSM    HNF 9282   1.863   5.428   2.527  0.9593 -0.7523 -2.1460
   96OSM    C2S 9283   1.736   5.545   2.416 -0.9635 -0.0450  0.5351
   96OSM    H2S 9284   1.727   5.655   2.411 -1.6769 -0.1636 -2.2917
   96OSM    C3S 9285   1.608   5.496   2.480  0.0036 -0.3327  0.5622
   96OSM    H3S 9286   1.628   5.387   2.489 -0.7983 -0.6600 -1.1061
   96OSM     O3 9287   1.482   5.502   2.418 -0.8684 -0.0880  0.1763
   96OSM    HO3 9288   1.505   5.544   2.334  2.1600 -1.3694  0.2380
   96OSM    C4S 9289   1.593   5.549   2.618 -0.4857  0.1435  0.2507
   96OSM    H4S 9290   1.635   5.469   2.681 -0.0648  1.3520  1.5553
   96OSM    C5S 9291   1.543   5.664   2.660 -0.9323 -0.5691  0.2690
   96OSM    H5S 9292   1.512   5.743   2.590  1.6649  1.7567  1.5117
   96OSM    C6S 9293   1.543   5.707   2.803  0.8491  0.3435  0.8668
   96OSM    H6S 9294   1.436   5.724   2.829  0.2525 -0.6953 -0.7348
   96OSM    H6T 9295   1.598   5.802   2.821  2.5583 -0.3491 -0.3949
   96OSM    C7S 9296   1.593   5.614   2.913 -0.2161 -0.2108  0.3903
   96OSM    H7S 9297   1.695   5.573   2.905 -0.9264 -1.9258 -0.3093
   96OSM    H7T 9298   1.524   5.528   2.901 -1.6594  1.0080 -0.5815
   96OSM    C8S 9299   1.592   5.683   3.048  0.6281 -0.7935  0.0337
   96OSM    H8S 9300   1.499   5.741   3.066  1.8913  1.8931 -1.4977
   96OSM    H8T 9301   1.666   5.764   3.033 -0.6977  0.8853  2.0915
   96OSM    C9S 9302   1.641   5.603   3.169 -0.5465  0.2067  0.8849
   96OSM    H9S 9303   1.706   5.656   3.241 -0.5637  0.2301  0.8828
   96OSM    H9T 9304   1.707   5.520   3.135 -1.0347  0.8513 -1.9204
   96OSM   C10S 9305   1.540   5.535   3.257  0.4576  1.2325  0.1581
   96OSM   H10S 9306   1.469   5.474   3.197 -0.7525  0.9876  1.7778
   96OSM   H10T 9307   1.464   5.604   3.299 -1.1118 -0.1801 -0.2222
   96OSM   C11S 9308   1.615   5.442   3.354 -0.2788 -0.8637 -0.3869
   96OSM   H11S 9309   1.686   5.384   3.291 -0.6704 -0.3706 -1.3064
   96OSM   H11T 9310   1.548   5.360   3.389  0.6899 -0.6666  2.0849
   96OSM   C12S 9311   1.665   5.504   3.485  0.2522  0.6832 -0.2771
   96OSM   H12S 9312   1.574   5.554   3.525  0.9925  0.6748  1.4849
   96OSM   H12T 9313   1.745   5.575   3.457  1.0348 -0.5222 -1.1972
   96OSM   C13S 9314   1.721   5.396   3.579  0.0686 -0.4783 -0.4138
   96OSM   H13S 9315   1.788   5.455   3.646 -2.4254  0.4648  1.3910
   96OSM   H13T 9316   1.768   5.317   3.516  0.1947 -1.1436  0.4987
   96OSM   C14S 9317   1.615   5.324   3.658  0.2320 -0.1498 -0.0129
   96OSM   H14S 9318   1.544   5.261   3.599 -0.6433 -0.9258  1.7887
   96OSM   H14T 9319   1.558   5.400   3.716 -0.5405 -1.3958  0.9050
   96OSM   C15S 9320   1.678   5.243   3.775 -0.5098  0.1073 -0.4434
   96OSM   H15S 9321   1.747   5.297   3.843 -2.4018  3.2346 -0.7744
   96OSM   H15T 9322   1.735   5.171   3.713 -0.4453  0.8108 -1.2142
   96OSM   C16S 9323   1.568   5.158   3.841  0.6401 -0.1713  0.4349
   96OSM   H16S 9324   1.511   5.108   3.760  1.6855 -2.1775  0.8604
   96OSM   H16T 9325   1.498   5.229   3.890 -0.7423  0.1767 -1.9046
   96OSM   C17S 9326   1.613   5.043   3.934 -0.5042 -0.2481  0.1274
   96OSM   H17S 9327   1.692   4.981   3.885 -0.3025 -1.2342  1.6329
   96OSM   H17T 9328   1.523   4.982   3.957 -0.8564  0.7387  1.5199
   96OSM   C18S 9329   1.667   5.097   4.070 -1.1780 -0.7291  0.6632
   96OSM   H18S 9330   1.582   5.152   4.115 -1.7042 -0.1889 -0.9012
   96OSM   H18T 9331   1.758   5.156   4.046 -2.2653  0.4370 -0.8536
   96OSM   H18U 9332   1.704   5.008   4.125  1.4550  0.7546  1.4580
   96OSM    C1F 9333   1.967   5.593   2.467  0.9981 -0.2655 -0.4313
   96OSM     OF 9334   1.958   5.699   2.406 -0.0423 -0.2630  0.3972
   96OSM    C2F 9335   2.091   5.558   2.539  0.0163 -0.7795 -0.0118
   96OSM    H2F 9336   2.149   5.653   2.545  1.4587 -1.7027  1.5460
   96OSM    H2G 9337   2.161   5.493   2.482  0.8094 -0.0039  0.0526
   96OSM    C3F 9338   2.077   5.494   2.676  0.0246 -0.9007 -0.2867
   96OSM    H3F 9339   2.173   5.445   2.704  0.9608  1.3018  0.6744
   96OSM    H3G 9340   1.994   5.421   2.687  1.7065 -2.6816  1.7213
   96OSM    C4F 9341   2.040   5.599   2.787 -0.3470 -0.2752 -0.2831
   96OSM    H4F 9342   1.947   5.572   2.842  0.3135 -0.3785  0.8091
   96OSM    H4G 9343   2.021   5.693   2.731  0.2343  0.3352  0.5350
   96OSM    C5F 9344   2.154   5.630   2.879  0.1155  0.0339 -0.1314
   96OSM    H5F 9345   2.140   5.727   2.932  0.8276  0.0765 -0.0096
   96OSM    H5G 9346   2.252   5.637   2.827  0.2695  2.1573  0.3273
   96OSM    C6F 9347   2.172   5.531   3.001  0.7726  0.4394  0.4443
   96OSM    H6F 9348   2.275   5.534   3.042  1.0170 -2.3765  0.2075
   96OSM    H6G 9349   2.145   5.427   2.972  1.8282  0.2866 -0.0162
   96OSM    C7F 9350   2.087   5.558   3.125  0.3067 -0.8573  0.2036
   96OSM    H7F 9351   1.982   5.547   3.090 -0.2580 -0.4618  1.6917
   96OSM    H7G 9352   2.092   5.667   3.147  1.1388  0.6866 -5.7495
   96OSM    C8F 9353   2.126   5.472   3.251 -1.3510  0.1576 -0.4008
   96OSM    H8F 9354   2.233   5.492   3.274 -0.9233 -1.3990 -0.9310
   96OSM    H8G 9355   2.113   5.365   3.226 -0.2834  0.4397 -2.3698
   96OSM    C9F 9356   2.035   5.488   3.371 -0.5676 -0.4379 -0.1641
   96OSM    H9F 9357   1.939   5.436   3.355 -1.4280  0.9531  0.3150
   96OSM   C10F 9358   2.044   5.579   3.470  0.1407 -0.1761  0.4777
   96OSM   H10F 9359   1.959   5.585   3.539 -2.3165  0.7012 -2.4086
   96OSM   C11F 9360   2.158   5.676   3.489 -0.4264 -0.3143  0.0042
   96OSM   H11F 9361   2.126   5.782   3.500  0.8346  0.3769 -2.2582
   96OSM   H11G 9362   2.218   5.678   3.395 -2.0959 -0.0974 -1.0939
   96OSM   C12F 9363   2.275   5.636   3.590  0.2391 -0.5791  0.5276
   96OSM   H12F 9364   2.348   5.713   3.557  0.8012 -1.2362  0.1948
   96OSM   H12G 9365   2.306   5.534   3.560 -0.5195 -0.5231 -0.5030
   96OSM   C13F 9366   2.241   5.662   3.741 -0.5274  0.2448  0.3806
   96OSM   H13F 9367   2.214   5.768   3.757  2.1434  1.0150  0.3534
   96OSM   H13G 9368   2.320   5.635   3.814  1.1684 -1.0382 -1.7634
   96OSM   C14F 9369   2.127   5.578   3.798 -0.0066  0.3935  0.6034
   96OSM   H14F 9370   2.152   5.473   3.773 -0.5982  0.6990 -1.4562
   96OSM   H14G 9371   2.030   5.596   3.747  0.3730 -1.2748 -0.8066
   96OSM   C15F 9372   2.093   5.610   3.945 -0.0676  0.3135 -0.6039
   96OSM   H15F 9373   2.098   5.721   3.953 -0.2467  0.3494 -0.9788
   96OSM   H15G 9374   2.177   5.583   4.012 -0.4190 -0.0423 -0.3037
   96OSM   C16F 9375   1.966   5.543   3.986  0.5472 -0.2346 -0.0898
   96OSM   H16F 9376   1.968   5.435   3.960  2.7981 -0.0654 -0.8056
   96OSM   H16G 9377   1.886   5.593   3.927 -1.0842 -1.5241  0.9163
   96OSM   C17F 9378   1.934   5.551   4.133  0.2848 -0.1326 -0.0507
   96OSM   H17F 9379   1.934   5.655   4.173  0.1327 -0.9776  2.3064
   96OSM   H17G 9380   2.019   5.500   4.183  1.7318  2.9977  0.9428
   96OSM   C18F 9381   1.796   5.488   4.154  0.3394  0.5625  0.6785
   96OSM   H18F 9382   1.715   5.556   4.122  1.2712  1.4972  0.2516
   96OSM   H18G 9383   1.793   5.449   4.258 -0.7825  0.5732  0.6538
   96OSM   H18H 9384   1.793   5.394   4.094  0.9773  0.1204  1.3139
   97OSM      N 9385   5.046   0.103   2.089 -0.5109  0.4598 -0.2434
   97OSM    C15 9386   5.024  -0.027   2.011  0.5648  0.2306 -0.2137
   97OSM   H15A 9387   4.927  -0.066   2.036  0.2402  0.2331 -1.4231
   97OSM   H15B 9388   5.104  -0.098   2.032 -0.7945 -2.0757 -2.2718
   97OSM   H15C 9389   5.023  -0.002   1.906 -0.7690 -4.1984 -1.4967
   97OSM    C14 9390   5.171   0.157   2.025 -0.4598  0.2195 -0.0654
   97OSM   H14A 9391   5.155   0.191   1.924  0.7480  0.6162 -0.1407
   97OSM   H14B 9392   5.262   0.098   2.033 -0.3611  0.4677  0.7388
   97OSM   H14C 9393   5.194   0.246   2.081 -0.7309  0.0764  0.2792
   97OSM    C13 9394   4.934   0.199   2.059 -0.4503 -0.3241 -0.3108
   97OSM   H13A 9395   4.843   0.153   2.095 -0.5501  0.1078  0.0008
   97OSM   H13B 9396   4.933   0.218   1.953  3.3683 -1.6571 -0.7483
   97OSM   H13C 9397   4.936   0.288   2.120  1.0182 -0.5242 -0.0198
   97OSM    C12 9398   5.061   0.075   2.234  0.1515 -0.4452  0.4482
   97OSM   H12A 9399   5.154   0.020   2.239  0.5419  0.2412  0.8704
   97OSM   H12B 9400   4.984   0.005   2.261  1.4948 -3.3673 -2.5384
   97OSM    C11 9401   5.065   0.190   2.331  0.7882 -0.7007 -0.5328
   97OSM   H11A 9402   5.058   0.171   2.440  1.8088  0.0170 -0.3286
   97OSM   H11B 9403   4.977   0.252   2.303  0.1177 -1.2577  0.3074
   97OSM      P 9404   5.316   0.236   2.353 -0.3519 -0.1915  0.1888
   97OSM    O13 9405   5.338   0.092   2.328  0.1462 -0.4002 -0.0228
   97OSM    O14 9406   5.418   0.332   2.289 -0.2817 -0.4704 -0.0629
   97OSM    O11 9407   5.314   0.247   2.514 -0.3124 -0.2489  0.0338
   97OSM    O12 9408   5.172   0.272   2.306 -0.1661 -0.6540 -0.0499
   97OSM    C1S 9409   5.442   0.210   2.578  0.4415  0.5131 -0.3457
   97OSM    H1S 9410   5.497   0.306   2.587  1.3020 -0.0598  0.8182
   97OSM    H1T 9411   5.493   0.122   2.532  0.8685 -0.0795  1.1904
   97OSM     NF 9412   5.553   0.116   2.780 -1.0230  0.2316 -0.4013
   97OSM    HNF 9413   5.590   0.027   2.756 -1.5868  0.2857 -1.5631
   97OSM    C2S 9414   5.418   0.153   2.727 -0.4762  0.2351  0.1606
   97OSM    H2S 9415   5.374   0.242   2.776  1.1344  0.8749  0.4955
   97OSM    C3S 9416   5.312   0.047   2.745  0.3284  0.4032  0.2202
   97OSM    H3S 9417   5.359  -0.051   2.722  0.2220  0.0981  1.2641
   97OSM     O3 9418   5.195   0.057   2.655 -0.6218  0.3760 -0.1691
   97OSM    HO3 9419   5.240   0.105   2.586  3.3480 -0.5673  1.4674
   97OSM    C4S 9420   5.278   0.037   2.896  0.2882  0.3213 -0.6224
   97OSM    H4S 9421   5.342  -0.029   2.957 -1.1763  0.3082  0.9800
   97OSM    C5S 9422   5.173   0.099   2.959 -0.7891 -0.6316  0.3141
   97OSM    H5S 9423   5.111   0.161   2.894 -1.0543 -0.6559  0.5418
   97OSM    C6S 9424   5.132   0.082   3.106  0.0447  0.5751 -0.6084
   97OSM    H6S 9425   5.070  -0.009   3.119  0.6564  0.2276 -0.0543
   97OSM    H6T 9426   5.073   0.168   3.145 -0.6752 -0.4388  0.5950
   97OSM    C7S 9427   5.251   0.072   3.208 -0.1428  0.1417 -0.1483
   97OSM    H7S 9428   5.325  -0.008   3.187  0.9202  0.9635  0.3666
   97OSM    H7T 9429   5.219   0.058   3.313  1.0205  1.6280  0.4573
   97OSM    C8S 9430   5.351   0.200   3.203 -0.0062  0.6000  0.0526
   97OSM    H8S 9431   5.280   0.286   3.199  0.4531  1.1133  1.8111
   97OSM    H8T 9432   5.415   0.186   3.114  0.1049 -1.9490  0.4521
   97OSM    C9S 9433   5.438   0.200   3.330 -1.1782  0.1810  0.4992
   97OSM    H9S 9434   5.526   0.132   3.332 -0.5001  1.0633  1.5493
   97OSM    H9T 9435   5.381   0.188   3.424 -2.0643 -0.7617 -0.1344
   97OSM   C10S 9436   5.510   0.337   3.339 -0.5831  0.5918 -0.0053
   97OSM   H10S 9437   5.427   0.405   3.369  2.0596  3.8195  0.6681
   97OSM   H10T 9438   5.543   0.363   3.237 -0.7017  1.2266  0.1139
   97OSM   C11S 9439   5.611   0.344   3.454  0.0747  0.3087  0.3457
   97OSM   H11S 9440   5.693   0.281   3.413  1.7099  2.3100  0.3989
   97OSM   H11T 9441   5.576   0.295   3.547  0.8330 -0.6586  0.1421
   97OSM   C12S 9442   5.669   0.476   3.496  0.0092  0.4485 -1.1538
   97OSM   H12S 9443   5.597   0.531   3.560 -0.8124 -0.7556 -1.0034
   97OSM   H12T 9444   5.694   0.538   3.407  1.8407  0.9036 -0.3736
   97OSM   C13S 9445   5.788   0.442   3.584  0.9754  0.0083  0.0957
   97OSM   H13S 9446   5.868   0.390   3.526 -0.3346 -0.3774 -1.4183
   97OSM   H13T 9447   5.758   0.372   3.665 -0.4846  0.8022  0.2629
   97OSM   C14S 9448   5.841   0.559   3.668  0.3844 -0.7954  0.3780
   97OSM   H14S 9449   5.768   0.624   3.720  0.1164 -0.5156 -0.3285
   97OSM   H14T 9450   5.895   0.627   3.598 -1.6018 -0.9991 -1.4650
   97OSM   C15S 9451   5.941   0.536   3.770 -0.6166  0.2399 -0.8037
   97OSM   H15S 9452   6.032   0.506   3.713 -1.8414  2.0467 -3.9985
   97OSM   H15T 9453   5.899   0.449   3.824  1.9017 -0.4070  0.2756
   97OSM   C16S 9454   5.982   0.646   3.871 -0.1321  0.4138  0.3141
   97OSM   H16S 9455   5.892   0.701   3.904  0.3664  1.9973 -0.8094
   97OSM   H16T 9456   6.054   0.722   3.831  0.6187 -1.4061 -2.0012
   97OSM   C17S 9457   6.041   0.568   3.990 -0.7069 -0.2362 -0.4099
   97OSM   H17S 9458   6.143   0.543   3.956 -0.1480  2.3319 -0.8280
   97OSM   H17T 9459   5.975   0.479   4.000 -1.2181  0.0405 -1.1948
   97OSM   C18S 9460   6.035   0.636   4.132  0.3449  0.4826  0.2949
   97OSM   H18S 9461   6.112   0.591   4.197  1.9785  0.2351 -1.6924
   97OSM   H18T 9462   5.933   0.624   4.174  0.9488  0.7428  1.8693
   97OSM   H18U 9463   6.061   0.744   4.127 -0.7955  0.9485  2.9986
   97OSM    C1F 9464   5.654   0.204   2.791  0.3338 -0.1162  0.6641
   97OSM     OF 9465   5.637   0.326   2.779 -0.1618  0.0253  0.1864
   97OSM    C2F 9466   5.788   0.138   2.812  0.4461 -0.1592  0.6539
   97OSM    H2F 9467   5.867   0.211   2.782  1.6770 -0.5935  2.6340
   97OSM    H2G 9468   5.788   0.054   2.739  1.5057  1.6331 -1.5616
   97OSM    C3F 9469   5.790   0.112   2.963  0.3787  0.2665  0.0575
   97OSM    H3F 9470   5.717   0.039   3.004 -1.3796  1.7110 -0.4040
   97OSM    H3G 9471   5.763   0.198   3.027 -0.8074 -0.6717  0.8747
   97OSM    C4F 9472   5.925   0.062   3.017  0.6091  0.0475  0.2180
   97OSM    H4F 9473   6.005   0.123   2.971  1.9544 -1.0649  0.9954
   97OSM    H4G 9474   5.938  -0.045   2.991 -0.2066  0.2344 -1.0717
   97OSM    C5F 9475   5.934   0.076   3.170  0.3061 -0.8920  0.2439
   97OSM    H5F 9476   5.848   0.024   3.217  0.1300 -0.6232  0.2233
   97OSM    H5G 9477   5.910   0.181   3.198 -0.0312 -1.3781  1.8637
   97OSM    C6F 9478   6.066   0.038   3.229 -0.0742  0.1703 -0.0172
   97OSM    H6F 9479   6.147   0.060   3.157 -0.3491 -0.0224 -0.3886
   97OSM    H6G 9480   6.074  -0.067   3.263 -0.4380  0.3105  0.5252
   97OSM    C7F 9481   6.104   0.128   3.346  1.3694  0.1627 -0.0018
   97OSM    H7F 9482   6.015   0.157   3.405  1.0110 -0.3971 -0.2599
   97OSM    H7G 9483   6.148   0.211   3.286 -0.9619  1.6483  0.2321
   97OSM    C8F 9484   6.211   0.072   3.447  0.5595 -0.3938 -0.5150
   97OSM    H8F 9485   6.309   0.038   3.406  0.3746 -1.0435 -0.4235
   97OSM    H8G 9486   6.179  -0.016   3.506 -1.4375  1.1751  0.9105
   97OSM    C9F 9487   6.230   0.186   3.545 -0.1146 -0.2070 -0.3733
   97OSM    H9F 9488   6.293   0.266   3.503 -0.1583  0.5063  0.8970
   97OSM   C10F 9489   6.183   0.210   3.668  0.0928 -0.0494 -0.3867
   97OSM   H10F 9490   6.219   0.296   3.726 -0.5914  0.1485 -0.2419
   97OSM   C11F 9491   6.094   0.122   3.747  1.0876  1.2255 -0.3268
   97OSM   H11F 9492   6.068   0.023   3.705  1.0534  0.5522  1.2216
   97OSM   H11G 9493   6.010   0.193   3.761  2.5972  3.2066 -0.7762
   97OSM   C12F 9494   6.159   0.099   3.881 -0.0524 -0.3689  0.4685
   97OSM   H12F 9495   6.083   0.039   3.936  1.0855 -0.4164  2.0534
   97OSM   H12G 9496   6.179   0.200   3.923  0.1358  0.1581 -0.8476
   97OSM   C13F 9497   6.283   0.013   3.874  0.0360  0.2970 -0.4915
   97OSM   H13F 9498   6.360   0.067   3.814 -0.6478 -0.0793 -1.7481
   97OSM   H13G 9499   6.267  -0.091   3.839  0.9338  0.3441 -1.0781
   97OSM   C14F 9500   6.363   0.002   4.004 -0.0353  0.3626 -0.1599
   97OSM   H14F 9501   6.380   0.096   4.059  1.0885 -1.0727  2.1088
   97OSM   H14G 9502   6.461  -0.044   3.982  0.8745  1.2701  1.8253
   97OSM   C15F 9503   6.300  -0.097   4.103  0.1499 -0.4399 -0.0565
   97OSM   H15F 9504   6.276  -0.189   4.044 -0.7420  0.9267 -1.9297
   97OSM   H15G 9505   6.199  -0.070   4.140 -0.2023 -2.7411  0.8365
   97OSM   C16F 9506   6.397  -0.130   4.217 -0.2192 -0.5311  0.1389
   97OSM   H16F 9507   6.375  -0.045   4.285  1.0436 -0.7592  0.8520
   97OSM   H16G 9508   6.504  -0.119   4.190  0.3298 -2.2657  1.4330
   97OSM   C17F 9509   6.373  -0.270   4.269  0.1254 -0.0305 -0.4227
   97OSM   H17F 9510   6.390  -0.345   4.189  1.3317 -0.5575  0.2939
   97OSM   H17G 9511   6.272  -0.288   4.311  0.0282 -0.3107 -0.7776
   97OSM   C18F 9512   6.464  -0.300   4.385 -0.4177 -0.8055 -0.3547
   97OSM   H18F 9513   6.437  -0.399   4.427 -2.3084 -0.3643 -0.4268
   97OSM   H18G 9514   6.454  -0.231   4.471 -1.3739 -1.3955  0.0311
   97OSM   H18H 9515   6.569  -0.303   4.347 -0.8623 -2.3598 -1.5844
   98OSM      N 9516   0.408   2.494   2.141  0.1427  0.3231  0.1904
   98OSM    C15 9517   0.448   2.387   2.044  0.5737 -0.3004 -0.3108
   98OSM   H15A 9518   0.415   2.286   2.062 -0.4165 -0.3446 -2.1460
   98OSM   H15B 9519   0.556   2.389   2.046  0.7223 -3.5919 -0.4484
   98OSM   H15C 9520   0.433   2.421   1.942 -0.6336  0.8599  0.2091
   98OSM    C14 9521   0.254   2.515   2.142  0.2481  0.5530  0.7925
   98OSM   H14A 9522   0.238   2.598   2.076  0.9446 -0.1243 -0.2621
   98OSM   H14B 9523   0.215   2.528   2.241  0.3997 -1.1878  1.1206
   98OSM   H14C 9524   0.195   2.440   2.090 -2.0336  2.2902  0.7304
   98OSM    C13 9525   0.449   2.460   2.278 -0.3627 -0.3861  0.3710
   98OSM   H13A 9526   0.548   2.502   2.294 -0.3251 -0.1806 -0.3993
   98OSM   H13B 9527   0.460   2.353   2.293  1.5990 -0.0866  1.5528
   98OSM   H13C 9528   0.374   2.498   2.346 -0.8625  1.1529 -0.9899
   98OSM    C12 9529   0.469   2.623   2.103  0.0223 -0.4061  0.3586
   98OSM   H12A 9530   0.576   2.616   2.115  0.1201  0.4967  0.0844
   98OSM   H12B 9531   0.442   2.705   2.167  0.2196  0.0701 -0.1613
   98OSM    C11 9532   0.433   2.686   1.965  0.0070  0.3755 -0.1865
   98OSM   H11A 9533   0.415   2.607   1.889  1.5546 -0.7737  0.5604
   98OSM   H11B 9534   0.513   2.755   1.929 -0.0600  0.6091  0.1114
   98OSM      P 9535   0.310   2.904   2.049  0.2469  0.1210 -0.0864
   98OSM    O13 9536   0.407   2.990   1.977  0.1676 -0.1900 -0.3636
   98OSM    O14 9537   0.168   2.945   2.049 -0.0233  0.3398  0.6182
   98OSM    O11 9538   0.363   2.879   2.193  0.8224 -0.3173 -0.1210
   98OSM    O12 9539   0.318   2.761   1.985  0.6289  0.0505 -0.3137
   98OSM    C1S 9540   0.270   2.868   2.304  0.0567 -0.1753 -0.8058
   98OSM    H1S 9541   0.185   2.797   2.296 -1.6322  1.4101  1.6737
   98OSM    H1T 9542   0.241   2.973   2.326  3.5780  0.8799 -0.6272
   98OSM     NF 9543   0.251   2.786   2.533  0.2065  0.1872 -0.1018
   98OSM    HNF 9544   0.224   2.845   2.608  0.0277 -1.7921  1.4912
   98OSM    C2S 9545   0.346   2.837   2.434 -0.1890 -0.5529 -0.0089
   98OSM    H2S 9546   0.412   2.752   2.407 -1.4181 -1.9521  1.1671
   98OSM    C3S 9547   0.442   2.948   2.488 -0.2965 -0.3018 -0.0899
   98OSM    H3S 9548   0.382   3.029   2.534 -0.9555 -0.6430 -0.3376
   98OSM     O3 9549   0.524   3.012   2.383 -0.0837 -0.4149  0.0130
   98OSM    HO3 9550   0.490   2.979   2.299  1.8652 -0.2241 -0.9076
   98OSM    C4S 9551   0.539   2.897   2.590 -0.0783 -0.2693  0.0408
   98OSM    H4S 9552   0.615   2.823   2.561  0.0423  0.4865 -1.6875
   98OSM    C5S 9553   0.544   2.951   2.711  0.2991  0.5558  0.7162
   98OSM    H5S 9554   0.477   3.036   2.730 -0.8331  0.7602 -3.3652
   98OSM    C6S 9555   0.639   2.908   2.823  0.0102  0.0007  0.3119
   98OSM    H6S 9556   0.702   2.823   2.789 -0.2329  0.7956 -2.3401
   98OSM    H6T 9557   0.578   2.875   2.910 -0.2179  0.5533  0.3694
   98OSM    C7S 9558   0.737   3.017   2.867  0.3445 -0.2085 -0.1546
   98OSM    H7S 9559   0.676   3.107   2.889 -0.5826 -0.3488 -1.9683
   98OSM    H7T 9560   0.800   3.032   2.776  0.8335 -0.6240  0.1071
   98OSM    C8S 9561   0.817   2.973   2.989  0.1848  0.2060 -0.1474
   98OSM    H8S 9562   0.885   2.891   2.959  0.2372  0.1966 -0.0048
   98OSM    H8T 9563   0.745   2.925   3.059 -0.7270 -1.2930 -2.0121
   98OSM    C9S 9564   0.896   3.086   3.064  0.4884 -0.0295 -0.0343
   98OSM    H9S 9565   0.833   3.176   3.073  2.1669  1.2010 -0.0829
   98OSM    H9T 9566   0.985   3.111   3.002  1.4022 -2.2147  0.2939
   98OSM   C10S 9567   0.951   3.055   3.203  0.2162 -0.0163  0.4106
   98OSM   H10S 9568   1.040   3.116   3.230  0.3892  0.1323 -0.4434
   98OSM   H10T 9569   0.972   2.947   3.218 -0.8754 -0.0947  1.5528
   98OSM   C11S 9570   0.849   3.072   3.313 -0.3446  0.1472  0.0331
   98OSM   H11S 9571   0.774   2.992   3.293 -0.4386  0.0705  0.6926
   98OSM   H11T 9572   0.804   3.172   3.298  0.9071  0.7677  0.3029
   98OSM   C12S 9573   0.912   3.059   3.450 -0.2318  0.1098 -0.6296
   98OSM   H12S 9574   0.980   3.144   3.471 -3.1149  2.6747 -0.9528
   98OSM   H12T 9575   0.963   2.961   3.462 -0.4260  0.0041 -0.6589
   98OSM   C13S 9576   0.792   3.050   3.543  0.8108  0.1609 -0.2734
   98OSM   H13S 9577   0.730   2.960   3.523 -1.0366  1.4619 -0.7802
   98OSM   H13T 9578   0.719   3.133   3.529  0.0185 -0.5394 -0.4224
   98OSM   C14S 9579   0.838   3.049   3.689 -0.4493 -0.4249 -1.0140
   98OSM   H14S 9580   0.883   3.147   3.714 -0.1075 -0.5034 -1.3166
   98OSM   H14T 9581   0.918   2.974   3.707  0.2172  0.7826  1.5138
   98OSM   C15S 9582   0.716   3.040   3.774  0.4252  0.3872 -0.8687
   98OSM   H15S 9583   0.708   2.940   3.822  0.2114  0.8116 -0.0024
   98OSM   H15T 9584   0.629   3.057   3.707  0.5400 -0.2103 -1.1820
   98OSM   C16S 9585   0.714   3.139   3.888  0.0224  0.9854  0.4312
   98OSM   H16S 9586   0.690   3.239   3.847 -3.9452 -0.4947 -1.3807
   98OSM   H16T 9587   0.817   3.141   3.930  0.0896  1.4350  0.2490
   98OSM   C17S 9588   0.621   3.112   4.005  0.4778 -0.8090  0.0383
   98OSM   H17S 9589   0.638   3.008   4.040 -0.4339 -1.6396 -1.8155
   98OSM   H17T 9590   0.513   3.122   3.980  0.7884  2.6828 -0.4841
   98OSM   C18S 9591   0.650   3.216   4.111 -0.2762  0.2190  0.3736
   98OSM   H18S 9592   0.759   3.215   4.132 -0.1195 -0.7144 -0.3882
   98OSM   H18T 9593   0.632   3.321   4.081 -1.3579 -0.2348 -0.6757
   98OSM   H18U 9594   0.585   3.216   4.201  0.8177  0.0874  1.1808
   98OSM    C1F 9595   0.180   2.673   2.529  0.4310  0.1242 -0.5217
   98OSM     OF 9596   0.184   2.606   2.424 -0.2528  0.3376 -0.5906
   98OSM    C2F 9597   0.103   2.625   2.645  0.8433 -0.3111 -0.1830
   98OSM    H2F 9598  -0.002   2.653   2.625  0.4686 -0.7406  1.1043
   98OSM    H2G 9599   0.136   2.677   2.738  0.7456  0.9441 -0.8274
   98OSM    C3F 9600   0.130   2.469   2.648  0.2532 -0.0606  0.4722
   98OSM    H3F 9601   0.238   2.446   2.637  0.0835 -0.7106  0.0816
   98OSM    H3G 9602   0.081   2.419   2.562 -0.3704  2.4044 -0.7005
   98OSM    C4F 9603   0.073   2.406   2.780 -0.2338  0.4829  0.4707
   98OSM    H4F 9604  -0.037   2.415   2.783 -0.1463  1.9167 -0.0602
   98OSM    H4G 9605   0.114   2.466   2.865  0.6295 -1.0845  1.2059
   98OSM    C5F 9606   0.105   2.256   2.799 -0.8835 -0.4605 -0.2013
   98OSM    H5F 9607   0.182   2.243   2.721  1.2960  1.7668  1.4047
   98OSM    H5G 9608   0.012   2.200   2.777 -0.9659 -0.4227  0.0442
   98OSM    C6F 9609   0.157   2.225   2.940  0.0972  0.2198 -0.9230
   98OSM    H6F 9610   0.245   2.292   2.949  0.9915 -0.9214 -1.0033
   98OSM    H6G 9611   0.190   2.119   2.947 -0.3963  0.1710  2.8128
   98OSM    C7F 9612   0.067   2.267   3.056 -0.2687  0.0469 -0.2495
   98OSM    H7F 9613  -0.028   2.219   3.024 -1.6022  0.9536  2.0859
   98OSM    H7G 9614   0.043   2.376   3.057  0.5268  0.2476 -1.1096
   98OSM    C8F 9615   0.116   2.206   3.185  0.1238  0.1875 -0.1885
   98OSM    H8F 9616   0.215   2.250   3.210 -0.7551  2.1055  0.0265
   98OSM    H8G 9617   0.133   2.097   3.175  1.0716  0.3732 -0.7148
   98OSM    C9F 9618   0.021   2.237   3.301  0.1296 -0.4233  0.3332
   98OSM    H9F 9619  -0.066   2.171   3.316  1.5489 -1.9052  2.5282
   98OSM   C10F 9620   0.036   2.341   3.391 -0.1709 -0.2549  0.2937
   98OSM   H10F 9621  -0.051   2.364   3.454 -0.0684  0.4709  0.1807
   98OSM   C11F 9622   0.153   2.442   3.404 -0.5072 -0.4489  0.1736
   98OSM   H11F 9623   0.125   2.549   3.414 -1.3068 -0.8939  4.8625
   98OSM   H11G 9624   0.217   2.440   3.313 -0.5080  2.6042 -0.0135
   98OSM   C12F 9625   0.234   2.388   3.524  1.1135  0.0325  0.0936
   98OSM   H12F 9626   0.341   2.418   3.522  1.3022 -0.6423 -0.7591
   98OSM   H12G 9627   0.244   2.277   3.516  0.1661 -0.0383 -0.2717
   98OSM   C13F 9628   0.179   2.426   3.661 -0.1088  0.1543  1.0382
   98OSM   H13F 9629   0.076   2.390   3.679 -0.4275  0.6212  0.2129
   98OSM   H13G 9630   0.185   2.536   3.675 -1.0463  0.0255  2.5754
   98OSM   C14F 9631   0.282   2.383   3.768 -0.1020 -0.0923  0.2189
   98OSM   H14F 9632   0.383   2.421   3.745  0.1900 -0.4624  0.8527
   98OSM   H14G 9633   0.281   2.273   3.787  0.1981 -0.0523  0.4629
   98OSM   C15F 9634   0.236   2.433   3.910  0.3017 -0.2145  0.0999
   98OSM   H15F 9635   0.134   2.401   3.943 -0.3976  0.0427 -1.7216
   98OSM   H15G 9636   0.226   2.543   3.903 -2.2368 -0.2560  1.6108
   98OSM   C16F 9637   0.337   2.406   4.023  0.0126 -0.1583 -0.1850
   98OSM   H16F 9638   0.442   2.431   3.996  0.3694 -1.8141 -0.4670
   98OSM   H16G 9639   0.336   2.295   4.023 -1.2180 -0.1608  0.8310
   98OSM   C17F 9640   0.309   2.483   4.157  0.3428  0.5836 -0.7008
   98OSM   H17F 9641   0.277   2.587   4.134  2.5264  1.2224 -1.0223
   98OSM   H17G 9642   0.399   2.486   4.222  0.8634  1.2997 -1.4369
   98OSM   C18F 9643   0.194   2.415   4.236 -0.1535  0.1229  0.1953
   98OSM   H18F 9644   0.099   2.417   4.179 -1.3472 -0.6987  2.0419
   98OSM   H18G 9645   0.174   2.484   4.321  0.3294  1.0868 -0.4507
   98OSM   H18H 9646   0.226   2.315   4.271 -0.5100  0.3087  1.0784
   99OSM      N 9647   5.004   2.998   1.547  0.3907 -0.7593 -0.1500
   99OSM    C15 9648   5.058   2.856   1.532 -0.2898  0.2924  0.4627
   99OSM   H15A 9649   4.987   2.801   1.471  0.5579 -0.8873  0.5177
   99OSM   H15B 9650   5.058   2.784   1.612 -3.2540 -2.6844 -1.8844
   99OSM   H15C 9651   5.155   2.868   1.486 -1.0307  2.8804 -0.5970
   99OSM    C14 9652   5.007   3.062   1.419  0.1694  0.0697  0.3622
   99OSM   H14A 9653   5.108   3.066   1.379 -0.0613 -1.7424 -0.5142
   99OSM   H14B 9654   4.977   3.165   1.422  1.1841  0.3982 -0.1707
   99OSM   H14C 9655   4.945   3.003   1.354 -0.9421  1.1976  0.3606
   99OSM    C13 9656   4.860   2.985   1.603 -0.6146  0.0828  0.8391
   99OSM   H13A 9657   4.866   2.922   1.691 -0.7503 -0.7392  0.2760
   99OSM   H13B 9658   4.791   2.934   1.538 -0.1106  0.4840 -0.0237
   99OSM   H13C 9659   4.829   3.086   1.623  2.2066  1.1909  0.0232
   99OSM    C12 9660   5.089   3.080   1.644  0.1609 -0.0197 -0.1465
   99OSM   H12A 9661   5.196   3.065   1.643  0.9276  4.0536  1.1006
   99OSM   H12B 9662   5.062   3.058   1.746  1.1722  0.8313  0.3201
   99OSM    C11 9663   5.075   3.234   1.631 -0.0971 -0.5982  0.1525
   99OSM   H11A 9664   5.130   3.258   1.538 -1.1129 -1.5329 -0.7122
   99OSM   H11B 9665   5.142   3.280   1.707  1.3538  1.5313 -2.2961
   99OSM      P 9666   4.895   3.340   1.770  0.1689 -0.1005  0.0884
   99OSM    O13 9667   4.991   3.443   1.807  0.0680  0.1302 -0.4735
   99OSM    O14 9668   4.750   3.378   1.751  0.2565  0.0849 -0.6836
   99OSM    O11 9669   4.908   3.215   1.867  0.1300 -0.1105  0.2094
   99OSM    O12 9670   4.942   3.282   1.637 -0.1823  0.2673  0.0650
   99OSM    C1S 9671   4.948   3.233   2.010  0.5426  0.1905 -0.2168
   99OSM    H1S 9672   4.926   3.335   2.047 -0.4126 -0.1303  0.1261
   99OSM    H1T 9673   5.056   3.207   2.015  0.5080  0.0595 -0.1397
   99OSM     NF 9674   4.925   3.149   2.238  0.5744 -0.1080 -0.1602
   99OSM    HNF 9675   5.000   3.090   2.267  2.1389  0.3902 -2.8844
   99OSM    C2S 9676   4.876   3.138   2.103 -0.1566  0.8905 -0.4045
   99OSM    H2S 9677   4.770   3.173   2.106 -0.4777 -0.1023  0.8347
   99OSM    C3S 9678   4.875   2.988   2.048 -0.2734 -0.2431  0.2298
   99OSM    H3S 9679   4.972   2.940   2.024 -0.3938 -0.9146  1.0113
   99OSM     O3 9680   4.811   2.986   1.922 -0.3252  0.6806 -0.5293
   99OSM    HO3 9681   4.820   3.078   1.897  0.6733  0.3996 -1.2460
   99OSM    C4S 9682   4.794   2.901   2.141  0.3460  0.3337 -0.2283
   99OSM    H4S 9683   4.850   2.854   2.223 -1.0114 -0.3883  0.2994
   99OSM    C5S 9684   4.663   2.892   2.155  0.0053 -0.0903 -0.4281
   99OSM    H5S 9685   4.588   2.949   2.099  0.1752  0.2030 -0.3608
   99OSM    C6S 9686   4.604   2.807   2.266 -0.1923  0.2143  0.1278
   99OSM    H6S 9687   4.659   2.715   2.297 -1.1979  0.3282  2.4198
   99OSM    H6T 9688   4.509   2.763   2.229 -0.9213  0.4813  1.6495
   99OSM    C7S 9689   4.569   2.899   2.378  0.1580 -0.3329  0.6984
   99OSM    H7S 9690   4.512   2.985   2.338  1.3032  1.9427  3.6365
   99OSM    H7T 9691   4.657   2.951   2.422  0.1278  0.3948 -0.0767
   99OSM    C8S 9692   4.488   2.843   2.493  0.8920  0.2399 -0.7995
   99OSM    H8S 9693   4.527   2.740   2.511 -1.1313 -1.1919 -3.7793
   99OSM    H8T 9694   4.379   2.836   2.471  0.4055 -2.3707  1.7650
   99OSM    C9S 9695   4.494   2.929   2.620  0.0225 -0.4118  1.0673
   99OSM    H9S 9696   4.434   3.019   2.594  1.8975  0.2478 -1.3884
   99OSM    H9T 9697   4.597   2.971   2.628  0.1669 -0.0812 -1.4542
   99OSM   C10S 9698   4.442   2.865   2.747 -0.4732  0.3614 -0.3233
   99OSM   H10S 9699   4.514   2.794   2.793 -0.3613 -0.1918 -1.3306
   99OSM   H10T 9700   4.341   2.822   2.732  0.6178 -2.7160  0.3665
   99OSM   C11S 9701   4.436   2.971   2.863 -0.1790 -0.2173  0.4842
   99OSM   H11S 9702   4.344   3.034   2.855 -0.7688 -0.8106  2.2021
   99OSM   H11T 9703   4.527   3.031   2.843  0.7512 -1.8240 -0.3368
   99OSM   C12S 9704   4.431   2.898   2.991 -0.0192 -0.0867 -0.0665
   99OSM   H12S 9705   4.515   2.826   3.002  0.7440  0.8695  0.5350
   99OSM   H12T 9706   4.334   2.846   3.007 -0.1495  0.0142 -0.5180
   99OSM   C13S 9707   4.446   2.990   3.111  0.5261 -0.8202  0.6378
   99OSM   H13S 9708   4.397   3.087   3.087  1.6195 -0.2029  0.8202
   99OSM   H13T 9709   4.552   3.017   3.128  0.5026 -1.1935  1.4246
   99OSM   C14S 9710   4.377   2.938   3.238  0.0180 -0.2196 -0.0524
   99OSM   H14S 9711   4.417   2.837   3.264  0.5110  0.0149  0.1172
   99OSM   H14T 9712   4.271   2.915   3.215  0.0079 -0.4667  0.2371
   99OSM   C15S 9713   4.376   3.052   3.336 -0.8897  0.0943  0.4326
   99OSM   H15S 9714   4.309   3.131   3.297  0.3194  1.0588  0.2417
   99OSM   H15T 9715   4.473   3.103   3.355  0.2928 -1.0047 -2.1016
   99OSM   C16S 9716   4.329   2.995   3.468 -0.6619  0.6695 -0.2280
   99OSM   H16S 9717   4.393   2.912   3.505  0.2195  1.0096 -0.9371
   99OSM   H16T 9718   4.238   2.931   3.462  0.7407 -1.4002 -0.4321
   99OSM   C17S 9719   4.298   3.104   3.575  0.8471 -0.2311  1.0921
   99OSM   H17S 9720   4.206   3.160   3.548  1.1673 -0.1959  0.0328
   99OSM   H17T 9721   4.381   3.177   3.573 -0.0201  0.7833  0.9686
   99OSM   C18S 9722   4.270   3.044   3.712 -0.1072 -0.6707  0.2377
   99OSM   H18S 9723   4.246   3.120   3.790 -0.9607 -0.1685 -0.4987
   99OSM   H18T 9724   4.360   2.994   3.754  0.3095  2.1336  3.1181
   99OSM   H18U 9725   4.187   2.970   3.713  0.2983 -1.1466 -0.3293
   99OSM    C1F 9726   4.883   3.248   2.314  0.2731  0.5819  0.0082
   99OSM     OF 9727   4.798   3.330   2.279  0.1311  0.2747 -0.2740
   99OSM    C2F 9728   4.934   3.255   2.461 -1.1286  0.5354 -0.3940
   99OSM    H2F 9729   4.911   3.355   2.504 -0.4978 -0.0287  1.3535
   99OSM    H2G 9730   5.043   3.271   2.449 -1.2120  1.0268 -0.5001
   99OSM    C3F 9731   4.899   3.152   2.570  0.4687  0.4887  0.2040
   99OSM    H3F 9732   4.917   3.049   2.533 -1.2730  0.1797  0.1637
   99OSM    H3G 9733   4.792   3.165   2.596  0.3413  1.8126 -0.8258
   99OSM    C4F 9734   4.988   3.172   2.700  0.3575  0.0656  0.0894
   99OSM    H4F 9735   5.002   3.278   2.730  1.7954  0.2065 -0.9477
   99OSM    H4G 9736   5.092   3.149   2.668  0.7958  0.9695  0.8052
   99OSM    C5F 9737   4.937   3.069   2.800  0.1608  0.0057 -0.3741
   99OSM    H5F 9738   4.919   2.971   2.751  0.7613  0.3897 -1.3984
   99OSM    H5G 9739   4.829   3.094   2.813 -0.1078 -0.0821 -2.1978
   99OSM    C6F 9740   5.021   3.054   2.928 -0.2102 -0.5732 -0.3491
   99OSM    H6F 9741   5.129   3.052   2.901 -0.4687  1.5120 -1.8430
   99OSM    H6G 9742   4.981   2.968   2.985 -3.5746  1.0492 -0.0050
   99OSM    C7F 9743   5.005   3.178   3.029  0.5951  0.5135  0.1110
   99OSM    H7F 9744   5.072   3.261   2.998  2.2096  1.4943  5.2813
   99OSM    H7G 9745   5.051   3.152   3.126  0.6543 -2.6423 -0.6486
   99OSM    C8F 9746   4.869   3.231   3.070  0.7002 -0.0055 -0.1011
   99OSM    H8F 9747   4.824   3.139   3.115 -1.2736  1.2836  0.7006
   99OSM    H8G 9748   4.803   3.264   2.987  0.9875 -0.0748 -0.3587
   99OSM    C9F 9749   4.877   3.346   3.170 -0.4441 -0.2437  0.0190
   99OSM    H9F 9750   4.930   3.435   3.132 -1.0889  0.0463 -0.2000
   99OSM   C10F 9751   4.819   3.344   3.290 -0.5314 -0.5033 -0.6030
   99OSM   H10F 9752   4.831   3.434   3.352  1.5983 -1.4819  0.5254
   99OSM   C11F 9753   4.749   3.228   3.358  0.3313  0.5302  0.3025
   99OSM   H11F 9754   4.828   3.160   3.395  1.6724  1.4255 -0.8047
   99OSM   H11G 9755   4.681   3.183   3.283 -0.8349  0.2370  1.5053
   99OSM   C12F 9756   4.667   3.251   3.480  0.0621  0.3434 -0.3940
   99OSM   H12F 9757   4.623   3.150   3.495  1.3920 -0.0755  0.8590
   99OSM   H12G 9758   4.591   3.332   3.477  0.3962  0.6363 -2.1864
   99OSM   C13F 9759   4.749   3.277   3.608  0.2376 -0.4402  0.2578
   99OSM   H13F 9760   4.782   3.383   3.606  0.9709 -0.6739 -0.5716
   99OSM   H13G 9761   4.836   3.209   3.615  3.0593  3.0099  2.7440
   99OSM   C14F 9762   4.668   3.258   3.744  0.7325 -0.4603  0.6113
   99OSM   H14F 9763   4.735   3.288   3.828 -0.9428 -0.2699  1.9315
   99OSM   H14G 9764   4.624   3.157   3.758 -0.0792  0.0504  1.8344
   99OSM   C15F 9765   4.543   3.344   3.751  0.2772  0.0058 -0.1995
   99OSM   H15F 9766   4.453   3.308   3.696 -0.5139  0.7810  0.5479
   99OSM   H15G 9767   4.564   3.446   3.714  1.3401  0.4504  1.5329
   99OSM   C16F 9768   4.506   3.365   3.899 -0.2209 -0.2429 -0.2791
   99OSM   H16F 9769   4.595   3.401   3.954  0.2144 -0.1534 -1.0219
   99OSM   H16G 9770   4.493   3.262   3.939  0.9898  0.0807  1.0031
   99OSM   C17F 9771   4.376   3.443   3.937  0.5428  0.1592  0.5961
   99OSM   H17F 9772   4.361   3.522   3.861 -0.1196 -0.0169  0.5374
   99OSM   H17G 9773   4.410   3.497   4.028  2.1778  1.3377 -0.6568
   99OSM   C18F 9774   4.244   3.366   3.934 -0.0974  0.3575  0.1703
   99OSM   H18F 9775   4.194   3.361   3.835 -1.7050  0.3645  0.9480
   99OSM   H18G 9776   4.179   3.407   4.014  0.6878 -0.2871  1.1853
   99OSM   H18H 9777   4.275   3.266   3.972 -0.8612  0.4665  1.1022
  100OSM      N 9778   6.613   4.025   1.753 -0.3917 -0.0827  0.2308
  100OSM    C15 9779   6.486   4.101   1.738  0.0010 -0.2131 -0.0295
  100OSM   H15A 9780   6.504   4.208   1.741 -0.5419 -0.0615 -1.3286
  100OSM   H15B 9781   6.417   4.068   1.815  1.4972 -1.1279  0.9672
  100OSM   H15C 9782   6.451   4.086   1.637  0.1461 -0.5073 -0.0354
  100OSM    C14 9783   6.575   3.884   1.720 -0.7150  0.0139  0.1402
  100OSM   H14A 9784   6.521   3.835   1.799  1.7750 -0.0900  1.9070
  100OSM   H14B 9785   6.664   3.822   1.712 -0.5212  0.1951  0.8377
  100OSM   H14C 9786   6.519   3.877   1.628 -0.5264 -0.9455  0.0857
  100OSM    C13 9787   6.721   4.074   1.667  0.1186  0.0167 -0.0585
  100OSM   H13A 9788   6.683   4.082   1.566  1.5883  3.6082 -0.4669
  100OSM   H13B 9789   6.812   4.017   1.682 -1.3069 -2.2624  0.4809
  100OSM   H13C 9790   6.745   4.176   1.694  0.0164  0.2782 -0.9159
  100OSM    C12 9791   6.652   4.023   1.900 -0.1755 -0.6975  0.6139
  100OSM   H12A 9792   6.737   3.958   1.913  0.1279 -0.4244  0.0519
  100OSM   H12B 9793   6.577   3.967   1.954 -1.0365 -0.0193  0.1401
  100OSM    C11 9794   6.690   4.161   1.976 -0.2417  0.4672 -0.2609
  100OSM   H11A 9795   6.690   4.147   2.086 -0.4189  0.7985 -0.2160
  100OSM   H11B 9796   6.605   4.232   1.961 -0.4249  0.2291 -0.3662
  100OSM      P 9797   6.955   4.170   1.980 -0.2160 -0.2717 -0.2350
  100OSM    O13 9798   7.032   4.145   1.852  0.4006 -0.1071  0.3794
  100OSM    O14 9799   7.007   4.256   2.088 -0.3940  0.2007 -0.1797
  100OSM    O11 9800   6.929   4.026   2.046 -0.5783  0.1695 -0.5050
  100OSM    O12 9801   6.811   4.213   1.937 -0.4413 -0.1927 -0.6209
  100OSM    C1S 9802   7.046   3.951   2.088  0.3627  0.4818 -0.4974
  100OSM    H1S 9803   7.132   3.974   2.022 -0.1076  2.0256 -0.5980
  100OSM    H1T 9804   7.016   3.844   2.090 -2.8981  1.2138  2.9788
  100OSM     NF 9805   7.219   3.912   2.263 -0.3763  0.0039  0.2596
  100OSM    HNF 9806   7.203   3.821   2.299 -0.1710  0.0695  0.5205
  100OSM    C2S 9807   7.097   3.983   2.234 -0.3841  0.2479 -0.5440
  100OSM    H2S 9808   7.110   4.093   2.243 -0.7008  0.3472 -1.1801
  100OSM    C3S 9809   6.977   3.948   2.323 -0.3509  0.1096  0.4599
  100OSM    H3S 9810   6.945   3.841   2.320 -2.8246  0.8280 -1.3173
  100OSM     O3 9811   6.859   4.025   2.303 -0.3930  0.2227  0.4537
  100OSM    HO3 9812   6.862   4.047   2.210  2.6798  1.0193  0.6257
  100OSM    C4S 9813   7.017   3.955   2.467  0.4105 -0.4319  0.6359
  100OSM    H4S 9814   7.024   3.857   2.518  0.7350 -0.9962 -0.4672
  100OSM    C5S 9815   7.062   4.070   2.523  0.3919 -0.1803 -0.9979
  100OSM    H5S 9816   7.070   4.162   2.464 -0.0017  1.0950  0.8754
  100OSM    C6S 9817   7.121   4.089   2.662  0.5657 -0.6301 -0.1134
  100OSM    H6S 9818   7.075   4.173   2.719  1.5160  0.2218 -0.5841
  100OSM    H6T 9819   7.231   4.106   2.661  0.2295  1.7603 -0.9231
  100OSM    C7S 9820   7.106   3.954   2.744 -0.5153  0.0464 -0.1216
  100OSM    H7S 9821   7.170   3.880   2.692 -0.8205 -0.2017 -0.1471
  100OSM    H7T 9822   6.998   3.929   2.747 -1.3821  3.3787  1.8680
  100OSM    C8S 9823   7.151   3.948   2.889 -0.4118 -0.0182 -0.0721
  100OSM    H8S 9824   7.262   3.948   2.886 -0.4118 -0.6384 -2.1669
  100OSM    H8T 9825   7.126   3.843   2.917  0.2700 -0.1827 -0.0624
  100OSM    C9S 9826   7.081   4.051   2.973  0.0718  0.0711 -0.0229
  100OSM    H9S 9827   6.972   4.044   2.954  0.2241 -1.4858 -0.4621
  100OSM    H9T 9828   7.116   4.155   2.955  2.6784 -0.3547  2.0555
  100OSM   C10S 9829   7.098   4.013   3.125  0.6166 -0.1591  0.1988
  100OSM   H10S 9830   7.050   4.100   3.173  0.1826 -0.0897 -0.3483
  100OSM   H10T 9831   7.205   4.009   3.155  0.5705  0.4942  0.4626
  100OSM   C11S 9832   7.021   3.887   3.166 -1.1457 -0.0921  0.0874
  100OSM   H11S 9833   7.079   3.803   3.121 -0.1250  0.1073  0.9884
  100OSM   H11T 9834   6.920   3.889   3.122 -2.0709 -2.2096  1.8837
  100OSM   C12S 9835   7.038   3.870   3.319  0.4932  0.0467  0.1336
  100OSM   H12S 9836   7.144   3.890   3.346  0.4249  0.2704  0.2450
  100OSM   H12T 9837   7.008   3.768   3.351  0.9273  1.1670  4.8242
  100OSM   C13S 9838   6.942   3.959   3.397 -0.2651 -0.8661  0.2026
  100OSM   H13S 9839   6.838   3.933   3.368 -0.3629  0.8416 -1.1351
  100OSM   H13T 9840   6.961   4.066   3.373 -0.6744 -0.2487  2.3427
  100OSM   C14S 9841   6.966   3.936   3.546 -0.0873 -0.1021  0.3007
  100OSM   H14S 9842   7.057   3.992   3.575 -2.1091  1.9699  3.1811
  100OSM   H14T 9843   6.977   3.825   3.557 -0.3943 -0.0601  1.1392
  100OSM   C15S 9844   6.848   3.981   3.639 -0.2748 -0.9080 -0.2838
  100OSM   H15S 9845   6.759   3.919   3.616 -0.8002  0.3229 -1.7200
  100OSM   H15T 9846   6.820   4.088   3.625 -0.7542 -1.1990 -1.6943
  100OSM   C16S 9847   6.887   3.939   3.777  0.0001 -0.6019 -0.6159
  100OSM   H16S 9848   6.943   4.019   3.829 -0.9401 -1.4200  1.8429
  100OSM   H16T 9849   6.951   3.848   3.775  1.2809  0.2726 -0.5256
  100OSM   C17S 9850   6.763   3.917   3.866 -0.1364 -0.6223 -0.2631
  100OSM   H17S 9851   6.707   3.835   3.816  1.3721  0.3632 -3.9822
  100OSM   H17T 9852   6.696   4.006   3.864  0.7163  0.0513  0.1084
  100OSM   C18S 9853   6.799   3.900   4.014 -0.3686  0.0880  0.2589
  100OSM   H18S 9854   6.887   3.961   4.044 -0.8073  0.3480  1.0621
  100OSM   H18T 9855   6.819   3.792   4.024  0.2101  0.0495 -1.0634
  100OSM   H18U 9856   6.706   3.932   4.066  0.4702  0.6433  1.4335
  100OSM    C1F 9857   7.341   3.956   2.221 -0.1385 -0.3483 -0.2477
  100OSM     OF 9858   7.359   4.041   2.135 -0.0096 -0.2110  0.6048
  100OSM    C2F 9859   7.464   3.894   2.283 -0.0581  0.0668  0.3617
  100OSM    H2F 9860   7.550   3.937   2.227 -1.0055 -1.8647 -2.8580
  100OSM    H2G 9861   7.465   3.785   2.263  0.3593  0.1129  0.1162
  100OSM    C3F 9862   7.471   3.913   2.440 -0.1763 -0.5145  0.1384
  100OSM    H3F 9863   7.374   3.883   2.485 -1.1275  2.3961  0.2471
  100OSM    H3G 9864   7.482   4.021   2.462  2.2953 -0.0411 -2.6887
  100OSM    C4F 9865   7.593   3.834   2.499  0.0902  0.7494  0.1644
  100OSM    H4F 9866   7.676   3.831   2.425  1.6133 -1.2027  1.8132
  100OSM    H4G 9867   7.559   3.730   2.520 -1.6214  1.1468 -0.4817
  100OSM    C5F 9868   7.628   3.893   2.635 -0.3405 -0.2103 -0.7313
  100OSM    H5F 9869   7.665   3.812   2.701 -4.5606 -1.1099  0.8624
  100OSM    H5G 9870   7.528   3.924   2.673  0.1512 -3.1955  3.7954
  100OSM    C6F 9871   7.737   4.002   2.633 -0.2568 -0.2042 -0.0391
  100OSM    H6F 9872   7.709   4.074   2.552  2.0684  0.3951 -0.3602
  100OSM    H6G 9873   7.833   3.961   2.597  0.4482  1.1839  0.1927
  100OSM    C7F 9874   7.734   4.083   2.762 -0.4489  0.5674  1.1524
  100OSM    H7F 9875   7.638   4.051   2.808 -0.7064 -2.1221 -1.0132
  100OSM    H7G 9876   7.749   4.189   2.733  0.4402  0.0494 -0.3454
  100OSM    C8F 9877   7.856   4.027   2.843  0.5802  0.0728 -0.0125
  100OSM    H8F 9878   7.943   4.043   2.776 -0.2752  0.8080 -0.9845
  100OSM    H8G 9879   7.839   3.919   2.866  1.1216  0.5203  2.8498
  100OSM    C9F 9880   7.864   4.110   2.968  0.1118  0.0332 -0.2744
  100OSM    H9F 9881   7.924   4.203   2.965 -2.1965  1.6698  1.3761
  100OSM   C10F 9882   7.815   4.078   3.087 -0.1624 -0.0342 -0.1241
  100OSM   H10F 9883   7.831   4.146   3.172 -1.7233  0.9782 -0.5786
  100OSM   C11F 9884   7.743   3.954   3.128 -0.3658  0.6240 -0.2894
  100OSM   H11F 9885   7.696   3.907   3.040  2.9838 -2.6004 -0.6179
  100OSM   H11G 9886   7.664   3.977   3.203  0.3624 -1.5457  1.2413
  100OSM   C12F 9887   7.826   3.856   3.206 -0.2065 -0.1944  0.4410
  100OSM   H12F 9888   7.885   3.793   3.136 -0.3207  0.0887  0.0874
  100OSM   H12G 9889   7.749   3.784   3.242 -2.0889  0.7690 -1.4457
  100OSM   C13F 9890   7.892   3.900   3.337 -0.3368  0.1304  0.1320
  100OSM   H13F 9891   7.981   3.957   3.304 -0.4927 -0.0301 -0.6068
  100OSM   H13G 9892   7.929   3.808   3.388 -0.5850 -0.0121  0.0575
  100OSM   C14F 9893   7.816   4.000   3.423  0.5899  0.4123  0.5772
  100OSM   H14F 9894   7.719   3.952   3.447  0.2897 -0.7360 -2.4219
  100OSM   H14G 9895   7.799   4.097   3.372 -0.3367 -0.5206 -0.9591
  100OSM   C15F 9896   7.886   4.040   3.555  0.4365  0.8004  0.0975
  100OSM   H15F 9897   7.985   4.078   3.522 -0.1359  1.4881 -0.8984
  100OSM   H15G 9898   7.910   3.945   3.607  0.6127  0.8368  0.0823
  100OSM   C16F 9899   7.807   4.138   3.640 -0.3547 -0.5898 -0.2472
  100OSM   H16F 9900   7.762   4.216   3.574  1.4755 -1.5516 -2.7965
  100OSM   H16G 9901   7.879   4.195   3.703  0.1571 -0.0329 -1.3098
  100OSM   C17F 9902   7.700   4.077   3.731 -0.3379 -0.0946  0.3360
  100OSM   H17F 9903   7.608   4.062   3.670 -0.8278 -0.0926  1.0567
  100OSM   H17G 9904   7.666   4.163   3.793  0.6311  0.4577  0.1093
  100OSM   C18F 9905   7.737   3.967   3.821 -0.0240  0.5687 -0.4001
  100OSM   H18F 9906   7.834   3.983   3.873 -0.0291  1.9077 -0.7699
  100OSM   H18G 9907   7.756   3.874   3.764  0.9726  0.4765  0.0698
  100OSM   H18H 9908   7.662   3.947   3.901  1.3164  0.5859  0.9035
  101SLPC     N 9909   2.428   6.035   6.482 -0.0958  0.5515  0.7198
  101SLPC   C13 9910   2.415   5.889   6.449 -0.3163  0.2060 -0.4896
  101SLPC  H13A 9911   2.507   5.836   6.466 -0.9423 -0.1894  2.0326
  101SLPC  H13B 9912   2.327   5.857   6.504 -0.5823 -0.9142 -1.5123
  101SLPC  H13C 9913   2.393   5.882   6.343 -0.5657  0.2109 -0.4384
  101SLPC   C14 9914   2.444   6.047   6.630  0.2493 -0.5664  0.0144
  101SLPC  H14A 9915   2.440   6.151   6.658  0.7307 -0.3702 -0.6333
  101SLPC  H14B 9916   2.359   6.000   6.676 -0.2781  0.5542  0.2112
  101SLPC  H14C 9917   2.531   5.999   6.674  0.1808 -2.3440 -1.6385
  101SLPC   C15 9918   2.299   6.092   6.441  0.1187 -0.5307 -0.6275
  101SLPC  H15A 9919   2.224   6.044   6.502 -0.8999  1.3095 -0.3355
  101SLPC  H15B 9920   2.297   6.193   6.481 -2.5922 -1.3264  1.5699
  101SLPC  H15C 9921   2.278   6.089   6.336 -2.9979 -1.1864 -0.0803
  101SLPC   C12 9922   2.543   6.098   6.409 -0.4508  0.1376  0.4583
  101SLPC  H12A 9923   2.535   6.092   6.302  0.2674 -0.8711  0.4525
  101SLPC  H12B 9924   2.630   6.039   6.433 -0.9095 -1.3366 -1.2479
  101SLPC   C11 9925   2.568   6.243   6.463 -0.8153 -0.7568  0.0224
  101SLPC  H11A 9926   2.646   6.289   6.399 -0.5524 -0.7926  0.3176
  101SLPC  H11B 9927   2.615   6.234   6.562  1.8562 -0.1080 -1.1048
  101SLPC     P 9928   2.429   6.445   6.551 -0.1441  0.1501 -0.2155
  101SLPC   O13 9929   2.298   6.434   6.616  0.1570  0.0392  0.3631
  101SLPC   O14 9930   2.545   6.453   6.645  0.2320 -0.1902 -0.6777
  101SLPC   O12 9931   2.456   6.321   6.463  0.6384  0.6581 -0.0638
  101SLPC   O11 9932   2.429   6.562   6.441  0.2267 -0.0916  0.5373
  101SLPC    C1 9933   2.329   6.551   6.344  0.1311 -0.1524  0.1747
  101SLPC    HA 9934   2.324   6.447   6.305  1.2703 -0.4143  0.6815
  101SLPC    HB 9935   2.227   6.578   6.377 -0.2843  0.2711 -1.3768
  101SLPC    C2 9936   2.359   6.644   6.215 -0.2507 -0.3511  0.4505
  101SLPC    HS 9937   2.297   6.605   6.132 -0.7436 -0.7495  0.9893
  101SLPC   O21 9938   2.500   6.651   6.179 -0.1285 -0.5095  0.5764
  101SLPC   C21 9939   2.552   6.539   6.127 -0.6983  0.0022 -0.0630
  101SLPC   O22 9940   2.495   6.431   6.135  0.1381 -0.7392  0.1877
  101SLPC   C22 9941   2.704   6.548   6.087  0.9459 -0.3530 -0.3503
  101SLPC   H2R 9942   2.752   6.629   6.147 -3.4493  1.1745  1.5416
  101SLPC   H2S 9943   2.753   6.453   6.118  1.7008  0.2783  0.4334
  101SLPC    C3 9944   2.307   6.784   6.243  0.1770 -0.3342  0.5809
  101SLPC    HX 9945   2.336   6.822   6.343 -1.1106 -0.1309  0.9044
  101SLPC    HY 9946   2.196   6.790   6.251 -0.0165 -2.1951 -0.1109
  101SLPC   O31 9947   2.342   6.867   6.135  0.1563 -0.1525 -0.1349
  101SLPC   C31 9948   2.427   6.960   6.153 -0.7501 -0.1340 -0.6948
  101SLPC   O32 9949   2.477   6.990   6.262  0.0482  0.2775 -0.0669
  101SLPC   C32 9950   2.438   7.036   6.024  0.5324 -0.5502 -0.0621
  101SLPC   H2X 9951   2.336   7.073   6.002  0.5401 -1.7704 -2.5079
  101SLPC   H2Y 9952   2.457   6.961   5.943 -0.5503  2.0646 -2.9300
  101SLPC   C23 9953   2.714   6.591   5.943 -0.5331  0.8813 -0.2807
  101SLPC   H3R 9954   2.806   6.637   5.901 -0.9355  0.9353 -1.1336
  101SLPC   H3S 9955   2.641   6.671   5.918 -0.8155  0.8974  0.5657
  101SLPC   C24 9956   2.677   6.469   5.851  0.3128 -0.2938 -0.3848
  101SLPC   H4R 9957   2.570   6.442   5.847  0.6393 -1.7818  0.0750
  101SLPC   H4S 9958   2.744   6.387   5.886  0.3409  0.1196  0.5730
  101SLPC   C25 9959   2.719   6.498   5.712  0.1194  0.1185 -0.3847
  101SLPC   H5R 9960   2.813   6.443   5.691  0.5334  0.9517 -0.7652
  101SLPC   H5S 9961   2.740   6.607   5.705 -0.4237  0.1532 -1.7863
  101SLPC   C26 9962   2.631   6.459   5.595 -0.2925  0.9485 -0.1733
  101SLPC   H6R 9963   2.536   6.515   5.612 -1.1450 -0.3035 -0.6508
  101SLPC   H6S 9964   2.602   6.352   5.601  1.8173  0.3589  0.2853
  101SLPC   C27 9965   2.683   6.491   5.456 -0.5425  0.5538 -0.1256
  101SLPC   H7R 9966   2.789   6.460   5.447  0.0103  2.3482 -0.2099
  101SLPC   H7S 9967   2.695   6.600   5.441  1.3591  0.6120  1.4674
  101SLPC   C28 9968   2.591   6.424   5.341  0.3611  0.0346 -0.2239
  101SLPC   H8R 9969   2.491   6.472   5.338  1.0080  1.3667 -1.0994
  101SLPC   H8S 9970   2.565   6.323   5.380 -1.0519  0.1524 -0.8156
  101SLPC   C29 9971   2.658   6.435   5.204  0.2783 -0.2643 -0.7955
  101SLPC   H9R 9972   2.768   6.444   5.208  0.2518  0.5756 -1.6674
  101SLPC  C210 9973   2.599   6.463   5.087 -0.0653 -0.4367  0.5882
  101SLPC  H10R 9974   2.658   6.465   4.995 -2.0277  0.5386 -0.7011
  101SLPC  C211 9975   2.451   6.472   5.057  0.3706  0.5272 -0.0337
  101SLPC  H11R 9976   2.396   6.466   5.153  1.3533  0.8506  0.5734
  101SLPC  H11S 9977   2.417   6.381   5.004 -0.6121  0.0223  1.3965
  101SLPC  C212 9978   2.407   6.588   4.977 -1.0809  0.5680  0.7138
  101SLPC  H12R 9979   2.476   6.673   4.964 -0.4662  0.1757  1.3447
  101SLPC  C213 9980   2.285   6.609   4.925 -0.7591  0.3116 -0.5349
  101SLPC  H13R 9981   2.267   6.701   4.867 -0.6101  0.4887 -0.3040
  101SLPC  C214 9982   2.158   6.524   4.940 -0.7857 -0.4981 -0.4861
  101SLPC  H14R 9983   2.168   6.436   5.006  1.6533 -0.9160 -1.3029
  101SLPC  H14S 9984   2.131   6.489   4.838 -0.9180  1.7066 -1.2808
  101SLPC  C215 9985   2.047   6.612   4.994 -0.0829 -0.5589  0.1856
  101SLPC  H15R 9986   1.951   6.557   5.006  0.2130 -0.7318  2.0331
  101SLPC  H15S 9987   2.037   6.684   4.909  2.2766  0.7681  0.9548
  101SLPC  C216 9988   2.078   6.675   5.134 -0.3015  0.4620  0.0100
  101SLPC  H16R 9989   2.030   6.772   5.159 -1.7505 -0.8157  2.4932
  101SLPC  H16S 9990   2.187   6.693   5.145 -0.8613  2.4641  4.0745
  101SLPC  C217 9991   2.038   6.572   5.243 -0.3836 -0.3268  0.4553
  101SLPC  H17R 9992   2.100   6.481   5.226  1.5049  0.7640  1.1973
  101SLPC  H17S 9993   1.931   6.543   5.236 -0.7771  1.2880 -0.6286
  101SLPC  C218 9994   2.071   6.624   5.382  0.0420  0.1022 -0.1803
  101SLPC  H18R 9995   2.042   6.551   5.461 -1.6568  0.5672 -0.3265
  101SLPC  H18S 9996   2.009   6.715   5.396  0.7292  0.7606 -1.2387
  101SLPC  H18T 9997   2.176   6.650   5.405 -0.5149 -1.2101  5.0658
  101SLPC   C33 9998   2.532   7.156   6.028  0.0430  0.7580  0.0918
  101SLPC   H3X 9999   2.517   7.227   6.112 -0.9752  1.6365 -0.8088
  101SLPC   H3Y10000   2.505   7.215   5.938 -3.0437  0.9293  1.0307
  101SLPC   C3410001   2.684   7.128   6.022 -0.4053  0.6669  1.0024
  101SLPC   H4X10002   2.702   7.049   6.098  0.2420 -0.9606 -0.7707
  101SLPC   H4Y10003   2.737   7.221   6.055  1.0766  0.7048 -1.2754
  101SLPC   C3510004   2.734   7.082   5.886 -0.5362 -0.8197  0.3193
  101SLPC   H5X10005   2.842   7.109   5.888 -0.5970 -0.5332 -0.2497
  101SLPC   H5Y10006   2.689   7.151   5.811  0.7147 -2.2745 -1.8802
  101SLPC   C3610007   2.734   6.938   5.853  0.1704 -0.0543  0.4552
  101SLPC   H6X10008   2.625   6.919   5.841 -0.0180  0.9819  0.4146
  101SLPC   H6Y10009   2.770   6.869   5.932 -0.0886 -0.2297  0.4222
  101SLPC   C3710010   2.811   6.907   5.721  0.1040 -0.2189  0.1946
  101SLPC   H7X10011   2.782   6.993   5.658 -1.7723 -0.0894  1.1615
  101SLPC   H7Y10012   2.783   6.812   5.670  1.4294  0.6169 -2.2653
  101SLPC   C3810013   2.962   6.899   5.744  0.3799  1.2882 -0.6393
  101SLPC   H8X10014   2.976   6.796   5.784 -0.6490  1.9028  1.4616
  101SLPC   H8Y10015   2.981   6.961   5.834 -1.4263  0.5028  0.3170
  101SLPC   C3910016   3.055   6.931   5.621  0.0180 -0.1199  0.8786
  101SLPC   H9X10017   3.151   6.888   5.655  0.1956  0.3047  0.9134
  101SLPC   H9Y10018   3.054   7.042   5.618  2.2122 -0.0740 -1.7745
  101SLPC  C31010019   3.007   6.872   5.488 -0.0254  0.0120  0.6802
  101SLPC  H10X10020   2.906   6.916   5.470 -1.4008 -1.9820  2.9774
  101SLPC  H10Y10021   2.988   6.763   5.488  1.8704 -0.3601  2.2120
  101SLPC  C31110022   3.095   6.915   5.376  0.0504 -0.1542  0.3088
  101SLPC  H11X10023   3.183   6.848   5.370  0.4201  0.0331  2.5869
  101SLPC  H11Y10024   3.134   7.018   5.387  2.3840 -0.9727  0.1955
  101SLPC  C31210025   3.009   6.907   5.247  0.2624  0.6207  0.0345
  101SLPC  H12X10026   2.920   6.972   5.259 -0.6761 -0.6178  0.0265
  101SLPC  H12Y10027   2.970   6.803   5.243 -0.3549  0.8817 -1.3815
  101SLPC  C31310028   3.092   6.933   5.120  0.1960  0.3662 -0.0947
  101SLPC  H13X10029   3.162   6.848   5.104  0.4464  0.8508 -1.7614
  101SLPC  H13Y10030   3.156   7.024   5.127  0.0601  0.5040 -0.5871
  101SLPC  C31410031   3.004   6.931   4.992  0.6195  0.2782 -0.1642
  101SLPC  H14X10032   2.931   7.014   4.999 -0.6866 -0.8749  0.3483
  101SLPC  H14Y10033   2.954   6.832   4.991 -1.7238  1.3405  2.1063
  101SLPC  C31510034   3.079   6.958   4.864  0.4813  0.0914  0.3713
  101SLPC  H15X10035   3.111   7.064   4.858 -1.7781  0.7933 -0.2986
  101SLPC  H15Y10036   3.012   6.932   4.778  1.1040 -1.0083  0.1908
  101SLPC  C31610037   3.194   6.855   4.850  0.0107 -0.0315  0.1150
  101SLPC  H16X10038   3.143   6.758   4.870  3.1992 -1.6713  1.0358
  101SLPC  H16Y10039   3.275   6.864   4.926 -0.0960 -1.7933  0.4759
  101SLPC  C31710040   3.272   6.845   4.713  0.6628 -0.8583  0.3818
  101SLPC  H17X10041   3.323   6.746   4.721  2.6211  0.1076  0.3779
  101SLPC  H17Y10042   3.352   6.922   4.712  0.9054 -1.1162 -0.4647
  101SLPC  C31810043   3.191   6.846   4.584 -0.0715  0.2526  0.2909
  101SLPC  H18X10044   3.142   6.945   4.583  1.9663  1.3182 -0.4273
  101SLPC  H18Y10045   3.122   6.761   4.564  1.2826 -1.0730  0.9542
  101SLPC  H18Z10046   3.264   6.857   4.501  0.7494  0.7957  1.0573
  102SLPC     N10047   2.644   1.447   7.178  0.3539 -0.7447 -0.6996
  102SLPC   C1310048   2.666   1.359   7.065 -0.0984  0.3683 -0.2012
  102SLPC  H13A10049   2.667   1.409   6.970  0.9050  0.3763 -0.2024
  102SLPC  H13B10050   2.768   1.323   7.059  0.4059  1.7842 -0.4876
  102SLPC  H13C10051   2.604   1.270   7.064 -2.0142  1.5430  2.3531
  102SLPC   C1410052   2.770   1.531   7.203  0.7404 -0.4210 -0.6112
  102SLPC  H14A10053   2.852   1.461   7.204  0.2543 -0.9975 -0.3425
  102SLPC  H14B10054   2.786   1.601   7.122 -1.4748  1.3412  0.3569
  102SLPC  H14C10055   2.767   1.589   7.294  1.3112 -0.3902 -0.6087
  102SLPC   C1510056   2.604   1.376   7.298  0.3891  0.1048 -0.0157
  102SLPC  H15A10057   2.559   1.441   7.372 -1.0890  0.9519 -1.5892
  102SLPC  H15B10058   2.522   1.309   7.277 -0.4930  0.8509  0.9204
  102SLPC  H15C10059   2.682   1.321   7.348  0.2925  0.5290  0.6197
  102SLPC   C1210060   2.518   1.544   7.146  0.0331  0.2109 -0.0396
  102SLPC  H12A10061   2.515   1.628   7.214 -1.9198 -0.1116  0.3102
  102SLPC  H12B10062   2.430   1.487   7.170  0.6881 -0.5345  0.6670
  102SLPC   C1110063   2.512   1.593   7.003 -0.0219  0.7586 -0.2271
  102SLPC  H11A10064   2.422   1.655   6.984 -1.3398 -0.6862  1.0119
  102SLPC  H11B10065   2.501   1.506   6.935  0.3585  0.9232 -0.5032
  102SLPC     P10066   2.668   1.804   7.020 -0.1019  0.1790 -0.0987
  102SLPC   O1310067   2.582   1.842   7.133  0.7361 -0.2954  0.8540
  102SLPC   O1410068   2.818   1.800   7.049 -0.3951 -0.5647  0.3995
  102SLPC   O1210069   2.630   1.666   6.966  0.4766 -0.4614 -0.3023
  102SLPC   O1110070   2.638   1.896   6.893  0.1665 -0.0725 -0.9603
  102SLPC    C110071   2.714   1.900   6.779  0.4540  0.2990  0.0608
  102SLPC    HA10072   2.746   2.004   6.757 -0.7498  0.9895  1.3736
  102SLPC    HB10073   2.808   1.842   6.789 -0.0101 -0.3875  0.6119
  102SLPC    C210074   2.627   1.854   6.664  0.0005  0.0474  0.3959
  102SLPC    HS10075   2.584   1.752   6.679 -2.0800  0.5490 -1.6216
  102SLPC   O2110076   2.700   1.846   6.532 -0.7043  0.0528 -0.4461
  102SLPC   C2110077   2.777   1.743   6.512 -0.2473  0.5715  0.0410
  102SLPC   O2210078   2.781   1.651   6.591  0.7802  0.3247 -0.0097
  102SLPC   C2210079   2.843   1.751   6.371 -0.0173 -0.4872  0.6504
  102SLPC   H2R10080   2.936   1.811   6.384 -0.3232  0.3144 -0.6427
  102SLPC   H2S10081   2.863   1.644   6.348  2.8785  0.1954 -0.4817
  102SLPC    C310082   2.503   1.943   6.657 -0.2152  0.0389 -0.1971
  102SLPC    HX10083   2.532   2.050   6.654 -2.0324  0.5492 -2.5901
  102SLPC    HY10084   2.450   1.942   6.755  0.4053  0.8628  0.1612
  102SLPC   O3110085   2.411   1.904   6.553 -0.0754  0.0932 -0.6403
  102SLPC   C3110086   2.419   1.988   6.444 -0.4496  0.3909 -0.6048
  102SLPC   O3210087   2.483   2.085   6.430 -0.3914 -0.1325 -0.3339
  102SLPC   C3210088   2.309   1.942   6.348  0.6139  0.6388  0.2231
  102SLPC   H2X10089   2.221   2.008   6.359  1.6532  1.6409  3.9809
  102SLPC   H2Y10090   2.275   1.840   6.377 -0.9374  1.1883  0.4086
  102SLPC   C2310091   2.758   1.832   6.267 -0.2974  0.9715  0.3233
  102SLPC   H3R10092   2.738   1.938   6.293 -3.2457  0.8105 -0.8977
  102SLPC   H3S10093   2.663   1.775   6.255  1.1559 -2.1149  2.2841
  102SLPC   C2410094   2.812   1.829   6.121 -0.0977 -0.8103 -0.6298
  102SLPC   H4R10095   2.835   1.723   6.095 -0.9974 -0.7587 -1.7112
  102SLPC   H4S10096   2.899   1.897   6.112 -1.6237  1.1009 -1.5355
  102SLPC   C2510097   2.709   1.874   6.019 -0.5683  1.0525  0.1329
  102SLPC   H5R10098   2.665   1.969   6.056  0.9915  1.6971  0.4189
  102SLPC   H5S10099   2.623   1.807   5.996  0.3313 -0.7629  1.7218
  102SLPC   C2610100   2.771   1.910   5.882 -0.0601  0.0189 -0.4313
  102SLPC   H6R10101   2.827   1.824   5.838  0.3150 -1.2959  2.3901
  102SLPC   H6S10102   2.843   1.993   5.900 -1.5949  1.3079 -0.0537
  102SLPC   C2710103   2.664   1.959   5.783  0.2011 -0.2469  0.3417
  102SLPC   H7R10104   2.619   2.057   5.809  0.4810 -0.0280  0.0056
  102SLPC   H7S10105   2.575   1.892   5.783 -0.6980  0.9142  1.2510
  102SLPC   C2810106   2.706   1.990   5.639 -0.4417 -0.1993 -0.8319
  102SLPC   H8R10107   2.790   2.063   5.632 -0.2882 -0.1858  0.8289
  102SLPC   H8S10108   2.616   2.038   5.594 -2.3756  1.0753  3.7902
  102SLPC   C2910109   2.733   1.866   5.558 -0.0488 -0.2396  0.2816
  102SLPC   H9R10110   2.780   1.786   5.617 -0.0071 -1.8515 -1.8070
  102SLPC  C21010111   2.720   1.848   5.424  0.0070  1.0345  0.3750
  102SLPC  H10R10112   2.755   1.752   5.384 -3.9774 -0.0306 -1.0632
  102SLPC  C21110113   2.677   1.949   5.319  0.6527  0.4123  0.2962
  102SLPC  H11R10114   2.754   1.946   5.239  1.1823 -1.7521  0.8133
  102SLPC  H11S10115   2.674   2.057   5.345 -0.3593  0.3128  0.6481
  102SLPC  C21210116   2.539   1.909   5.280  0.0203  0.0364  0.7427
  102SLPC  H12R10117   2.454   1.952   5.336  0.5996  0.9732  0.9345
  102SLPC  C21310118   2.509   1.841   5.161  0.4597  0.1432 -0.2576
  102SLPC  H13R10119   2.404   1.819   5.139  0.4834 -0.3624  0.1225
  102SLPC  C21410120   2.606   1.797   5.052  0.1108 -0.1947  0.9863
  102SLPC  H14R10121   2.590   1.691   5.021  2.2845 -0.4119  0.4376
  102SLPC  H14S10122   2.710   1.793   5.090  0.3686 -0.1731  0.2943
  102SLPC  C21510123   2.588   1.878   4.919  1.2440  0.4537  0.0458
  102SLPC  H15R10124   2.627   1.981   4.934 -2.6981  2.0383  0.7513
  102SLPC  H15S10125   2.478   1.879   4.906  1.0502 -0.8390  1.3424
  102SLPC  C21610126   2.650   1.801   4.804  0.4404 -0.1209  0.0619
  102SLPC  H16R10127   2.597   1.706   4.780  0.7053 -0.3398  0.3545
  102SLPC  H16S10128   2.747   1.784   4.855  0.3564 -0.8546 -0.0225
  102SLPC  C21710129   2.676   1.887   4.678 -0.0253 -0.4865 -0.0544
  102SLPC  H17R10130   2.758   1.842   4.617 -0.6936  0.7596 -1.9746
  102SLPC  H17S10131   2.714   1.985   4.714  1.2110  0.2269 -2.9976
  102SLPC  C21810132   2.549   1.912   4.592  0.3470 -0.2262  0.5527
  102SLPC  H18R10133   2.504   1.814   4.565  1.7515 -0.9024  0.6108
  102SLPC  H18S10134   2.585   1.980   4.511  3.2377 -0.4239  1.5631
  102SLPC  H18T10135   2.471   1.969   4.647  0.3744  0.4531 -0.0836
  102SLPC   C3310136   2.361   1.958   6.205 -0.3397  0.4930 -0.0125
  102SLPC   H3X10137   2.460   1.908   6.197 -0.1910  0.9381 -1.1684
  102SLPC   H3Y10138   2.386   2.063   6.175  0.3450  0.1988 -0.5113
  102SLPC   C3410139   2.265   1.897   6.103 -0.2717  0.3809  0.2311
  102SLPC   H4X10140   2.163   1.937   6.118 -0.9309 -1.1283  0.0031
  102SLPC   H4Y10141   2.247   1.788   6.120 -2.0068  0.7629  1.0745
  102SLPC   C3510142   2.299   1.935   5.955 -0.0642 -0.5057  0.0043
  102SLPC   H5X10143   2.394   1.883   5.928 -0.8539 -1.6225 -0.7311
  102SLPC   H5Y10144   2.320   2.044   5.957 -1.0731 -0.3161  1.0102
  102SLPC   C3610145   2.183   1.907   5.857 -0.4867 -0.3206 -0.0423
  102SLPC   H6X10146   2.094   1.960   5.896 -1.1485 -1.2941 -0.1953
  102SLPC   H6Y10147   2.155   1.799   5.862 -0.8562 -0.2178  4.1812
  102SLPC   C3710148   2.219   1.936   5.714  0.0614 -0.5726 -0.0445
  102SLPC   H7X10149   2.312   1.880   5.688 -1.0129 -1.4125 -2.3539
  102SLPC   H7Y10150   2.251   2.042   5.704 -2.1652  0.0832 -0.7376
  102SLPC   C3810151   2.106   1.903   5.614 -0.1449 -0.3810  0.2700
  102SLPC   H8X10152   2.004   1.939   5.640 -0.2166  0.3563 -0.9244
  102SLPC   H8Y10153   2.095   1.792   5.617 -0.4249 -0.3311  1.5930
  102SLPC   C3910154   2.145   1.948   5.478  0.2521 -0.1016  0.0634
  102SLPC   H9X10155   2.247   1.904   5.469  0.7726  1.2459 -1.0199
  102SLPC   H9Y10156   2.161   2.058   5.479 -0.5083  0.0551 -1.6446
  102SLPC  C31010157   2.050   1.907   5.363 -0.4150 -0.7966 -0.0431
  102SLPC  H10X10158   1.990   1.996   5.334  3.7979  2.6237  0.8123
  102SLPC  H10Y10159   1.990   1.817   5.388 -2.4013  0.5996  0.4803
  102SLPC  C31110160   2.133   1.863   5.241 -0.0056  0.3535  1.0776
  102SLPC  H11X10161   2.200   1.776   5.258 -0.9410 -0.3516  1.2558
  102SLPC  H11Y10162   2.195   1.948   5.209 -1.5053  0.6644 -1.2540
  102SLPC  C31210163   2.042   1.824   5.122  0.1295  0.0959  0.4699
  102SLPC  H12X10164   1.944   1.877   5.117  0.4770  0.6566 -1.1038
  102SLPC  H12Y10165   2.008   1.720   5.142 -2.5401  1.1253  1.7133
  102SLPC  C31310166   2.121   1.826   4.989  0.4304 -0.3118  0.7696
  102SLPC  H13X10167   2.087   1.742   4.924 -0.0754  0.2472  0.2878
  102SLPC  H13Y10168   2.227   1.808   5.016  1.5700  0.7020 -2.4893
  102SLPC  C31410169   2.131   1.962   4.919  0.6135 -0.1517  0.1769
  102SLPC  H14X10170   2.212   1.978   4.844  1.5450  3.2323  1.7382
  102SLPC  H14Y10171   2.162   2.034   4.997  0.8927  0.4433 -0.4686
  102SLPC  C31510172   2.012   2.010   4.833 -0.2851 -0.4503 -0.4488
  102SLPC  H15X10173   2.021   2.120   4.830 -1.0166 -0.4035 -1.0792
  102SLPC  H15Y10174   1.916   1.984   4.883 -0.4261  1.8487  0.5992
  102SLPC  C31610175   2.009   1.955   4.686 -0.7886  0.2292  0.1197
  102SLPC  H16X10176   2.020   1.845   4.698 -2.2602 -0.0496 -0.8462
  102SLPC  H16Y10177   2.099   2.010   4.649  0.1760 -1.1055  0.3956
  102SLPC  C31710178   1.887   1.977   4.601 -0.3582  0.1494  0.2744
  102SLPC  H17X10179   1.822   2.062   4.629  0.9079  1.4736 -0.6602
  102SLPC  H17Y10180   1.819   1.892   4.621 -0.9790 -0.0549 -2.2684
  102SLPC  C31810181   1.909   1.955   4.455 -0.0302  0.0920  0.2066
  102SLPC  H18X10182   1.818   1.990   4.402  0.8507  1.9197 -0.1727
  102SLPC  H18Y10183   1.924   1.850   4.424 -2.2569  0.0566 -0.9644
  102SLPC  H18Z10184   1.989   2.021   4.414 -0.1549  0.2723  0.2530
  103SLPC     N10185   2.030   0.062   6.899 -0.2380  0.0663 -0.2634
  103SLPC   C1310186   2.057   0.034   7.049  0.3378 -0.6045 -0.3698
  103SLPC  H13A10187   2.072   0.126   7.103  2.7524 -1.2691  0.2183
  103SLPC  H13B10188   1.964  -0.003   7.089 -0.8409  1.7610 -0.7696
  103SLPC  H13C10189   2.140  -0.032   7.071 -0.2751 -0.9482  0.9806
  103SLPC   C1410190   2.165   0.085   6.843 -0.1862 -0.2967 -0.3144
  103SLPC  H14A10191   2.220  -0.008   6.839 -0.0424 -0.2319  0.1389
  103SLPC  H14B10192   2.150   0.124   6.743 -1.8381 -1.6561 -0.6285
  103SLPC  H14C10193   2.210   0.170   6.893  0.5422  0.6077 -2.3784
  103SLPC   C1510194   1.950   0.188   6.884  0.0930 -0.0131 -0.0093
  103SLPC  H15A10195   1.923   0.197   6.780 -1.2861 -0.9450  0.2559
  103SLPC  H15B10196   1.858   0.183   6.940  0.6251 -1.0409  0.7901
  103SLPC  H15C10197   2.003   0.273   6.925  1.5087 -0.9806  0.2421
  103SLPC   C1210198   1.984  -0.064   6.823  0.5973 -0.3750 -0.4433
  103SLPC  H12A10199   2.052  -0.144   6.851  0.5092  0.0997  1.2325
  103SLPC  H12B10200   1.996  -0.037   6.719  0.3006 -0.3461 -0.4696
  103SLPC   C1110201   1.844  -0.123   6.854 -0.4165 -0.5542  0.3784
  103SLPC  H11A10202   1.843  -0.164   6.958 -1.3625  0.2272  0.6989
  103SLPC  H11B10203   1.833  -0.214   6.791  0.6293 -0.0047 -0.6432
  103SLPC     P10204   1.690   0.015   6.690  0.0021  0.1011 -0.3395
  103SLPC   O1310205   1.723   0.158   6.688 -0.0305 -0.4829 -0.2837
  103SLPC   O1410206   1.748  -0.080   6.594 -0.1733  0.7190 -0.1967
  103SLPC   O1210207   1.736  -0.035   6.835  0.6960 -0.3814 -0.4790
  103SLPC   O1110208   1.532  -0.009   6.707  0.0100 -0.0282 -0.4529
  103SLPC    C110209   1.431   0.096   6.697 -0.6482 -0.1058  0.0314
  103SLPC    HA10210   1.345   0.095   6.767 -1.5150  2.0440 -0.9177
  103SLPC    HB10211   1.485   0.189   6.726  2.6618 -1.2684 -1.9277
  103SLPC    C210212   1.379   0.119   6.555  0.5450  0.0989  0.9395
  103SLPC    HS10213   1.274   0.088   6.534  0.5552  1.8751 -2.3421
  103SLPC   O2110214   1.466   0.072   6.449  0.0612  0.7447  0.0924
  103SLPC   C2110215   1.447  -0.063   6.438  0.1911  0.0194 -0.3107
  103SLPC   O2210216   1.355  -0.120   6.493  0.0627  0.2109 -0.1427
  103SLPC   C2210217   1.536  -0.123   6.326 -0.3963 -0.2890 -0.2276
  103SLPC   H2R10218   1.506  -0.071   6.232 -3.8310  0.9849  1.3982
  103SLPC   H2S10219   1.642  -0.095   6.343 -0.9116  0.8063  1.4969
  103SLPC    C310220   1.373   0.269   6.530  0.0931  0.0550 -0.8259
  103SLPC    HX10221   1.471   0.314   6.504  0.7071  0.7189  2.2569
  103SLPC    HY10222   1.339   0.319   6.623  1.1586 -0.9897  0.1542
  103SLPC   O3110223   1.279   0.298   6.427  0.5265  0.1293 -0.4526
  103SLPC   C3110224   1.228   0.419   6.434  0.0032 -0.4174  0.1897
  103SLPC   O3210225   1.264   0.507   6.511 -0.1966 -0.7808 -0.0436
  103SLPC   C3210226   1.149   0.447   6.306  0.4734 -0.2612 -0.0757
  103SLPC   H2X10227   1.135   0.556   6.296 -2.1391 -0.5609 -0.6467
  103SLPC   H2Y10228   1.053   0.390   6.300 -0.8197  1.8725 -0.7873
  103SLPC   C2310229   1.534  -0.278   6.308  0.4464  0.0067 -0.1945
  103SLPC   H3R10230   1.450  -0.325   6.364 -1.2976  1.8820 -1.0751
  103SLPC   H3S10231   1.630  -0.323   6.339 -0.3428 -0.4010  1.8255
  103SLPC   C2410232   1.521  -0.323   6.162  0.3309 -0.0926 -0.3564
  103SLPC   H4R10233   1.431  -0.275   6.118 -1.3062  1.0031  3.6615
  103SLPC   H4S10234   1.499  -0.432   6.162  4.2263 -1.0395 -1.3126
  103SLPC   C2510235   1.645  -0.308   6.077 -0.6500  0.1764 -0.3907
  103SLPC   H5R10236   1.716  -0.383   6.118 -1.7022 -1.3672 -1.2558
  103SLPC   H5S10237   1.686  -0.205   6.076 -0.0064 -0.0817 -0.5256
  103SLPC   C2610238   1.632  -0.353   5.934  0.1975  0.2900  0.5522
  103SLPC   H6R10239   1.634  -0.464   5.921  3.3628  0.2572  0.4889
  103SLPC   H6S10240   1.728  -0.319   5.890 -1.3060  1.9217 -1.6584
  103SLPC   C2710241   1.532  -0.281   5.838 -0.5186 -0.1753  0.0910
  103SLPC   H7R10242   1.531  -0.173   5.861  1.5812  0.5214 -2.6257
  103SLPC   H7S10243   1.431  -0.321   5.861  0.2475 -0.7607  2.9178
  103SLPC   C2810244   1.572  -0.315   5.698 -0.1343 -0.0683  0.0960
  103SLPC   H8R10245   1.561  -0.425   5.690 -0.3034 -0.1213  0.9544
  103SLPC   H8S10246   1.680  -0.288   5.692 -0.1242  0.2660  1.3336
  103SLPC   C2910247   1.480  -0.250   5.597  0.0533 -0.3015 -0.7612
  103SLPC   H9R10248   1.395  -0.194   5.639  2.3075  2.2943  0.6001
  103SLPC  C21010249   1.503  -0.237   5.465 -0.1231 -0.4070 -0.5934
  103SLPC  H10R10250   1.420  -0.207   5.399 -2.3065 -2.3385  1.0858
  103SLPC  C21110251   1.619  -0.287   5.389  0.2668 -0.3310  0.5836
  103SLPC  H11R10252   1.595  -0.394   5.368  1.3520 -0.5841  0.5527
  103SLPC  H11S10253   1.707  -0.301   5.456  0.3525  1.4473  0.8911
  103SLPC  C21210254   1.663  -0.224   5.263 -0.1984  0.7538  0.0591
  103SLPC  H12R10255   1.749  -0.157   5.280 -0.2364  0.1563  3.1899
  103SLPC  C21310256   1.609  -0.249   5.143  0.6172  0.4049 -0.1183
  103SLPC  H13R10257   1.648  -0.199   5.053  0.1581 -0.5567 -0.8805
  103SLPC  C21410258   1.498  -0.347   5.109  0.1755 -0.6984  0.3970
  103SLPC  H14R10259   1.442  -0.385   5.198 -1.6414 -0.3914 -0.5646
  103SLPC  H14S10260   1.537  -0.439   5.061 -0.2827 -0.8823  0.3685
  103SLPC  C21510261   1.392  -0.276   5.020 -0.6083 -0.4744  0.9465
  103SLPC  H15R10262   1.343  -0.208   5.092  1.7987 -0.2857  2.5425
  103SLPC  H15S10263   1.325  -0.356   4.983 -2.9127  1.7546  0.0750
  103SLPC  C21610264   1.438  -0.201   4.898  0.0042 -0.2603 -0.6038
  103SLPC  H16R10265   1.481  -0.104   4.931 -0.1327 -0.2977 -0.3168
  103SLPC  H16S10266   1.348  -0.167   4.844  1.5044 -0.4324 -3.4236
  103SLPC  C21710267   1.528  -0.294   4.809  0.1192 -1.1370 -0.1345
  103SLPC  H17R10268   1.476  -0.392   4.803 -2.7805  0.2798  0.1343
  103SLPC  H17S10269   1.624  -0.308   4.864 -0.5503 -0.1012  1.3555
  103SLPC  C21810270   1.548  -0.232   4.671  0.9325 -1.1662  0.6325
  103SLPC  H18R10271   1.619  -0.147   4.664 -0.3439  0.1395  2.4670
  103SLPC  H18S10272   1.450  -0.201   4.628  1.5426 -0.5247 -0.3542
  103SLPC  H18T10273   1.597  -0.309   4.607  2.0249 -1.6581  2.0122
  103SLPC   C3310274   1.229   0.402   6.180 -0.4610  0.2374  0.1439
  103SLPC   H3X10275   1.223   0.291   6.171 -0.6538  0.1454  1.3544
  103SLPC   H3Y10276   1.335   0.435   6.187 -0.1330 -0.9661  1.2792
  103SLPC   C3410277   1.178   0.465   6.049 -0.2486 -0.3114 -0.3279
  103SLPC   H4X10278   1.172   0.575   6.069 -2.2812 -0.3060 -0.7563
  103SLPC   H4Y10279   1.074   0.430   6.039 -0.0395 -0.2570 -4.5219
  103SLPC   C3510280   1.271   0.447   5.923  0.3351  0.1294  0.6767
  103SLPC   H5X10281   1.278   0.338   5.902  0.5198  0.0396  1.1805
  103SLPC   H5Y10282   1.374   0.477   5.951  0.5665  0.4836 -0.4988
  103SLPC   C3610283   1.227   0.526   5.793 -0.3984  0.7321  0.3342
  103SLPC   H6X10284   1.241   0.635   5.805 -2.0449  1.1982 -1.5501
  103SLPC   H6Y10285   1.118   0.510   5.781 -0.0710 -1.7476 -0.0635
  103SLPC   C3710286   1.314   0.490   5.667 -0.6191 -0.4436 -0.4495
  103SLPC   H7X10287   1.316   0.381   5.651 -0.2264 -0.6258  0.7868
  103SLPC   H7Y10288   1.418   0.515   5.695 -0.6166 -1.2993  0.3399
  103SLPC   C3810289   1.259   0.548   5.538 -0.0854 -0.1780 -0.3909
  103SLPC   H8X10290   1.233   0.655   5.555  0.8176 -0.1705  1.1269
  103SLPC   H8Y10291   1.171   0.484   5.516  0.3220 -0.9543  0.2202
  103SLPC   C3910292   1.356   0.539   5.416  0.2797  0.1593  0.5245
  103SLPC   H9X10293   1.390   0.435   5.396  0.5566  0.6094 -1.5925
  103SLPC   H9Y10294   1.440   0.606   5.445  0.4572  0.3854 -0.4623
  103SLPC  C31010295   1.286   0.594   5.287 -0.0592 -0.3482 -0.5214
  103SLPC  H10X10296   1.238   0.688   5.318 -0.4217 -1.4531  2.5640
  103SLPC  H10Y10297   1.206   0.522   5.260 -1.1823  0.9062 -0.5877
  103SLPC  C31110298   1.383   0.608   5.172  0.6691  0.0422  0.6143
  103SLPC  H11X10299   1.432   0.508   5.163 -1.7393 -1.1908  0.1298
  103SLPC  H11Y10300   1.461   0.684   5.193 -0.1232  0.7655  0.9904
  103SLPC  C31210301   1.311   0.644   5.046  0.7357 -0.4986  0.7214
  103SLPC  H12X10302   1.265   0.745   5.041 -1.7533 -1.5466  0.8083
  103SLPC  H12Y10303   1.222   0.578   5.034  1.4730 -1.1116 -2.5039
  103SLPC  C31310304   1.386   0.634   4.910  0.0041  0.0895 -0.6832
  103SLPC  H13X10305   1.388   0.532   4.864  1.1618  0.9378 -2.6387
  103SLPC  H13Y10306   1.491   0.663   4.926  0.9559  0.9478 -6.2593
  103SLPC  C31410307   1.321   0.726   4.810  0.6939  0.0259 -0.1761
  103SLPC  H14X10308   1.385   0.728   4.719 -0.8782  0.7294 -1.3187
  103SLPC  H14Y10309   1.316   0.832   4.841 -0.8079 -0.0271 -0.1695
  103SLPC  C31510310   1.182   0.661   4.768 -0.9490  0.3960 -0.1112
  103SLPC  H15X10311   1.107   0.658   4.850  1.2347  0.3714  1.9991
  103SLPC  H15Y10312   1.212   0.556   4.747  1.3343  0.7820  0.8440
  103SLPC  C31610313   1.119   0.729   4.647 -0.1466 -0.1818  0.4117
  103SLPC  H16X10314   1.195   0.790   4.595 -0.3882  1.0710  1.4883
  103SLPC  H16Y10315   1.043   0.803   4.679  0.4282  0.3377  0.5773
  103SLPC  C31710316   1.061   0.627   4.542 -0.6002 -0.1926 -0.3314
  103SLPC  H17X10317   0.976   0.563   4.573 -0.6906  0.2988  0.4566
  103SLPC  H17Y10318   1.140   0.557   4.506  0.5999  1.4658 -1.0496
  103SLPC  C31810319   1.003   0.706   4.427 -0.3511  0.1213  0.4758
  103SLPC  H18X10320   0.977   0.643   4.340  2.4485 -0.8581  0.2560
  103SLPC  H18Y10321   1.080   0.773   4.384 -0.4515 -0.3242 -0.4316
  103SLPC  H18Z10322   0.916   0.768   4.461  1.8765  2.7830  1.7248
  104SLPC     N10323   2.748   5.345   6.945 -0.7757  0.3883  0.0353
  104SLPC   C1310324   2.640   5.399   6.859  0.5605  0.5204  0.0950
  104SLPC  H13A10325   2.581   5.313   6.829  1.0473 -0.1993  1.1278
  104SLPC  H13B10326   2.571   5.465   6.909  0.5931  0.6324 -0.0076
  104SLPC  H13C10327   2.682   5.435   6.766 -0.5538  0.4342 -0.4604
  104SLPC   C1410328   2.792   5.218   6.877  0.0461  0.0516  0.4229
  104SLPC  H14A10329   2.851   5.243   6.790  0.9809 -1.8723  0.4484
  104SLPC  H14B10330   2.848   5.144   6.932  1.1891 -0.3753 -1.2452
  104SLPC  H14C10331   2.710   5.157   6.841  0.4063  0.7346 -1.7279
  104SLPC   C1510332   2.692   5.302   7.078  0.4156  0.4047 -0.1489
  104SLPC  H15A10333   2.622   5.220   7.068  0.6652 -0.0020  1.2747
  104SLPC  H15B10334   2.764   5.269   7.151  1.4311 -0.0302 -1.3041
  104SLPC  H15C10335   2.644   5.388   7.122  0.6374  0.1841  0.5382
  104SLPC   C1210336   2.857   5.443   6.962 -0.7325 -0.7706  0.0412
  104SLPC  H12A10337   2.943   5.386   6.996 -1.4761 -2.0567 -0.1895
  104SLPC  H12B10338   2.825   5.528   7.020  0.4526  0.2037 -0.6759
  104SLPC   C1110339   2.903   5.516   6.835 -0.7608 -0.0264 -0.4039
  104SLPC  H11A10340   2.973   5.598   6.860 -0.2394 -0.6176  0.1025
  104SLPC  H11B10341   2.820   5.566   6.780 -0.0194  1.2109 -0.4353
  104SLPC     P10342   3.119   5.429   6.703 -0.1663 -0.3758 -0.1126
  104SLPC   O1310343   3.208   5.451   6.819  0.0632 -0.2054  0.3460
  104SLPC   O1410344   3.149   5.315   6.621  0.1858 -0.3834 -0.4188
  104SLPC   O1210345   2.970   5.421   6.751 -0.4254 -0.3882  0.6177
  104SLPC   O1110346   3.123   5.562   6.622 -0.0590 -0.3727  0.1842
  104SLPC    C110347   3.028   5.592   6.515 -0.2206  0.5384 -0.0320
  104SLPC    HA10348   2.926   5.553   6.535  0.0839 -0.4761 -0.3852
  104SLPC    HB10349   3.010   5.701   6.510 -0.9066  0.4039 -0.6675
  104SLPC    C210350   3.070   5.541   6.376 -0.5300  0.2042 -0.2965
  104SLPC    HS10351   2.990   5.570   6.304  0.4682  1.7914 -0.8181
  104SLPC   O2110352   3.087   5.396   6.379  0.1408 -0.0806  0.2104
  104SLPC   C2110353   3.015   5.323   6.292 -0.1268 -0.4669 -0.2251
  104SLPC   O2210354   2.934   5.371   6.212  0.2222 -0.2615 -0.0542
  104SLPC   C2210355   3.050   5.174   6.297  0.8123  0.7382  0.4111
  104SLPC   H2R10356   3.102   5.153   6.393  0.2571  0.0193  0.5577
  104SLPC   H2S10357   2.952   5.122   6.303  1.9814 -1.6087  0.3904
  104SLPC    C310358   3.198   5.600   6.316  0.6403  0.3705 -0.0188
  104SLPC    HX10359   3.283   5.601   6.388  1.2338  0.7468 -0.7093
  104SLPC    HY10360   3.173   5.708   6.325 -0.7320  0.0781 -0.1412
  104SLPC   O3110361   3.241   5.561   6.185 -0.3613  0.4309 -0.0062
  104SLPC   C3110362   3.158   5.593   6.083  1.4269 -0.1025  0.3233
  104SLPC   O3210363   3.061   5.662   6.095  0.4976  0.8220 -0.4194
  104SLPC   C3210364   3.208   5.533   5.946  0.6288 -0.3281 -0.3158
  104SLPC   H2X10365   3.193   5.423   5.950  2.2091 -0.5935 -0.7478
  104SLPC   H2Y10366   3.317   5.554   5.951  0.2140  2.1526  0.0035
  104SLPC   C2310367   3.125   5.143   6.162 -0.1453 -0.2194 -0.8750
  104SLPC   H3R10368   3.175   5.045   6.176  1.0923  0.3196 -1.3849
  104SLPC   H3S10369   3.205   5.215   6.134  1.4595 -1.2031  0.9690
  104SLPC   C2410370   3.024   5.136   6.044 -0.1779 -0.5447 -0.0700
  104SLPC   H4R10371   2.963   5.229   6.043  2.1863  1.1368  1.2250
  104SLPC   H4S10372   2.951   5.053   6.054 -1.5985  0.7238  0.5561
  104SLPC   C2510373   3.103   5.120   5.904 -0.4549  0.9658 -0.4882
  104SLPC   H5R10374   3.169   5.033   5.925 -1.4417  0.0622 -1.0383
  104SLPC   H5S10375   3.169   5.206   5.880  1.8387 -0.9692 -1.6628
  104SLPC   C2610376   3.006   5.084   5.795  0.0743 -0.9984 -0.1087
  104SLPC   H6R10377   2.948   4.993   5.821 -0.2737 -1.2293 -1.5639
  104SLPC   H6S10378   3.054   5.050   5.701  0.8792  1.1194 -0.5308
  104SLPC   C2710379   2.912   5.204   5.746  0.5247  0.0815 -0.8733
  104SLPC   H7R10380   2.971   5.297   5.754  2.4979 -1.1739 -0.0706
  104SLPC   H7S10381   2.835   5.209   5.825  0.8504  2.3405 -0.6457
  104SLPC   C2810382   2.864   5.186   5.603  0.7571 -0.8528 -0.1199
  104SLPC   H8R10383   2.944   5.187   5.526  0.0450  0.2344 -0.8655
  104SLPC   H8S10384   2.803   5.269   5.562  1.9961 -1.2303 -3.0043
  104SLPC   C2910385   2.788   5.055   5.590  0.3951  0.6421  0.0163
  104SLPC   H9R10386   2.780   4.990   5.679  1.0482 -0.3154 -0.5970
  104SLPC  C21010387   2.745   5.009   5.473  0.1183  0.3946 -0.0675
  104SLPC  H10R10388   2.696   4.911   5.470  1.0637 -0.1514  1.5325
  104SLPC  C21110389   2.752   5.083   5.342 -0.0871  0.3410 -0.3018
  104SLPC  H11R10390   2.712   5.186   5.352  0.9292  0.6584  0.7432
  104SLPC  H11S10391   2.680   5.046   5.266  1.3131 -0.3626 -1.3377
  104SLPC  C21210392   2.891   5.091   5.277  0.0682  0.6804  0.0181
  104SLPC  H12R10393   2.976   5.071   5.344  0.4170  3.5783  0.5609
  104SLPC  C21310394   2.911   5.130   5.147  0.2748  0.1492 -0.6554
  104SLPC  H13R10395   3.012   5.123   5.104  0.7067 -0.9902  0.4874
  104SLPC  C21410396   2.809   5.161   5.040  0.4182  0.0005 -0.0940
  104SLPC  H14R10397   2.747   5.252   5.049 -1.7952 -1.3699 -0.5778
  104SLPC  H14S10398   2.729   5.084   5.038 -0.8462  1.2448 -2.4960
  104SLPC  C21510399   2.852   5.147   4.897 -0.0818 -0.6920 -0.2170
  104SLPC  H15R10400   2.759   5.159   4.837  0.9349  1.9190 -1.4504
  104SLPC  H15S10401   2.892   5.049   4.864 -1.3400 -1.1034 -0.5706
  104SLPC  C21610402   2.940   5.272   4.851 -0.4258 -0.3335  0.5140
  104SLPC  H16R10403   3.044   5.267   4.892 -0.3956  1.4032  0.7380
  104SLPC  H16S10404   2.891   5.365   4.888 -2.4523 -1.2900  0.3646
  104SLPC  C21710405   2.942   5.291   4.697  0.1567  0.2740  0.1006
  104SLPC  H17R10406   2.961   5.192   4.650 -0.1754  1.3973 -2.5701
  104SLPC  H17S10407   3.026   5.360   4.674  0.2810  1.6767  3.9705
  104SLPC  C21810408   2.812   5.342   4.637 -0.3029  0.6188 -0.6302
  104SLPC  H18R10409   2.738   5.259   4.629 -2.5323  2.4726 -0.3023
  104SLPC  H18S10410   2.819   5.384   4.534 -0.4721  1.5580 -0.2682
  104SLPC  H18T10411   2.758   5.412   4.704 -1.5958 -2.7689  2.2055
  104SLPC   C3310412   3.155   5.611   5.820 -0.5535  0.1506 -0.7709
  104SLPC   H3X10413   3.183   5.718   5.830 -0.1901 -0.1249  2.0552
  104SLPC   H3Y10414   3.045   5.617   5.835 -0.4619  0.2727 -0.0975
  104SLPC   C3410415   3.201   5.546   5.693  0.5033 -0.3451  0.1075
  104SLPC   H4X10416   3.179   5.438   5.697  3.4789 -1.0190  1.3203
  104SLPC   H4Y10417   3.312   5.540   5.687  0.5336 -0.2295  0.5546
  104SLPC   C3510418   3.136   5.605   5.567  0.2304 -0.7345 -0.7284
  104SLPC   H5X10419   3.155   5.713   5.555 -0.2439 -0.7723 -1.9285
  104SLPC   H5Y10420   3.026   5.591   5.568  0.2781 -1.1417 -0.9080
  104SLPC   C3610421   3.182   5.536   5.443  0.2324  0.7155  0.3830
  104SLPC   H6X10422   3.133   5.437   5.460  0.1012  1.1475  2.9762
  104SLPC   H6Y10423   3.289   5.510   5.452 -0.0373 -1.1410 -1.0958
  104SLPC   C3710424   3.136   5.609   5.317 -0.3279  0.3994 -0.0109
  104SLPC   H7X10425   3.211   5.689   5.301 -0.7851  0.9023  0.3266
  104SLPC   H7Y10426   3.042   5.663   5.341  0.1984  2.1363 -1.6293
  104SLPC   C3810427   3.114   5.502   5.204  0.7562  0.3020 -0.0245
  104SLPC   H8X10428   3.017   5.452   5.222 -0.2427  0.8885 -3.0935
  104SLPC   H8Y10429   3.202   5.434   5.209  1.1600  0.7673 -0.5638
  104SLPC   C3910430   3.101   5.575   5.071 -0.1841 -0.2163 -0.5456
  104SLPC   H9X10431   3.015   5.645   5.078 -0.6516 -0.5134 -2.7633
  104SLPC   H9Y10432   3.078   5.491   5.002 -0.3454  0.0160 -0.7741
  104SLPC  C31010433   3.237   5.638   5.023 -0.0293  0.1086  0.0399
  104SLPC  H10X10434   3.309   5.554   5.018  0.1503  0.0973  1.9200
  104SLPC  H10Y10435   3.286   5.699   5.102  0.4071 -0.4866  0.2370
  104SLPC  C31110436   3.223   5.709   4.885 -0.2221 -0.5822  0.1531
  104SLPC  H11X10437   3.320   5.756   4.856  0.8440  0.2958  4.4370
  104SLPC  H11Y10438   3.146   5.786   4.908 -0.7008 -0.5383 -1.4622
  104SLPC  C31210439   3.172   5.610   4.780  0.2736  0.1605 -0.8837
  104SLPC  H12X10440   3.063   5.590   4.791  0.3257  0.8719  1.4243
  104SLPC  H12Y10441   3.221   5.511   4.787 -0.5781 -0.2515 -0.6522
  104SLPC  C31310442   3.198   5.659   4.638  0.6998  0.2777 -0.1015
  104SLPC  H13X10443   3.308   5.650   4.621  0.7757  1.4407 -0.3081
  104SLPC  H13Y10444   3.163   5.763   4.622 -4.8709 -1.2761 -0.1856
  104SLPC  C31410445   3.128   5.566   4.538 -0.9754 -0.2277 -0.0620
  104SLPC  H14X10446   3.020   5.563   4.563 -0.9464 -0.4388  0.0440
  104SLPC  H14Y10447   3.171   5.463   4.544  0.4423  0.3743  0.5635
  104SLPC  C31510448   3.139   5.614   4.394  0.0817 -0.3413  0.7853
  104SLPC  H15X10449   3.242   5.601   4.355 -0.2303  0.7828 -0.4856
  104SLPC  H15Y10450   3.126   5.724   4.389 -1.6603 -0.5216  0.7328
  104SLPC  C31610451   3.046   5.538   4.308  0.0777  0.3466  0.1253
  104SLPC  H16X10452   2.946   5.537   4.357 -0.2880 -2.1520 -0.5484
  104SLPC  H16Y10453   3.081   5.433   4.306  1.6754  0.8316  0.9984
  104SLPC  C31710454   3.030   5.601   4.163  0.5966  0.2743 -0.5612
  104SLPC  H17X10455   3.125   5.601   4.105  2.3686 -0.0184  2.1316
  104SLPC  H17Y10456   3.008   5.709   4.178  2.3649  0.4963  0.9008
  104SLPC  C31810457   2.918   5.544   4.083 -0.3019 -0.5471  0.4327
  104SLPC  H18X10458   2.950   5.443   4.049 -0.8996 -1.0596  1.3407
  104SLPC  H18Y10459   2.882   5.606   3.998  2.3684  0.2819 -0.1736
  104SLPC  H18Z10460   2.832   5.529   4.151 -1.7969  0.5158 -1.1300
  105SLPC     N10461   4.146   5.432   6.553 -0.0737  0.1935 -0.1579
  105SLPC   C1310462   4.068   5.356   6.449  0.4082 -0.1342  0.6709
  105SLPC  H13A10463   4.129   5.364   6.361  2.5044 -2.4487  1.7904
  105SLPC  H13B10464   4.063   5.252   6.475  0.9493 -0.3591 -0.0794
  105SLPC  H13C10465   3.968   5.395   6.439  1.0388  1.1451 -1.4717
  105SLPC   C1410466   4.294   5.420   6.535  0.4084 -0.0845 -0.2842
  105SLPC  H14A10467   4.325   5.317   6.531  1.4963  0.2672 -2.1568
  105SLPC  H14B10468   4.333   5.473   6.449 -1.5908 -0.5247 -1.5209
  105SLPC  H14C10469   4.353   5.462   6.615 -0.1493  1.3903 -0.6114
  105SLPC   C1510470   4.105   5.353   6.678 -0.0852 -0.8015 -0.4781
  105SLPC  H15A10471   4.162   5.371   6.768 -3.2058  1.4779  1.2585
  105SLPC  H15B10472   4.004   5.375   6.710  1.4991  1.5619  3.6524
  105SLPC  H15C10473   4.103   5.247   6.660 -1.8956 -0.6737 -1.2821
  105SLPC   C1210474   4.085   5.566   6.547 -0.1121 -0.1004  0.6235
  105SLPC  H12A10475   4.097   5.625   6.636 -0.7168 -0.5217  0.9887
  105SLPC  H12B10476   3.978   5.552   6.552  0.2113 -2.8099  2.9893
  105SLPC   C1110477   4.129   5.648   6.425  0.0902 -0.0976 -0.7216
  105SLPC  H11A10478   4.051   5.723   6.400  1.1627  0.7704 -1.5820
  105SLPC  H11B10479   4.136   5.586   6.333  0.4202  0.3229 -0.9844
  105SLPC     P10480   4.266   5.854   6.498  0.4170  0.2455  0.3404
  105SLPC   O1310481   4.169   5.878   6.610  0.0629  0.1622  0.2943
  105SLPC   O1410482   4.407   5.886   6.535 -0.5178  0.1250  0.5215
  105SLPC   O1210483   4.260   5.705   6.445  0.0485  0.1225 -0.0267
  105SLPC   O1110484   4.207   5.913   6.366 -0.7275 -0.4249  0.2906
  105SLPC    C110485   4.272   6.018   6.292 -0.0086  0.6522  0.3780
  105SLPC    HA10486   4.208   6.108   6.306 -0.4240  0.3416  0.4722
  105SLPC    HB10487   4.376   6.044   6.323 -0.1304 -0.0774  1.4716
  105SLPC    C210488   4.266   5.986   6.138  0.2661 -0.2163  0.2402
  105SLPC    HS10489   4.316   6.073   6.090 -1.1051  0.1480 -0.5729
  105SLPC   O2110490   4.126   5.980   6.101 -0.1054  0.3120 -0.6089
  105SLPC   C2110491   4.078   6.086   6.045 -0.2772  0.2381 -0.7675
  105SLPC   O2210492   4.128   6.194   6.031 -0.5616  0.0686 -0.0853
  105SLPC   C2210493   3.942   6.043   5.976 -0.7008 -0.4671  0.2130
  105SLPC   H2R10494   3.875   6.027   6.063  0.4940 -0.8466  1.0915
  105SLPC   H2S10495   3.904   6.129   5.917  0.4369 -0.6994 -0.9205
  105SLPC    C310496   4.342   5.856   6.103  0.3024  0.4407  0.6857
  105SLPC    HX10497   4.267   5.775   6.114  1.5315 -0.8702 -0.3076
  105SLPC    HY10498   4.422   5.825   6.175  2.7213 -3.4555 -3.1929
  105SLPC   O3110499   4.389   5.852   5.970  0.0836 -0.3493  0.2196
  105SLPC   C3110500   4.505   5.924   5.966 -0.2456 -0.0440  0.6507
  105SLPC   O3210501   4.544   5.991   6.060 -0.3021  0.4204  0.8566
  105SLPC   C3210502   4.571   5.902   5.824 -0.4149  0.1283 -0.7113
  105SLPC   H2X10503   4.633   5.811   5.838  0.9676  1.3151  1.2550
  105SLPC   H2Y10504   4.641   5.987   5.817  0.9340 -0.9399 -0.5448
  105SLPC   C2310505   3.957   5.908   5.905  0.7779 -0.2449 -0.7448
  105SLPC   H3R10506   3.857   5.868   5.878  1.1035 -0.8189 -1.1287
  105SLPC   H3S10507   3.996   5.831   5.975 -0.2161  0.3814  0.5168
  105SLPC   C2410508   4.044   5.912   5.783 -0.7085 -0.0852 -0.1369
  105SLPC   H4R10509   4.146   5.880   5.815 -0.9092 -0.4372  0.1625
  105SLPC   H4S10510   4.054   6.016   5.745 -1.9448 -0.1449 -0.6699
  105SLPC   C2510511   4.009   5.796   5.686  0.3085 -0.4226  0.7227
  105SLPC   H5R10512   3.916   5.827   5.633  0.2875  0.5399  1.3196
  105SLPC   H5S10513   4.003   5.691   5.723  1.1145 -0.3815  0.9895
  105SLPC   C2610514   4.115   5.776   5.576 -0.7588 -0.0806 -0.2434
  105SLPC   H6R10515   4.216   5.757   5.618 -1.2488  0.3873  1.1997
  105SLPC   H6S10516   4.125   5.879   5.535  0.7103 -0.2715 -0.4253
  105SLPC   C2710517   4.075   5.678   5.465 -0.1770 -0.3818  0.3605
  105SLPC   H7R10518   3.970   5.694   5.434  0.0594  0.1393 -0.1713
  105SLPC   H7S10519   4.085   5.576   5.510  1.8696 -1.2013 -1.7360
  105SLPC   C2810520   4.179   5.680   5.350  0.5369 -0.3405  0.2840
  105SLPC   H8R10521   4.280   5.639   5.375  0.3411 -1.1598 -0.2167
  105SLPC   H8S10522   4.194   5.786   5.319 -0.6112 -0.3926 -0.5018
  105SLPC   C2910523   4.125   5.588   5.243  0.3245  0.4930 -0.0115
  105SLPC   H9R10524   4.112   5.483   5.273  2.2660  0.1294 -0.2925
  105SLPC  C21010525   4.096   5.625   5.115 -0.2079  1.3427  0.6220
  105SLPC  H10R10526   4.046   5.566   5.037  0.2779 -1.5130  2.3122
  105SLPC  C21110527   4.131   5.752   5.044 -0.4072 -0.6332 -0.1994
  105SLPC  H11R10528   4.213   5.802   5.101 -2.2723  0.3794  1.7649
  105SLPC  H11S10529   4.045   5.820   5.061  0.1375 -0.1214  0.6032
  105SLPC  C21210530   4.164   5.733   4.899  0.1881 -0.3228  0.4372
  105SLPC  H12R10531   4.177   5.630   4.864 -3.2863 -0.7943  0.2221
  105SLPC  C21310532   4.188   5.835   4.806 -0.1573 -0.6605 -0.2749
  105SLPC  H13R10533   4.216   5.805   4.704  1.8495  0.0934  0.0083
  105SLPC  C21410534   4.179   5.984   4.842 -0.6215  0.0718  0.0094
  105SLPC  H14R10535   4.150   5.995   4.949  0.9125 -0.9083  0.5516
  105SLPC  H14S10536   4.106   6.038   4.779 -0.5794 -0.7955 -0.8079
  105SLPC  C21510537   4.318   6.053   4.826  0.1329 -0.3281 -0.6563
  105SLPC  H15R10538   4.357   6.044   4.722  1.9951  0.8497 -0.1221
  105SLPC  H15S10539   4.383   6.014   4.908 -1.0693 -0.1032  0.4247
  105SLPC  C21610540   4.314   6.203   4.859 -0.1576  0.2216 -0.4184
  105SLPC  H16R10541   4.420   6.237   4.858  0.7232 -2.2678 -1.9280
  105SLPC  H16S10542   4.291   6.208   4.967  2.7442  0.7640  0.2614
  105SLPC  C21710543   4.234   6.305   4.775  0.2956  0.1761 -0.0636
  105SLPC  H17R10544   4.126   6.279   4.770  0.7236 -1.9196  0.3283
  105SLPC  H17S10545   4.260   6.285   4.669  0.6705 -1.5925  0.3302
  105SLPC  C21810546   4.263   6.450   4.815  0.4253  0.5922 -0.5725
  105SLPC  H18R10547   4.368   6.463   4.849 -0.4163  0.0664  2.4774
  105SLPC  H18S10548   4.201   6.474   4.904 -1.5761 -0.6353 -1.5764
  105SLPC  H18T10549   4.248   6.520   4.729 -0.4781 -0.9369 -1.7023
  105SLPC   C3310550   4.466   5.902   5.705 -0.4982 -0.7686 -0.2026
  105SLPC   H3X10551   4.434   6.008   5.693  1.7253  0.0773  0.6343
  105SLPC   H3Y10552   4.380   5.837   5.732 -0.8467  0.1777  1.1144
  105SLPC   C3410553   4.521   5.828   5.577  0.8014 -0.2275  0.0564
  105SLPC   H4X10554   4.619   5.877   5.559 -0.8599  2.3678 -2.8737
  105SLPC   H4Y10555   4.452   5.862   5.496 -0.7992 -0.9535  1.0664
  105SLPC   C3510556   4.518   5.677   5.590 -1.2820  0.4369  0.0197
  105SLPC   H5X10557   4.412   5.657   5.618 -1.1986  0.5055  0.3967
  105SLPC   H5Y10558   4.584   5.637   5.670  1.9587  0.4813 -2.4387
  105SLPC   C3610559   4.559   5.608   5.455 -0.4061 -0.3701 -0.5394
  105SLPC   H6X10560   4.667   5.624   5.434 -0.3400  0.0951  0.1400
  105SLPC   H6Y10561   4.496   5.655   5.377  0.9047  0.6778 -1.0135
  105SLPC   C3710562   4.539   5.458   5.444 -0.0319 -0.4155  0.4114
  105SLPC   H7X10563   4.437   5.438   5.485  0.0983 -0.3214  0.7897
  105SLPC   H7Y10564   4.610   5.411   5.516  0.0246 -1.0590 -0.0570
  105SLPC   C3810565   4.561   5.397   5.307  0.1591  0.4594  0.5869
  105SLPC   H8X10566   4.541   5.288   5.305 -0.5153  0.5610 -2.7440
  105SLPC   H8Y10567   4.664   5.415   5.268  1.0750 -2.6209  1.2621
  105SLPC   C3910568   4.463   5.450   5.201 -0.3456 -0.0707  0.3655
  105SLPC   H9X10569   4.460   5.560   5.213 -1.7062 -0.1698  1.0939
  105SLPC   H9Y10570   4.360   5.420   5.230 -0.8776  1.9969  0.7895
  105SLPC  C31010571   4.489   5.408   5.057 -0.5722  0.8046  0.1011
  105SLPC  H10X10572   4.474   5.298   5.054  1.6349  0.3752  2.0148
  105SLPC  H10Y10573   4.595   5.435   5.038 -1.0834  2.7718 -0.2805
  105SLPC  C31110574   4.399   5.487   4.962 -0.1574 -0.3718  0.5538
  105SLPC  H11X10575   4.422   5.594   4.980  1.4018 -0.9026  1.9404
  105SLPC  H11Y10576   4.291   5.472   4.983 -0.0330 -2.9861 -0.3540
  105SLPC  C31210577   4.410   5.444   4.812  0.0266 -0.5439 -0.3424
  105SLPC  H12X10578   4.348   5.515   4.752 -0.3635 -0.4108  0.2111
  105SLPC  H12Y10579   4.353   5.349   4.814 -1.5621  0.3498  2.0354
  105SLPC  C31310580   4.550   5.407   4.764  0.4460  0.3525  0.3136
  105SLPC  H13X10581   4.564   5.300   4.792  0.5351  0.2812  0.0080
  105SLPC  H13Y10582   4.622   5.466   4.825 -1.0732  0.3759  2.1621
  105SLPC  C31410583   4.558   5.445   4.621  0.3942  0.7973 -0.0178
  105SLPC  H14X10584   4.541   5.550   4.591  1.7635  0.8872 -0.5416
  105SLPC  H14Y10585   4.477   5.385   4.574  2.6989 -1.2685 -1.6799
  105SLPC  C31510586   4.694   5.414   4.564  0.3688  0.3633  0.6730
  105SLPC  H15X10587   4.725   5.322   4.618 -1.3175 -0.4155  0.3656
  105SLPC  H15Y10588   4.771   5.489   4.592 -0.0165  1.3858 -0.8447
  105SLPC  C31610589   4.695   5.388   4.411 -0.1577  0.4873 -0.6335
  105SLPC  H16X10590   4.627   5.472   4.387  0.8257  1.9121  1.3157
  105SLPC  H16Y10591   4.640   5.296   4.380 -1.2719  1.1509 -0.6410
  105SLPC  C31710592   4.836   5.412   4.360  0.0148 -0.8594  0.3547
  105SLPC  H17X10593   4.828   5.432   4.251  0.9722 -1.4661  0.1592
  105SLPC  H17Y10594   4.884   5.504   4.399 -0.1928 -0.4075 -0.4263
  105SLPC  C31810595   4.935   5.286   4.379 -0.1946 -0.4038 -0.0678
  105SLPC  H18X10596   4.911   5.201   4.312 -2.4974  1.5841 -1.9980
  105SLPC  H18Y10597   4.912   5.255   4.483 -0.2310 -1.7856 -0.4690
  105SLPC  H18Z10598   5.041   5.313   4.360  0.6458 -3.5424 -0.3134
  106SLPC     N10599   1.366   4.886   6.810 -0.0309 -0.4900  0.3361
  106SLPC   C1310600   1.253   4.805   6.854  0.2098 -0.1768  0.5825
  106SLPC  H13A10601   1.188   4.859   6.921 -0.8941 -2.0553  1.1050
  106SLPC  H13B10602   1.195   4.768   6.771  0.8711 -1.6660  0.7390
  106SLPC  H13C10603   1.289   4.719   6.909  1.3115 -1.4484 -1.9334
  106SLPC   C1410604   1.445   4.796   6.718  0.5192 -0.1820  0.6799
  106SLPC  H14A10605   1.522   4.848   6.662  0.1767  0.2267  0.5834
  106SLPC  H14B10606   1.482   4.705   6.763 -0.1151 -0.5879  0.3810
  106SLPC  H14C10607   1.379   4.764   6.639 -0.6472 -1.0670  1.9680
  106SLPC   C1510608   1.452   4.923   6.932 -0.2331 -0.1871  0.7498
  106SLPC  H15A10609   1.399   4.988   7.001 -1.8115  0.7745 -1.2745
  106SLPC  H15B10610   1.492   4.836   6.981  1.1715 -0.2220 -0.3883
  106SLPC  H15C10611   1.544   4.966   6.895 -0.0331  0.1173  1.5636
  106SLPC   C1210612   1.320   5.013   6.744  0.4866  0.8931  0.1946
  106SLPC  H12A10613   1.262   5.064   6.820  0.0953 -0.6014  0.9428
  106SLPC  H12B10614   1.254   5.004   6.658  0.0956  3.8598  0.0793
  106SLPC   C1110615   1.428   5.115   6.686  0.2945  0.0114  0.2225
  106SLPC  H11A10616   1.367   5.203   6.654  1.0055  1.1131  1.7248
  106SLPC  H11B10617   1.472   5.052   6.607  0.1186 -1.6122  1.3820
  106SLPC     P10618   1.677   5.167   6.744  0.0633 -0.3035  0.1416
  106SLPC   O1310619   1.763   5.231   6.845 -0.4546 -0.0774 -0.5819
  106SLPC   O1410620   1.710   5.030   6.711  0.6054  0.3893  0.3019
  106SLPC   O1210621   1.525   5.166   6.776 -0.0316  0.2995  0.2074
  106SLPC   O1110622   1.681   5.259   6.618  0.3752  0.4946 -0.6411
  106SLPC    C110623   1.623   5.383   6.608 -0.1827 -0.1359  0.5367
  106SLPC    HA10624   1.514   5.380   6.629 -0.3499  0.2647 -0.2208
  106SLPC    HB10625   1.669   5.455   6.679 -0.3403  1.4403 -0.8858
  106SLPC    C210626   1.622   5.440   6.459  0.6683 -0.2175 -0.2657
  106SLPC    HS10627   1.598   5.547   6.473  0.9051 -0.2171  0.1618
  106SLPC   O2110628   1.534   5.361   6.381  0.1981 -0.3882 -0.4865
  106SLPC   C2110629   1.410   5.391   6.387  0.1476 -0.4918  0.0928
  106SLPC   O2210630   1.356   5.489   6.438  0.0745  0.4564  0.8999
  106SLPC   C2210631   1.343   5.270   6.317  0.4232 -0.1383  0.5740
  106SLPC   H2R10632   1.417   5.206   6.265 -0.6029  1.6977 -3.5987
  106SLPC   H2S10633   1.304   5.207   6.400  1.9659 -0.5323  1.0359
  106SLPC    C310634   1.761   5.413   6.404  0.8582 -0.0863  0.4366
  106SLPC    HX10635   1.797   5.308   6.415  0.8294 -0.6020 -3.1564
  106SLPC    HY10636   1.841   5.471   6.455 -0.4280  2.4700 -0.2739
  106SLPC   O3110637   1.773   5.437   6.261 -0.2121 -0.0921  0.1219
  106SLPC   C3110638   1.764   5.567   6.228 -0.2418 -0.2946  0.4570
  106SLPC   O3210639   1.779   5.670   6.295  0.4506 -0.0564  0.2667
  106SLPC   C3210640   1.744   5.576   6.074  0.9878 -0.2960  0.2838
  106SLPC   H2X10641   1.800   5.488   6.036 -0.7360 -0.7959 -1.2126
  106SLPC   H2Y10642   1.803   5.662   6.036 -0.5760  0.6428 -0.0997
  106SLPC   C2310643   1.223   5.305   6.226  0.0965 -0.6439 -0.5879
  106SLPC   H3R10644   1.157   5.379   6.275  0.4151 -0.6771 -0.1096
  106SLPC   H3S10645   1.168   5.214   6.193  0.0188 -0.4733 -0.9430
  106SLPC   C2410646   1.280   5.370   6.097  0.3497 -0.5552  0.8121
  106SLPC   H4R10647   1.365   5.305   6.065 -0.7554 -0.6551 -2.2681
  106SLPC   H4S10648   1.313   5.471   6.131  2.6387 -0.8087 -0.4578
  106SLPC   C2510649   1.172   5.376   5.984 -0.5722  0.3367  0.2252
  106SLPC   H5R10650   1.097   5.456   6.002  0.8406  2.1230 -1.3944
  106SLPC   H5S10651   1.110   5.284   5.980  1.7753 -1.3274 -0.5863
  106SLPC   C2610652   1.241   5.397   5.843 -0.4396  0.5576 -0.6428
  106SLPC   H6R10653   1.319   5.320   5.824 -0.4964  0.3559 -0.0825
  106SLPC   H6S10654   1.301   5.486   5.869  0.8123 -0.7330  1.1357
  106SLPC   C2710655   1.145   5.412   5.729 -0.4165  0.0357 -0.0196
  106SLPC   H7R10656   1.090   5.507   5.748  0.1032  0.1305  1.0516
  106SLPC   H7S10657   1.071   5.329   5.733  0.3319 -0.6034  1.0429
  106SLPC   C2810658   1.227   5.421   5.592  0.2019  0.3570 -0.4041
  106SLPC   H8R10659   1.310   5.492   5.606  1.9356 -1.2042 -2.1618
  106SLPC   H8S10660   1.154   5.464   5.520 -0.2262  0.9459  0.3773
  106SLPC   C2910661   1.296   5.293   5.544 -0.7491 -0.7524  0.3387
  106SLPC   H9R10662   1.312   5.217   5.622  1.1915 -0.0765  0.6375
  106SLPC  C21010663   1.299   5.251   5.416  0.3876  1.0501  0.0467
  106SLPC  H10R10664   1.340   5.151   5.397 -0.5263  1.2169 -3.2521
  106SLPC  C21110665   1.269   5.330   5.299  0.5870  0.0310  0.3533
  106SLPC  H11R10666   1.347   5.326   5.220  0.2628  1.4501 -0.0781
  106SLPC  H11S10667   1.254   5.439   5.319 -0.8991 -0.2170  0.7342
  106SLPC  C21210668   1.135   5.289   5.235 -0.4961 -0.1744  1.0356
  106SLPC  H12R10669   1.037   5.304   5.284 -2.1196 -2.5261 -1.2015
  106SLPC  C21310670   1.124   5.229   5.111 -0.2455  0.4364 -0.3634
  106SLPC  H13R10671   1.026   5.194   5.078  0.2427 -1.0958 -0.2622
  106SLPC  C21410672   1.232   5.177   5.023 -0.3280 -0.6672 -0.2240
  106SLPC  H14R10673   1.275   5.080   5.055 -1.2458 -0.6107  1.2777
  106SLPC  H14S10674   1.320   5.243   5.038 -1.5915  1.1444 -0.3696
  106SLPC  C21510675   1.214   5.181   4.871 -0.4321  0.2409  0.3282
  106SLPC  H15R10676   1.313   5.151   4.830  1.0421  0.8081  3.2109
  106SLPC  H15S10677   1.185   5.288   4.858 -0.0237  0.3048 -0.0558
  106SLPC  C21610678   1.104   5.088   4.815  0.0098 -0.6348 -0.6092
  106SLPC  H16R10679   1.084   5.118   4.710 -0.0564 -1.6049 -0.8801
  106SLPC  H16S10680   1.015   5.091   4.882  1.7306  0.0074  1.7494
  106SLPC  C21710681   1.148   4.945   4.822  0.3623 -0.5902  0.4978
  106SLPC  H17R10682   1.185   4.919   4.924  2.3239  0.8366  0.2113
  106SLPC  H17S10683   1.241   4.934   4.762  0.6859  0.4664  0.7937
  106SLPC  C21810684   1.033   4.842   4.776  0.2543 -0.0817 -0.1353
  106SLPC  H18R10685   1.069   4.740   4.803  1.9530  0.3511 -0.6062
  106SLPC  H18S10686   1.020   4.850   4.666 -1.5720  0.5941  0.0938
  106SLPC  H18T10687   0.941   4.858   4.836  1.2497  1.0137  1.1617
  106SLPC   C3310688   1.597   5.600   6.042 -0.0956  0.5538  0.1846
  106SLPC   H3X10689   1.546   5.675   6.106  2.6752  2.8406 -0.1323
  106SLPC   H3Y10690   1.536   5.507   6.031 -0.5894  0.9945 -0.9028
  106SLPC   C3410691   1.589   5.646   5.890 -0.0396 -0.0233 -0.7235
  106SLPC   H4X10692   1.660   5.728   5.866 -1.2774  0.7331 -1.9373
  106SLPC   H4Y10693   1.483   5.673   5.870  0.4037  2.8695  0.4513
  106SLPC   C3510694   1.633   5.543   5.791 -0.0102  0.0101 -0.3160
  106SLPC   H5X10695   1.568   5.453   5.783  0.9984 -0.6563 -1.2816
  106SLPC   H5Y10696   1.736   5.509   5.817 -0.4269  0.5906  2.4176
  106SLPC   C3610697   1.637   5.614   5.654  0.8702 -0.4837 -0.0329
  106SLPC   H6X10698   1.673   5.718   5.640  0.0843 -0.4624 -2.2678
  106SLPC   H6Y10699   1.530   5.635   5.632  1.2859  2.0138  0.0338
  106SLPC   C3710700   1.689   5.536   5.535 -0.0314 -0.0136  0.6292
  106SLPC   H7X10701   1.626   5.444   5.537 -2.6804  1.6705  2.6353
  106SLPC   H7Y10702   1.794   5.509   5.559  0.2464 -0.4198 -0.9506
  106SLPC   C3810703   1.677   5.600   5.400 -0.5090 -0.2853  0.1744
  106SLPC   H8X10704   1.764   5.555   5.347  0.7308  1.3346  0.7268
  106SLPC   H8Y10705   1.696   5.710   5.404  1.4172 -0.4887 -1.5340
  106SLPC   C3910706   1.555   5.592   5.308 -0.5270 -0.2498  0.1754
  106SLPC   H9X10707   1.460   5.636   5.343 -0.9303 -1.5355  0.7409
  106SLPC   H9Y10708   1.528   5.485   5.298 -0.5346 -0.1475 -1.2204
  106SLPC  C31010709   1.590   5.639   5.167 -0.7707  0.7029 -0.5685
  106SLPC  H10X10710   1.497   5.623   5.108 -1.5080  1.0041  0.4963
  106SLPC  H10Y10711   1.671   5.570   5.133 -0.2737 -0.8715  3.2822
  106SLPC  C31110712   1.634   5.784   5.151 -0.6180 -0.6703  0.0325
  106SLPC  H11X10713   1.744   5.798   5.151 -0.7212  0.2446 -0.3812
  106SLPC  H11Y10714   1.589   5.846   5.232 -0.0397 -2.2993  1.6660
  106SLPC  C31210715   1.597   5.842   5.012  0.1909 -0.0212  0.2149
  106SLPC  H12X10716   1.589   5.953   5.019 -0.4910 -0.0712  0.2655
  106SLPC  H12Y10717   1.489   5.819   5.000 -0.5085  2.6097  0.7429
  106SLPC  C31310718   1.690   5.800   4.896 -0.4198 -0.4341 -0.3850
  106SLPC  H13X10719   1.739   5.700   4.904  1.1180  0.2807 -0.3943
  106SLPC  H13Y10720   1.775   5.872   4.900  0.3263 -1.3358  1.9245
  106SLPC  C31410721   1.628   5.822   4.762  0.8952 -0.2621 -0.2485
  106SLPC  H14X10722   1.590   5.926   4.752  0.2753 -0.4857 -0.3008
  106SLPC  H14Y10723   1.545   5.750   4.746  1.4760 -1.1653  0.6810
  106SLPC  C31510724   1.732   5.817   4.643  0.6539 -0.2113 -0.5212
  106SLPC  H15X10725   1.753   5.710   4.620  1.8645 -0.1098  0.0304
  106SLPC  H15Y10726   1.824   5.876   4.661  0.0945 -0.1347  2.6148
  106SLPC  C31610727   1.674   5.871   4.515  0.1027 -0.6337 -0.3969
  106SLPC  H16X10728   1.648   5.979   4.520 -0.8402 -0.8110 -1.2684
  106SLPC  H16Y10729   1.580   5.815   4.496  1.3066 -2.0125 -2.5829
  106SLPC  C31710730   1.764   5.845   4.397 -0.5324 -0.0004  0.5340
  106SLPC  H17X10731   1.790   5.737   4.398  1.6173  0.4378 -0.5247
  106SLPC  H17Y10732   1.855   5.902   4.427 -0.1644 -0.6394  0.6565
  106SLPC  C31810733   1.705   5.890   4.262  0.3373 -0.2810  0.5588
  106SLPC  H18X10734   1.766   5.854   4.176  2.0220 -0.0188  1.6081
  106SLPC  H18Y10735   1.696   6.000   4.262 -0.2281 -0.3157 -0.0194
  106SLPC  H18Z10736   1.597   5.863   4.256  0.1665  0.7025 -1.4457
  107SLPC     N10737   3.964   0.864   1.893  0.3091  0.2314 -0.1652
  107SLPC   C1310738   3.964   0.995   1.833  0.0443 -0.4118 -0.0616
  107SLPC  H13A10739   3.877   1.057   1.843  0.5545  0.1665  0.9252
  107SLPC  H13B10740   4.043   1.062   1.862 -0.5207  0.6618 -0.9581
  107SLPC  H13C10741   3.976   0.982   1.726 -0.1009 -3.2159  0.1693
  107SLPC   C1410742   4.070   0.785   1.821 -0.6071 -0.6321 -0.1407
  107SLPC  H14A10743   4.080   0.694   1.878 -2.2196 -0.0130  1.2326
  107SLPC  H14B10744   4.032   0.754   1.725  0.3219  0.7201 -0.9783
  107SLPC  H14C10745   4.159   0.846   1.818 -0.3007 -1.0427  0.4033
  107SLPC   C1510746   3.827   0.799   1.880 -0.6556  0.7398  0.5743
  107SLPC  H15A10747   3.786   0.785   1.781  0.7659  1.8423 -0.2022
  107SLPC  H15B10748   3.829   0.701   1.925  0.8630 -0.9209 -2.7551
  107SLPC  H15C10749   3.753   0.853   1.937 -0.0562  2.3590 -0.1114
  107SLPC   C1210750   4.006   0.874   2.041 -0.2244  0.2169  0.2462
  107SLPC  H12A10751   3.967   0.963   2.087  0.1046 -0.4772  1.9326
  107SLPC  H12B10752   4.112   0.889   2.051 -0.1167 -0.9821  1.1157
  107SLPC   C1110753   3.978   0.750   2.126  0.3229  0.4871 -0.5409
  107SLPC  H11A10754   3.869   0.734   2.139  0.1305  0.0765 -2.3590
  107SLPC  H11B10755   4.021   0.769   2.227  1.0973  0.6853 -0.9018
  107SLPC     P10756   3.942   0.499   2.069  0.1775  0.0247 -0.0605
  107SLPC   O1310757   3.803   0.533   2.028 -0.0910 -0.4999 -0.3191
  107SLPC   O1410758   4.005   0.396   1.985  0.5125  1.0782  0.7463
  107SLPC   O1210759   4.033   0.629   2.070 -0.4478  0.0839 -0.1695
  107SLPC   O1110760   3.945   0.464   2.226 -0.1489  0.9326 -0.0840
  107SLPC    C110761   4.056   0.471   2.320 -0.0386  0.1930  0.7610
  107SLPC    HA10762   4.080   0.368   2.354  1.8649 -0.4277 -2.1269
  107SLPC    HB10763   4.139   0.524   2.270 -0.8117  1.5132  0.8379
  107SLPC    C210764   4.017   0.557   2.443  0.1559 -0.1999  0.0386
  107SLPC    HS10765   4.006   0.664   2.417  0.2103 -0.4006 -0.8415
  107SLPC   O2110766   4.107   0.530   2.547 -0.2545  0.3364  0.2855
  107SLPC   C2110767   4.219   0.604   2.537 -0.1874 -0.0079 -0.1440
  107SLPC   O2210768   4.243   0.685   2.451 -0.7351 -0.9781 -0.1020
  107SLPC   C2210769   4.316   0.565   2.645 -0.0275  0.3647 -0.1059
  107SLPC   H2R10770   4.332   0.455   2.646  0.6047  0.4509  1.9890
  107SLPC   H2S10771   4.407   0.629   2.644  0.7351 -0.6941  0.1514
  107SLPC    C310772   3.874   0.517   2.481  0.5622  0.5583 -0.0637
  107SLPC    HX10773   3.876   0.406   2.487 -1.3519  0.5758  2.2530
  107SLPC    HY10774   3.801   0.545   2.402 -1.4590 -1.2717  1.0275
  107SLPC   O3110775   3.823   0.571   2.604 -0.0741 -0.2969 -0.3005
  107SLPC   C3110776   3.800   0.493   2.708 -0.5678  0.1437 -0.5963
  107SLPC   O3210777   3.816   0.371   2.714 -0.0172 -0.1988 -0.3223
  107SLPC   C3210778   3.717   0.580   2.811 -0.2385 -0.3660 -0.5009
  107SLPC   H2X10779   3.645   0.522   2.873  1.3352 -1.6733  0.1846
  107SLPC   H2Y10780   3.664   0.655   2.749 -0.4638  1.8971  2.2331
  107SLPC   C2310781   4.251   0.600   2.782  0.0355  0.9273  0.7362
  107SLPC   H3R10782   4.155   0.545   2.785  1.0985 -1.1301 -0.4182
  107SLPC   H3S10783   4.222   0.706   2.790 -0.2623  0.8806  0.2922
  107SLPC   C2410784   4.338   0.563   2.902 -0.4133 -0.4143  0.1673
  107SLPC   H4R10785   4.385   0.462   2.899  0.7501  0.0579  1.3983
  107SLPC   H4S10786   4.274   0.570   2.993  1.9247  0.8803  1.8402
  107SLPC   C2510787   4.454   0.662   2.932 -0.2046 -0.0009  0.5637
  107SLPC   H5R10788   4.415   0.765   2.925  1.2074  0.6348  1.5187
  107SLPC   H5S10789   4.532   0.642   2.855  0.8515  1.2493  1.2714
  107SLPC   C2610790   4.523   0.639   3.062  0.2989 -0.0015 -0.3397
  107SLPC   H6R10791   4.565   0.536   3.059 -0.8588 -0.4847 -1.1145
  107SLPC   H6S10792   4.454   0.619   3.147  0.5332 -1.3027 -0.4363
  107SLPC   C2710793   4.626   0.744   3.111  0.0711  0.1622  0.6292
  107SLPC   H7R10794   4.570   0.835   3.140 -1.0466  0.3462 -1.8524
  107SLPC   H7S10795   4.703   0.762   3.033 -0.2452  1.2169  0.5481
  107SLPC   C2810796   4.693   0.675   3.230  0.0230 -0.2266  0.0278
  107SLPC   H8R10797   4.616   0.623   3.290 -1.1246  0.4643 -0.8035
  107SLPC   H8S10798   4.727   0.757   3.297  1.5608 -0.7802 -0.0319
  107SLPC   C2910799   4.801   0.567   3.205 -0.2664 -0.3139  0.0664
  107SLPC   H9R10800   4.768   0.483   3.143 -0.2306 -0.2121 -0.0915
  107SLPC  C21010801   4.919   0.568   3.260 -0.2816 -0.2899  0.1327
  107SLPC  H10R10802   4.988   0.483   3.250 -1.5208 -1.2369 -0.7699
  107SLPC  C21110803   4.989   0.674   3.347  0.5247  0.0780  0.2589
  107SLPC  H11R10804   4.969   0.776   3.306  0.9250 -0.1670 -0.5688
  107SLPC  H11S10805   5.099   0.666   3.330  0.0504 -0.8036 -3.0779
  107SLPC  C21210806   4.951   0.663   3.493 -0.0604 -0.6860  0.1497
  107SLPC  H12R10807   4.848   0.630   3.516  0.2803 -1.4049  0.6987
  107SLPC  C21310808   5.037   0.687   3.592 -0.6967 -0.0010 -0.5199
  107SLPC  H13R10809   4.991   0.687   3.692 -1.2266  0.4174 -0.7592
  107SLPC  C21410810   5.187   0.710   3.594  0.5008 -0.1160 -0.4739
  107SLPC  H14R10811   5.209   0.814   3.626 -0.7439  0.1324 -0.3607
  107SLPC  H14S10812   5.237   0.701   3.496  0.2592 -0.3957 -0.5737
  107SLPC  C21510813   5.257   0.617   3.691 -0.6309 -0.7154  0.1553
  107SLPC  H15R10814   5.218   0.641   3.793  1.5959 -0.9810  1.1352
  107SLPC  H15S10815   5.364   0.646   3.693 -0.0161 -2.7784  2.7653
  107SLPC  C21610816   5.236   0.470   3.661 -0.4784  0.1878  0.4521
  107SLPC  H16R10817   5.268   0.449   3.557 -1.5778 -1.9734  0.4821
  107SLPC  H16S10818   5.127   0.450   3.672 -0.3495 -1.6201 -1.0973
  107SLPC  C21710819   5.321   0.386   3.761  0.1138 -1.0235  0.5726
  107SLPC  H17R10820   5.425   0.425   3.754 -0.9581  1.9711  0.0408
  107SLPC  H17S10821   5.313   0.279   3.729  0.8429 -1.0760  0.5513
  107SLPC  C21810822   5.261   0.395   3.902 -0.0289  0.1776 -0.0839
  107SLPC  H18R10823   5.292   0.492   3.945 -2.7293  0.5270  1.2393
  107SLPC  H18S10824   5.314   0.319   3.963  1.3838  0.3634 -1.0285
  107SLPC  H18T10825   5.151   0.383   3.906 -0.2091 -0.0672 -3.0804
  107SLPC   C3310826   3.817   0.645   2.916  0.5327  0.3631  0.2324
  107SLPC   H3X10827   3.772   0.741   2.949 -0.1786 -0.1543  0.8113
  107SLPC   H3Y10828   3.897   0.682   2.849  0.1658  1.6677  0.4782
  107SLPC   C3410829   3.875   0.551   3.026 -0.2460 -0.3409 -0.3589
  107SLPC   H4X10830   3.917   0.463   2.971  0.6500 -0.0202 -0.2162
  107SLPC   H4Y10831   3.794   0.528   3.098  0.1258  0.1273  0.2190
  107SLPC   C3510832   3.985   0.626   3.096  0.0982  0.1660  0.2208
  107SLPC   H5X10833   3.949   0.716   3.150 -0.6187  0.8317 -1.3164
  107SLPC   H5Y10834   4.065   0.655   3.024  1.2919 -1.7484  0.6903
  107SLPC   C3610835   4.055   0.542   3.204 -0.2489 -0.3293 -0.7448
  107SLPC   H6X10836   4.115   0.461   3.159 -0.2351 -0.0658 -1.2154
  107SLPC   H6Y10837   3.984   0.485   3.268  1.6466  0.0275  1.8117
  107SLPC   C3710838   4.154   0.621   3.289 -0.5314  0.0249  0.1812
  107SLPC   H7X10839   4.107   0.700   3.351 -1.4317  0.8528 -1.4928
  107SLPC   H7Y10840   4.223   0.670   3.217 -2.1078 -0.1451 -1.5198
  107SLPC   C3810841   4.226   0.514   3.386 -0.4688 -0.2030  0.5766
  107SLPC   H8X10842   4.255   0.415   3.345 -2.1634 -0.1450 -0.8600
  107SLPC   H8Y10843   4.156   0.502   3.472 -0.6438  2.9788  1.0106
  107SLPC   C3910844   4.354   0.581   3.450  0.1217 -0.2374 -0.2222
  107SLPC   H9X10845   4.425   0.602   3.368  1.6126  0.0492  1.0936
  107SLPC   H9Y10846   4.398   0.499   3.510  1.4220  0.0986 -0.6911
  107SLPC  C31010847   4.327   0.693   3.558 -0.2945  0.0456 -0.6381
  107SLPC  H10X10848   4.240   0.660   3.620  0.2935 -1.5203 -0.6185
  107SLPC  H10Y10849   4.306   0.791   3.510  0.2448  1.3924  1.7186
  107SLPC  C31110850   4.444   0.716   3.655 -0.1444 -0.6395  0.3872
  107SLPC  H11X10851   4.537   0.743   3.600  0.4015  1.2031  2.1277
  107SLPC  H11Y10852   4.467   0.626   3.716 -0.6076  0.3633  2.0764
  107SLPC  C31210853   4.422   0.833   3.754  0.2894 -0.0567 -1.3153
  107SLPC  H12X10854   4.388   0.927   3.705  1.6574  1.6371  0.7798
  107SLPC  H12Y10855   4.519   0.868   3.795 -0.7170  1.4723 -0.1109
  107SLPC  C31310856   4.333   0.794   3.870  0.1356  0.0022  0.2651
  107SLPC  H13X10857   4.380   0.708   3.922 -1.0825  0.1648  1.7187
  107SLPC  H13Y10858   4.231   0.774   3.832 -0.2284  0.1326  1.1371
  107SLPC  C31410859   4.321   0.905   3.971  0.8191  0.0997  0.5694
  107SLPC  H14X10860   4.421   0.946   3.999  0.8703 -0.5171  1.3433
  107SLPC  H14Y10861   4.282   0.876   4.071 -1.8327  1.7581  0.1071
  107SLPC  C31510862   4.234   1.025   3.927 -0.8212  0.8281  0.1446
  107SLPC  H15X10863   4.132   0.988   3.952 -1.1387  1.8183  0.3598
  107SLPC  H15Y10864   4.233   1.034   3.817  0.0255  4.4781  0.3106
  107SLPC  C31610865   4.268   1.156   3.991  0.3190 -0.1600 -0.2191
  107SLPC  H16X10866   4.251   1.145   4.101 -1.4923  0.2412 -0.4294
  107SLPC  H16Y10867   4.190   1.230   3.964 -1.9017 -1.8781  1.1462
  107SLPC  C31710868   4.402   1.214   3.963 -0.3879 -0.0317 -0.0793
  107SLPC  H17X10869   4.482   1.138   3.974 -1.0655 -0.8068 -0.3650
  107SLPC  H17Y10870   4.446   1.276   4.044  1.8821 -1.5358 -0.0579
  107SLPC  C31810871   4.418   1.298   3.833  0.1250 -0.4872  1.0467
  107SLPC  H18X10872   4.522   1.337   3.832  0.0487 -0.2364  1.8563
  107SLPC  H18Y10873   4.354   1.388   3.841 -1.2657 -0.7316 -4.0611
  107SLPC  H18Z10874   4.384   1.241   3.744 -0.5677  0.2226  0.8544
  108SLPC     N10875   2.306   2.198   2.087  0.1345  0.7087  0.6038
  108SLPC   C1310876   2.370   2.327   2.036 -0.6242 -0.4600  0.6260
  108SLPC  H13A10877   2.335   2.364   1.941  1.4472 -2.4879 -1.0448
  108SLPC  H13B10878   2.342   2.401   2.109  0.7033  1.4274 -0.6637
  108SLPC  H13C10879   2.478   2.335   2.034 -0.6979  1.3400  1.7033
  108SLPC   C1410880   2.301   2.095   1.977  1.2112  0.2969 -0.7636
  108SLPC  H14A10881   2.393   2.045   1.954  1.1255 -0.1762 -0.1054
  108SLPC  H14B10882   2.225   2.024   2.003 -0.4399  2.0637 -0.5152
  108SLPC  H14C10883   2.264   2.140   1.886  2.7306 -0.5114 -1.8212
  108SLPC   C1510884   2.160   2.222   2.125 -0.2110 -1.0926 -0.9096
  108SLPC  H15A10885   2.147   2.303   2.195 -0.7588 -1.2783 -0.7917
  108SLPC  H15B10886   2.105   2.250   2.037 -1.6493 -3.0744 -0.6988
  108SLPC  H15C10887   2.124   2.130   2.169  0.5145 -1.8599 -1.8744
  108SLPC   C1210888   2.373   2.144   2.213  0.3995  0.0388  0.3215
  108SLPC  H12A10889   2.347   2.042   2.239  0.6864 -0.1221 -0.0240
  108SLPC  H12B10890   2.328   2.200   2.294  0.8821 -2.1641  2.2470
  108SLPC   C1110891   2.524   2.133   2.204  0.6627  0.0881 -0.1952
  108SLPC  H11A10892   2.543   2.064   2.119  0.9123  0.6192 -0.5772
  108SLPC  H11B10893   2.567   2.085   2.295 -0.2200  0.0835  0.2353
  108SLPC     P10894   2.625   2.371   2.269 -0.1756  0.3810  0.1199
  108SLPC   O1310895   2.772   2.361   2.299  0.4642 -0.0645  0.3444
  108SLPC   O1410896   2.579   2.500   2.208 -0.4527 -0.3129  0.0399
  108SLPC   O1210897   2.592   2.252   2.170  0.5917  0.2156  0.0463
  108SLPC   O1110898   2.540   2.348   2.401  0.1751 -0.8000 -0.9083
  108SLPC    C110899   2.489   2.461   2.478 -0.4702  0.3790 -0.5831
  108SLPC    HA10900   2.492   2.554   2.417 -2.9771  0.6663 -0.3934
  108SLPC    HB10901   2.381   2.445   2.499 -0.1856 -0.3960  0.3824
  108SLPC    C210902   2.555   2.480   2.620  0.7631  0.5676  0.7397
  108SLPC    HS10903   2.645   2.545   2.617  1.3731 -0.3082 -0.4877
  108SLPC   O2110904   2.581   2.350   2.678  0.8455  0.3094 -0.4583
  108SLPC   C2110905   2.703   2.315   2.678 -1.2596  0.4106 -0.1899
  108SLPC   O2210906   2.798   2.386   2.641  0.0651  0.1817  0.2616
  108SLPC   C2210907   2.714   2.176   2.751  0.1875 -0.2984 -0.6549
  108SLPC   H2R10908   2.610   2.148   2.776  0.4714 -1.0906 -0.3459
  108SLPC   H2S10909   2.763   2.101   2.685  0.5067 -0.5840 -0.1026
  108SLPC    C310910   2.453   2.563   2.707  0.9220  0.5220 -0.3840
  108SLPC    HX10911   2.363   2.504   2.731  0.9996  0.3569 -0.4933
  108SLPC    HY10912   2.412   2.643   2.642 -0.3132  1.1425  1.1067
  108SLPC   O3110913   2.510   2.620   2.829  0.1378 -0.0029 -0.5883
  108SLPC   C3110914   2.566   2.742   2.806  0.7574 -0.0596  0.5932
  108SLPC   O3210915   2.564   2.797   2.695  0.2317  0.3920 -0.5179
  108SLPC   C3210916   2.611   2.810   2.939 -0.5029  0.3126 -0.3117
  108SLPC   H2X10917   2.720   2.790   2.942 -0.2989  1.1590 -1.4998
  108SLPC   H2Y10918   2.566   2.761   3.028 -0.9454 -0.7665 -1.1045
  108SLPC   C2310919   2.813   2.169   2.869  0.0005 -0.0710  0.2950
  108SLPC   H3R10920   2.778   2.090   2.939  0.0594 -0.6756 -0.3542
  108SLPC   H3S10921   2.803   2.264   2.926 -1.0424 -0.9308  1.6071
  108SLPC   C2410922   2.955   2.144   2.823  0.2383  0.2913 -0.2700
  108SLPC   H4R10923   2.987   2.226   2.755 -1.3469 -0.6938 -2.3299
  108SLPC   H4S10924   2.943   2.050   2.764 -0.2650  0.7423 -0.8989
  108SLPC   C2510925   3.057   2.127   2.933  0.5649 -0.2244  0.5984
  108SLPC   H5R10926   3.154   2.122   2.879  1.2891 -2.5418  1.9937
  108SLPC   H5S10927   3.039   2.031   2.985 -1.1055 -1.0915 -1.4296
  108SLPC   C2610928   3.068   2.255   3.016  0.5184  0.0133 -0.4269
  108SLPC   H6R10929   2.981   2.285   3.077  0.0385 -0.9976 -0.5933
  108SLPC   H6S10930   3.068   2.345   2.951 -3.5002  1.1377  0.8241
  108SLPC   C2710931   3.195   2.255   3.099  0.1087  0.3907  0.2604
  108SLPC   H7R10932   3.208   2.356   3.143 -0.1915  0.3444  0.4580
  108SLPC   H7S10933   3.283   2.229   3.037  1.2059  0.0625  1.8699
  108SLPC   C2810934   3.200   2.156   3.222  0.4705 -0.5767 -0.3312
  108SLPC   H8R10935   3.290   2.184   3.281  0.1089 -1.3574  0.6078
  108SLPC   H8S10936   3.205   2.054   3.177  0.9127 -1.6280  1.9614
  108SLPC   C2910937   3.082   2.142   3.324 -0.4095 -0.3396  0.5095
  108SLPC   H9R10938   2.993   2.083   3.298 -0.5050  0.5551 -1.4067
  108SLPC  C21010939   3.071   2.201   3.444 -0.0358  0.3419  0.2812
  108SLPC  H10R10940   2.983   2.173   3.504  0.9196 -0.4069  1.3578
  108SLPC  C21110941   3.175   2.280   3.529  0.3385 -0.1373 -0.6948
  108SLPC  H11R10942   3.254   2.298   3.453  0.3953  1.0138 -0.3841
  108SLPC  H11S10943   3.208   2.223   3.618  1.0904  1.2883 -0.0214
  108SLPC  C21210944   3.138   2.420   3.586  0.8002 -0.0506 -0.0213
  108SLPC  H12R10945   3.187   2.508   3.542 -1.5243  3.1677  3.1969
  108SLPC  C21310946   3.058   2.444   3.700 -0.5801  0.0507  0.2894
  108SLPC  H13R10947   3.045   2.544   3.744 -1.6973 -0.1232  0.3844
  108SLPC  C21410948   2.978   2.339   3.775  0.1448  0.1105  0.0263
  108SLPC  H14R10949   2.982   2.247   3.712  0.7731 -0.2554  0.5893
  108SLPC  H14S10950   2.870   2.363   3.774  0.5480  2.1143 -0.6018
  108SLPC  C21510951   3.031   2.307   3.913 -0.8027  0.8973 -0.5493
  108SLPC  H15R10952   3.137   2.277   3.895 -1.0612  0.3330 -1.1890
  108SLPC  H15S10953   2.976   2.218   3.952 -1.5213  1.5776  0.0111
  108SLPC  C21610954   3.037   2.418   4.028  0.0856 -0.5102 -0.0224
  108SLPC  H16R10955   2.936   2.459   4.049  0.3814  0.3985 -0.3356
  108SLPC  H16S10956   3.091   2.501   3.977 -1.6371  0.2648 -0.6432
  108SLPC  C21710957   3.111   2.371   4.155  0.3304 -0.6257 -0.3161
  108SLPC  H17R10958   3.205   2.322   4.123  1.5345  0.7531  0.9513
  108SLPC  H17S10959   3.049   2.296   4.209 -0.9086  1.1701  0.8608
  108SLPC  C21810960   3.148   2.482   4.253  0.0265 -0.0688 -0.2427
  108SLPC  H18R10961   3.179   2.440   4.351  0.4656 -2.2589 -1.2743
  108SLPC  H18S10962   3.060   2.544   4.281  0.6728  0.4156  0.8073
  108SLPC  H18T10963   3.230   2.543   4.208  3.2287 -3.6207  0.3233
  108SLPC   C3310964   2.584   2.964   2.940  0.7097 -0.6456  0.0915
  108SLPC   H3X10965   2.483   2.989   2.899  0.3851  0.0865  1.2631
  108SLPC   H3Y10966   2.643   3.031   2.874 -0.7413  1.9385  1.2192
  108SLPC   C3410967   2.573   3.018   3.088  0.0155  0.1554 -0.0675
  108SLPC   H4X10968   2.677   3.035   3.122 -0.4559 -1.2014  2.3019
  108SLPC   H4Y10969   2.519   2.942   3.149 -1.3323  1.1791  0.0495
  108SLPC   C3510970   2.512   3.162   3.106 -0.3308  0.0582  0.7091
  108SLPC   H5X10971   2.403   3.151   3.091 -0.0510 -0.1302 -1.4288
  108SLPC   H5Y10972   2.550   3.230   3.027 -2.6986  0.5647 -0.0688
  108SLPC   C3610973   2.551   3.243   3.236  0.6228 -0.3791 -0.7770
  108SLPC   H6X10974   2.504   3.343   3.226 -0.3517 -0.1793  3.6287
  108SLPC   H6Y10975   2.659   3.265   3.246  0.2941  1.2944 -0.6664
  108SLPC   C3710976   2.509   3.175   3.371 -0.0144  0.0378  0.4901
  108SLPC   H7X10977   2.563   3.080   3.390 -0.6998 -0.4100  0.2327
  108SLPC   H7Y10978   2.407   3.131   3.367  0.1879 -0.5243  1.1815
  108SLPC   C3810979   2.517   3.253   3.498  0.4065 -0.4427 -0.0525
  108SLPC   H8X10980   2.453   3.344   3.492 -0.5527 -0.8013  3.2423
  108SLPC   H8Y10981   2.617   3.287   3.532 -0.4303  0.0557  2.0301
  108SLPC   C3910982   2.474   3.174   3.621 -0.0925  0.4551 -0.0892
  108SLPC   H9X10983   2.554   3.100   3.642 -0.2881  0.6469  1.5395
  108SLPC   H9Y10984   2.395   3.104   3.587  0.5897  0.1627 -1.0890
  108SLPC  C31010985   2.432   3.257   3.740 -0.2124  0.1209 -0.3245
  108SLPC  H10X10986   2.345   3.318   3.707 -0.3250 -0.1151 -0.4659
  108SLPC  H10Y10987   2.515   3.327   3.765  0.0003  0.1817 -1.1648
  108SLPC  C31110988   2.400   3.180   3.875  1.1791 -0.0577  0.8268
  108SLPC  H11X10989   2.311   3.117   3.851  0.3581  1.4595 -0.2873
  108SLPC  H11Y10990   2.360   3.250   3.951 -3.5808 -1.3438 -0.1826
  108SLPC  C31210991   2.519   3.108   3.930  0.3154  0.5585  0.6763
  108SLPC  H12X10992   2.594   3.176   3.976  0.8100 -0.5504  1.5740
  108SLPC  H12Y10993   2.565   3.039   3.856  1.1074  2.4586 -0.6687
  108SLPC  C31310994   2.478   3.028   4.052 -0.2810 -0.1878 -0.5115
  108SLPC  H13X10995   2.415   2.942   4.019 -3.4566  0.8512  2.2760
  108SLPC  H13Y10996   2.424   3.091   4.126  2.0089  0.7912  0.4407
  108SLPC  C31410997   2.600   2.955   4.115 -0.7794  0.3130  0.3385
  108SLPC  H14X10998   2.636   3.024   4.195 -3.5595 -0.6137  2.5541
  108SLPC  H14Y10999   2.687   2.932   4.050 -0.9205  1.0377 -0.1184
  108SLPC  C31511000   2.562   2.819   4.175 -0.5134  0.4204  0.6069
  108SLPC  H15X11001   2.538   2.750   4.091 -2.7488  1.7833  0.0508
  108SLPC  H15Y11002   2.475   2.820   4.244 -0.9711 -0.7097  0.0695
  108SLPC  C31611003   2.683   2.762   4.254  0.1765 -0.3790 -0.3384
  108SLPC  H16X11004   2.704   2.838   4.332  1.1740  0.3267 -1.2662
  108SLPC  H16Y11005   2.778   2.777   4.197  1.2898  0.3094  1.6218
  108SLPC  C31711006   2.651   2.632   4.325  0.1659 -0.2112 -0.1565
  108SLPC  H17X11007   2.581   2.565   4.271 -0.1274  0.2052 -0.2973
  108SLPC  H17Y11008   2.599   2.648   4.422  2.1824 -0.7699  1.0706
  108SLPC  C31811009   2.779   2.550   4.379  0.6306  0.1479 -0.1933
  108SLPC  H18X11010   2.835   2.519   4.288  0.8358 -0.4398  0.1260
  108SLPC  H18Y11011   2.731   2.466   4.434 -1.9234  1.7627  0.2195
  108SLPC  H18Z11012   2.845   2.615   4.440 -1.1883  0.7069  1.2514
  109SLPC     N11013   2.272   6.178   1.900  0.7209 -1.0436  0.0206
  109SLPC   C1311014   2.138   6.248   1.860 -0.5017  0.3989  0.0130
  109SLPC  H13A11015   2.161   6.312   1.776  1.4166 -2.0749 -1.4814
  109SLPC  H13B11016   2.061   6.176   1.839  1.4775 -1.7381 -0.3027
  109SLPC  H13C11017   2.107   6.312   1.942  0.6043 -1.3443  1.8774
  109SLPC   C1411018   2.375   6.282   1.927 -0.5199  0.7118  0.4829
  109SLPC  H14A11019   2.405   6.320   1.831 -0.0259  0.1977  0.4249
  109SLPC  H14B11020   2.336   6.361   1.990 -0.1161  1.1437  0.2010
  109SLPC  H14C11021   2.469   6.238   1.958 -1.6426 -2.3718 -0.1430
  109SLPC   C1511022   2.321   6.099   1.784 -0.0984  0.0951 -0.3362
  109SLPC  H15A11023   2.425   6.080   1.808  0.3923  1.8881 -0.9139
  109SLPC  H15B11024   2.265   6.007   1.772 -0.8046 -0.0410  3.0405
  109SLPC  H15C11025   2.314   6.158   1.694 -1.6703  1.6218  0.7200
  109SLPC   C1211026   2.249   6.096   2.021  0.4713  0.0597 -0.2843
  109SLPC  H12A11027   2.151   6.055   2.001 -0.3353  0.5600  2.2395
  109SLPC  H12B11028   2.247   6.155   2.112 -1.1866 -0.2827 -0.0568
  109SLPC   C1111029   2.337   5.980   2.058 -0.1637 -0.7571 -0.6395
  109SLPC  H11A11030   2.350   5.915   1.969 -3.0285 -3.9279  1.0341
  109SLPC  H11B11031   2.271   5.908   2.112  0.3497 -1.8421 -1.4305
  109SLPC     P11032   2.448   6.079   2.269  0.1074  0.0476  0.2275
  109SLPC   O1311033   2.569   6.070   2.349 -0.2535 -0.0134 -0.2351
  109SLPC   O1411034   2.401   6.218   2.250 -0.0433  0.1752 -0.1406
  109SLPC   O1211035   2.462   6.013   2.129 -0.0471  0.4307 -0.2001
  109SLPC   O1111036   2.332   6.000   2.347 -0.5435 -0.0990 -0.3557
  109SLPC    C111037   2.220   6.066   2.410  0.5566  0.6226  0.5650
  109SLPC    HA11038   2.203   6.166   2.365 -0.2032  0.1109 -0.3218
  109SLPC    HB11039   2.129   6.002   2.401 -0.0702  1.2668  1.9266
  109SLPC    C211040   2.236   6.078   2.562 -0.4963  0.0973 -0.6813
  109SLPC    HS11041   2.136   6.094   2.609 -1.1023 -1.2425 -1.4447
  109SLPC   O2111042   2.339   6.176   2.587 -0.2211  0.2813 -0.1909
  109SLPC   C2111043   2.287   6.291   2.611  1.1424 -0.7861 -0.1930
  109SLPC   O2211044   2.168   6.323   2.614  0.4597 -0.1831  0.2157
  109SLPC   C2211045   2.391   6.398   2.622  0.5963  0.8030  0.2458
  109SLPC   H2R11046   2.461   6.386   2.537 -0.1762 -1.5046 -0.1270
  109SLPC   H2S11047   2.345   6.497   2.600  1.4941  0.8280 -1.6621
  109SLPC    C311048   2.283   5.936   2.624  0.1169 -0.3055  0.5734
  109SLPC    HX11049   2.388   5.912   2.599  0.3561  1.6690 -0.5463
  109SLPC    HY11050   2.217   5.852   2.594 -2.0354  1.0057  1.3347
  109SLPC   O3111051   2.271   5.940   2.772  0.6789  0.3493 -0.3983
  109SLPC   C3111052   2.385   5.939   2.845  0.2265 -0.2602 -0.4929
  109SLPC   O3211053   2.496   5.928   2.792  0.3530  0.2043 -0.6996
  109SLPC   C3211054   2.355   5.978   2.983 -0.3862 -0.1706 -0.0090
  109SLPC   H2X11055   2.305   5.894   3.036  0.8243 -1.0272 -0.1854
  109SLPC   H2Y11056   2.282   6.062   2.979 -0.0473  0.0789 -2.0203
  109SLPC   C2311057   2.455   6.397   2.755 -0.4568 -0.1389 -0.2565
  109SLPC   H3R11058   2.527   6.314   2.772  0.7741  1.2495  1.8358
  109SLPC   H3S11059   2.382   6.385   2.838 -0.3140  3.4611  0.5424
  109SLPC   C2411060   2.527   6.525   2.797 -0.1904  0.3307 -0.0776
  109SLPC   H4R11061   2.454   6.608   2.785  0.8026  1.1698 -0.5087
  109SLPC   H4S11062   2.603   6.545   2.718  3.1271  0.0631  2.7919
  109SLPC   C2511063   2.576   6.524   2.947 -0.1974 -0.3717  0.4658
  109SLPC   H5R11064   2.637   6.616   2.960  0.0152 -0.2710 -0.9990
  109SLPC   H5S11065   2.634   6.432   2.971  1.7214  0.7216  0.2579
  109SLPC   C2611066   2.471   6.539   3.056 -0.1388  0.5829  0.0362
  109SLPC   H6R11067   2.410   6.447   3.058  1.2267 -0.3636  2.0533
  109SLPC   H6S11068   2.404   6.622   3.026 -1.2187 -0.6675 -1.1487
  109SLPC   C2711069   2.550   6.545   3.190 -0.8016 -0.2585  0.2566
  109SLPC   H7R11070   2.626   6.626   3.194 -2.4842  1.3780  0.9765
  109SLPC   H7S11071   2.604   6.451   3.210  1.4850  0.0328 -3.5771
  109SLPC   C2811072   2.450   6.558   3.305  1.0775  0.5807 -0.3295
  109SLPC   H8R11073   2.377   6.474   3.310  0.3700  1.2365  1.9741
  109SLPC   H8S11074   2.395   6.651   3.281 -2.5180 -1.7090 -1.8096
  109SLPC   C2911075   2.507   6.577   3.446 -0.4175 -0.0835  0.6617
  109SLPC   H9R11076   2.583   6.657   3.441 -1.0409  0.4512 -2.0174
  109SLPC  C21011077   2.467   6.514   3.559  0.6991 -0.2569 -0.5279
  109SLPC  H10R11078   2.520   6.531   3.654  1.7863 -2.2068 -0.7321
  109SLPC  C21111079   2.356   6.415   3.575  0.4018 -0.0467 -0.0940
  109SLPC  H11R11080   2.310   6.397   3.475 -2.2016  0.9386  0.8424
  109SLPC  H11S11081   2.288   6.482   3.631 -1.4155 -2.1611  0.3675
  109SLPC  C21211082   2.393   6.290   3.650 -0.9549  0.3339 -0.8269
  109SLPC  H12R11083   2.416   6.197   3.595  0.4958  0.0066  0.2725
  109SLPC  C21311084   2.410   6.280   3.789  0.4369 -0.1273  0.4437
  109SLPC  H13R11085   2.447   6.184   3.828  0.7797  0.0824  0.6353
  109SLPC  C21411086   2.394   6.393   3.892  0.3142 -0.4001  0.1450
  109SLPC  H14R11087   2.289   6.412   3.923  0.4849  0.2336  0.3306
  109SLPC  H14S11088   2.435   6.482   3.839 -1.2020 -0.0257 -0.4573
  109SLPC  C21511089   2.486   6.381   4.011 -0.0052 -0.1187 -0.4631
  109SLPC  H15R11090   2.459   6.298   4.080 -0.1810 -0.3601 -0.8203
  109SLPC  H15S11091   2.473   6.471   4.075  3.3554  0.4879 -0.4455
  109SLPC  C21611092   2.637   6.373   3.979 -0.2156 -0.2603  0.1465
  109SLPC  H16R11093   2.676   6.449   3.908  1.3414  1.0239  2.2352
  109SLPC  H16S11094   2.664   6.270   3.948 -0.9331  0.0426 -1.5931
  109SLPC  C21711095   2.723   6.383   4.111 -0.3043  0.5295  0.2138
  109SLPC  H17R11096   2.710   6.295   4.178 -0.5100 -0.3213 -0.9147
  109SLPC  H17S11097   2.701   6.472   4.173  1.8096  2.5396 -1.7569
  109SLPC  C21811098   2.871   6.384   4.073 -0.3264 -0.1218 -1.0877
  109SLPC  H18R11099   2.932   6.333   4.151  0.0004  3.5034  1.3156
  109SLPC  H18S11100   2.914   6.484   4.046  0.5205 -0.4111 -0.8508
  109SLPC  H18T11101   2.887   6.329   3.978  1.9035 -0.3784 -0.6137
  109SLPC   C3311102   2.474   6.033   3.061 -0.8808  0.1217  0.0684
  109SLPC   H3X11103   2.543   6.094   2.998 -1.4693  2.0524  1.1944
  109SLPC   H3Y11104   2.540   5.950   3.094 -2.0420 -0.7765  0.1749
  109SLPC   C3411105   2.436   6.116   3.187 -0.5955  0.0019  0.0219
  109SLPC   H4X11106   2.343   6.075   3.231  0.2926  0.6079  2.6248
  109SLPC   H4Y11107   2.418   6.220   3.152  0.4665 -0.4222 -1.9241
  109SLPC   C3511108   2.551   6.110   3.291 -0.8748 -0.0339  0.8780
  109SLPC   H5X11109   2.542   6.195   3.362  0.0204  0.2541  0.6576
  109SLPC   H5Y11110   2.651   6.123   3.246 -1.1135  0.1651  0.3913
  109SLPC   C3611111   2.555   5.982   3.373  0.0553  0.1943 -0.7124
  109SLPC   H6X11112   2.586   5.895   3.311 -0.5104 -0.1037 -0.5841
  109SLPC   H6Y11113   2.462   5.946   3.421 -0.0712 -0.1346 -1.2030
  109SLPC   C3711114   2.652   5.993   3.488 -0.3532 -0.1462  0.0223
  109SLPC   H7X11115   2.642   6.085   3.550 -0.7067 -0.8037  0.9498
  109SLPC   H7Y11116   2.754   5.984   3.444 -1.1186 -0.8406 -1.6808
  109SLPC   C3811117   2.626   5.884   3.587  0.2496  0.1193  0.3959
  109SLPC   H8X11118   2.638   5.781   3.548 -1.1780 -0.0634  0.3978
  109SLPC   H8Y11119   2.523   5.886   3.628  0.7724 -0.7669  1.8664
  109SLPC   C3911120   2.725   5.889   3.701  0.7176  0.3639 -0.5189
  109SLPC   H9X11121   2.731   5.993   3.740 -0.5426  0.4941 -0.6337
  109SLPC   H9Y11122   2.825   5.860   3.664  0.6987 -0.4596  0.0511
  109SLPC  C31011123   2.690   5.791   3.824 -0.0179 -0.4878  0.4498
  109SLPC  H10X11124   2.779   5.801   3.889 -0.1927 -1.4361  0.8501
  109SLPC  H10Y11125   2.671   5.685   3.798  0.4819 -1.0877  2.4419
  109SLPC  C31111126   2.563   5.837   3.897  0.5689  0.6192 -0.0463
  109SLPC  H11X11127   2.476   5.841   3.828  0.3319  1.0738  0.2722
  109SLPC  H11Y11128   2.562   5.937   3.945  0.2717 -0.0788  1.4507
  109SLPC  C31211129   2.531   5.739   4.005 -0.5510 -0.0337 -1.2262
  109SLPC  H12X11130   2.619   5.738   4.073 -0.7287  2.4596 -0.8589
  109SLPC  H12Y11131   2.516   5.632   3.979 -3.5565 -0.2580  0.8603
  109SLPC  C31311132   2.417   5.782   4.090  0.4187 -0.4943  0.0657
  109SLPC  H13X11133   2.332   5.807   4.023  0.2231  3.8344  1.5955
  109SLPC  H13Y11134   2.437   5.879   4.139  1.5422  0.3101 -1.8553
  109SLPC  C31411135   2.394   5.669   4.194 -0.0204 -0.0777  0.3586
  109SLPC  H14X11136   2.478   5.645   4.263  1.4517  2.6550 -0.2992
  109SLPC  H14Y11137   2.378   5.571   4.146  1.3821 -0.7855  1.2779
  109SLPC  C31511138   2.266   5.693   4.277  0.3025 -0.2808 -0.1224
  109SLPC  H15X11139   2.256   5.608   4.348  1.5233  0.3298  0.8319
  109SLPC  H15Y11140   2.178   5.692   4.210  0.2001 -0.5353  0.0134
  109SLPC  C31611141   2.253   5.831   4.344 -0.9013  0.8276  0.0558
  109SLPC  H16X11142   2.218   5.901   4.265  1.4046 -0.5335 -2.3147
  109SLPC  H16Y11143   2.357   5.856   4.374  0.3463  0.8135 -3.7340
  109SLPC  C31711144   2.173   5.830   4.472 -0.1847 -0.4315 -0.0843
  109SLPC  H17X11145   2.071   5.791   4.457  0.1794 -0.7320 -1.9765
  109SLPC  H17Y11146   2.160   5.934   4.509  1.4727 -0.3479  0.3422
  109SLPC  C31811147   2.244   5.754   4.587  0.2334  0.2674 -0.8263
  109SLPC  H18X11148   2.254   5.647   4.557 -1.9992 -0.5021  0.9413
  109SLPC  H18Y11149   2.186   5.759   4.681  1.1426 -0.9316 -0.1668
  109SLPC  H18Z11150   2.342   5.805   4.601 -0.6990  1.8179  0.4172
  110SLPC     N11151   5.660   0.971   2.019 -0.1103  0.8167  0.8384
  110SLPC   C1311152   5.678   1.093   2.101 -0.5622  0.3436 -0.4926
  110SLPC  H13A11153   5.773   1.077   2.149 -0.8454 -0.5544 -0.2065
  110SLPC  H13B11154   5.671   1.190   2.054 -2.1421  1.7267  2.2792
  110SLPC  H13C11155   5.603   1.092   2.180 -0.5613  0.5796 -0.4860
  110SLPC   C1411156   5.774   0.961   1.918  0.9471  0.3646  0.0761
  110SLPC  H14A11157   5.868   0.947   1.970  0.7862  0.7147  0.4709
  110SLPC  H14B11158   5.767   0.878   1.850  1.7914  1.7684 -1.7975
  110SLPC  H14C11159   5.777   1.046   1.852 -0.6805 -0.2170 -0.7756
  110SLPC   C1511160   5.533   0.980   1.940  0.0085  0.0653 -0.4307
  110SLPC  H15A11161   5.542   1.064   1.872 -0.2483  0.4350 -0.0206
  110SLPC  H15B11162   5.532   0.892   1.879 -0.4581  0.3245 -0.8047
  110SLPC  H15C11163   5.444   0.980   2.001  1.3154  2.4114  1.6775
  110SLPC   C1211164   5.654   0.842   2.105 -0.0362  0.4665 -0.6567
  110SLPC  H12A11165   5.679   0.759   2.040  0.0384 -0.1694  0.1659
  110SLPC  H12B11166   5.553   0.832   2.144 -0.7370  0.8848 -2.2694
  110SLPC   C1111167   5.748   0.835   2.224  0.1451  0.7857  0.3020
  110SLPC  H11A11168   5.738   0.734   2.270 -1.4856  0.7234 -0.1535
  110SLPC  H11B11169   5.702   0.896   2.304 -1.3650  0.6696 -0.4587
  110SLPC     P11170   5.977   0.931   2.282 -0.2942  0.1824  0.0705
  110SLPC   O1311171   6.114   0.939   2.230 -0.0165  0.4294 -0.2094
  110SLPC   O1411172   5.922   1.062   2.321  0.0892 -0.2032  0.2781
  110SLPC   O1211173   5.883   0.860   2.176  0.3581 -0.0454 -0.3888
  110SLPC   O1111174   5.968   0.841   2.408 -0.6087 -0.0805 -0.4084
  110SLPC    C111175   6.006   0.710   2.406  0.2260  0.8217  0.0786
  110SLPC    HA11176   5.917   0.645   2.398  1.3089 -0.4461 -3.0497
  110SLPC    HB11177   6.068   0.686   2.317  1.5031  0.5539  1.0131
  110SLPC    C211178   6.088   0.678   2.529 -0.0228  0.3624  0.3989
  110SLPC    HS11179   6.128   0.574   2.522 -0.7685  0.0850  0.0916
  110SLPC   O2111180   6.011   0.686   2.647 -0.2664 -0.1747  0.4258
  110SLPC   C2111181   5.937   0.581   2.675 -0.4353 -0.8767 -0.7346
  110SLPC   O2211182   5.950   0.469   2.625  0.0058  0.3300  0.0713
  110SLPC   C2211183   5.833   0.621   2.778  0.5070  0.2115  0.1460
  110SLPC   H2R11184   5.828   0.732   2.783  1.3919  0.4310 -2.4968
  110SLPC   H2S11185   5.741   0.594   2.722  1.3532  0.2786 -1.3325
  110SLPC    C311186   6.213   0.769   2.540  0.6919  0.7459  0.5030
  110SLPC    HX11187   6.178   0.874   2.534 -0.9177  0.2184  0.0371
  110SLPC    HY11188   6.294   0.757   2.466  1.7710 -0.9973  1.8815
  110SLPC   O3111189   6.273   0.760   2.673 -0.2240  0.1425  0.3377
  110SLPC   C3111190   6.339   0.638   2.695 -0.6233 -0.3818 -0.0098
  110SLPC   O3211191   6.342   0.550   2.611  0.4138  0.3420 -0.3548
  110SLPC   C3211192   6.368   0.636   2.840 -0.8624 -0.2552 -0.7174
  110SLPC   H2X11193   6.276   0.662   2.895  0.4200  0.9088  0.9705
  110SLPC   H2Y11194   6.447   0.706   2.876 -0.7691 -0.5824 -0.2753
  110SLPC   C2311195   5.861   0.549   2.912  0.3903  0.0779 -0.6110
  110SLPC   H3R11196   5.869   0.441   2.888  0.4030  0.4467 -2.4499
  110SLPC   H3S11197   5.770   0.562   2.975 -0.5678 -0.0570 -1.8958
  110SLPC   C2411198   5.979   0.603   2.986 -0.7146  0.7300  0.2858
  110SLPC   H4R11199   5.952   0.708   3.010 -2.0907  0.7618 -1.2311
  110SLPC   H4S11200   6.075   0.586   2.933 -0.7481  0.1337  0.4029
  110SLPC   C2511201   5.992   0.532   3.120 -0.9788  0.0818 -0.3803
  110SLPC   H5R11202   6.039   0.436   3.091  0.7531  0.8070 -0.1265
  110SLPC   H5S11203   5.901   0.513   3.181  0.6084 -0.4527  1.9729
  110SLPC   C2611204   6.090   0.605   3.218  0.1225 -0.0675  0.5731
  110SLPC   H6R11205   6.040   0.699   3.250 -0.9265 -0.3535 -0.1487
  110SLPC   H6S11206   6.185   0.627   3.165 -1.5731  0.2139 -2.6269
  110SLPC   C2711207   6.120   0.526   3.348  0.1516 -0.0999  0.1733
  110SLPC   H7R11208   6.180   0.439   3.316 -1.5242 -1.0043 -0.6515
  110SLPC   H7S11209   6.019   0.491   3.379 -0.0763 -1.2474 -1.7097
  110SLPC   C2811210   6.201   0.616   3.442  0.5360  0.2035 -0.2987
  110SLPC   H8R11211   6.185   0.555   3.534 -1.8848 -1.9019 -1.9573
  110SLPC   H8S11212   6.145   0.710   3.459  0.1932  0.0408 -0.5096
  110SLPC   C2911213   6.351   0.637   3.417 -0.6719 -0.0886  0.1879
  110SLPC   H9R11214   6.378   0.713   3.342  0.0237  1.6389  2.0938
  110SLPC  C21011215   6.455   0.611   3.499 -0.0601  0.4140 -0.5381
  110SLPC  H10R11216   6.552   0.651   3.466  0.1950 -0.2941 -0.6622
  110SLPC  C21111217   6.444   0.533   3.626 -0.3394 -0.2075 -0.3169
  110SLPC  H11R11218   6.549   0.499   3.641  0.5350  2.7710  1.1697
  110SLPC  H11S11219   6.384   0.440   3.615 -0.4787 -0.1520 -0.0413
  110SLPC  C21211220   6.395   0.609   3.744 -0.6220  0.2157  0.1036
  110SLPC  H12R11221   6.365   0.711   3.715 -0.0474 -0.1247 -1.8789
  110SLPC  C21311222   6.395   0.554   3.866  0.2644  0.4194 -0.3666
  110SLPC  H13R11223   6.362   0.615   3.952  0.3699  0.1560 -0.1406
  110SLPC  C21411224   6.425   0.411   3.903 -0.2421 -0.7590  0.1804
  110SLPC  H14R11225   6.432   0.345   3.814  0.8528  1.0658 -1.1556
  110SLPC  H14S11226   6.327   0.375   3.943 -0.9250  0.1231 -0.6481
  110SLPC  C21511227   6.539   0.400   4.004 -0.4918 -0.0162 -0.1147
  110SLPC  H15R11228   6.633   0.417   3.947  0.0023 -0.5137  0.5373
  110SLPC  H15S11229   6.533   0.296   4.044  1.1942  0.4650  1.5506
  110SLPC  C21611230   6.528   0.485   4.135  0.5707  0.8095  0.2475
  110SLPC  H16R11231   6.484   0.586   4.116  0.5556  0.8764  0.6257
  110SLPC  H16S11232   6.634   0.494   4.166  2.0457 -2.2636 -3.2256
  110SLPC  C21711233   6.454   0.417   4.242 -0.0357  0.8743  0.4228
  110SLPC  H17R11234   6.512   0.324   4.264  0.4112  1.3731  1.4010
  110SLPC  H17S11235   6.358   0.377   4.204  0.4831  0.1120 -0.1080
  110SLPC  C21811236   6.431   0.491   4.373 -0.2893 -0.5807 -0.0397
  110SLPC  H18R11237   6.516   0.542   4.423 -0.3752  0.8339 -1.2504
  110SLPC  H18S11238   6.385   0.427   4.450  3.6856 -1.1341  2.1559
  110SLPC  H18T11239   6.361   0.575   4.353  0.9938  0.7425  0.7315
  110SLPC   C3311240   6.423   0.500   2.884 -0.5331 -0.2847  0.0296
  110SLPC   H3X11241   6.529   0.485   2.854 -0.2741 -0.2029  0.8508
  110SLPC   H3Y11242   6.365   0.416   2.841  0.4484 -1.1854  0.4081
  110SLPC   C3411243   6.405   0.481   3.030 -0.7660  0.8132 -0.1259
  110SLPC   H4X11244   6.299   0.475   3.062 -0.5178 -2.6179  0.4111
  110SLPC   H4Y11245   6.455   0.569   3.076 -0.6766  0.2236  0.9305
  110SLPC   C3511246   6.488   0.365   3.077  0.1079  0.1864 -0.2523
  110SLPC   H5X11247   6.591   0.360   3.036  0.9759 -0.9779  1.9600
  110SLPC   H5Y11248   6.443   0.276   3.026  0.8263  0.8024 -2.0423
  110SLPC   C3611249   6.493   0.364   3.228  0.3826 -0.7065 -0.7577
  110SLPC   H6X11250   6.388   0.366   3.263  0.3430 -0.9769 -0.8635
  110SLPC   H6Y11251   6.551   0.449   3.271  1.1757 -0.8506 -1.5096
  110SLPC   C3711252   6.561   0.243   3.282  0.3436  0.1117  0.7410
  110SLPC   H7X11253   6.660   0.217   3.239 -1.5342 -2.7331 -2.3200
  110SLPC   H7Y11254   6.494   0.158   3.257 -0.8970  1.8665 -2.5139
  110SLPC   C3811255   6.583   0.252   3.432 -0.3108 -0.2258  0.2110
  110SLPC   H8X11256   6.487   0.272   3.483  0.1225  2.9813 -0.0109
  110SLPC   H8Y11257   6.646   0.338   3.461 -1.7453  0.6413  0.8708
  110SLPC   C3911258   6.645   0.124   3.485  0.3307  0.1824  0.0781
  110SLPC   H9X11259   6.742   0.096   3.440  0.2600 -1.9358  1.1140
  110SLPC   H9Y11260   6.578   0.044   3.445  0.2721  0.6009 -0.6821
  110SLPC  C31011261   6.634   0.126   3.643 -0.0088 -0.1862  0.8653
  110SLPC  H10X11262   6.619   0.020   3.674 -1.1035 -0.2667  0.0803
  110SLPC  H10Y11263   6.540   0.177   3.672  0.2351  1.1274 -0.5756
  110SLPC  C31111264   6.757   0.178   3.706 -0.5615  0.0984  0.2277
  110SLPC  H11X11265   6.758   0.289   3.720 -1.5291  0.0179  1.0797
  110SLPC  H11Y11266   6.856   0.155   3.662 -1.9919 -1.9742 -2.2264
  110SLPC  C31211267   6.760   0.142   3.855  0.3980 -0.2565  0.0305
  110SLPC  H12X11268   6.753   0.035   3.883  0.2482 -0.1917  0.2495
  110SLPC  H12Y11269   6.665   0.182   3.897 -0.4237 -1.4492 -0.6459
  110SLPC  C31311270   6.887   0.181   3.934  0.1744  0.1557  0.2093
  110SLPC  H13X11271   6.923   0.280   3.900 -0.6023  0.4481  0.2226
  110SLPC  H13Y11272   6.971   0.115   3.902 -0.2634 -0.3381  0.0512
  110SLPC  C31411273   6.865   0.167   4.080 -0.0448 -0.2699  0.1326
  110SLPC  H14X11274   6.821   0.068   4.105  1.6887 -1.9455 -2.7877
  110SLPC  H14Y11275   6.801   0.252   4.109 -1.6495 -1.6658  0.8722
  110SLPC  C31511276   6.999   0.172   4.157 -0.1746  0.0405 -0.0307
  110SLPC  H15X11277   7.060   0.262   4.133  1.6109 -0.5377  1.9714
  110SLPC  H15Y11278   7.055   0.080   4.128 -0.2134 -0.6913  2.0362
  110SLPC  C31611279   6.978   0.167   4.309  0.2154 -0.1092  1.0585
  110SLPC  H16X11280   6.911   0.081   4.331  0.3821 -0.1071  1.5997
  110SLPC  H16Y11281   6.926   0.258   4.345 -0.2333 -0.3093  0.9249
  110SLPC  C31711282   7.116   0.151   4.376 -0.5761  0.2375 -0.5300
  110SLPC  H17X11283   7.120   0.188   4.481  2.7813  0.0652 -0.4722
  110SLPC  H17Y11284   7.202   0.202   4.326 -0.7334  0.6585 -0.3747
  110SLPC  C31811285   7.152   0.006   4.385  0.1946  0.7318 -1.1618
  110SLPC  H18X11286   7.231  -0.011   4.461 -0.4673  0.0865 -0.6060
  110SLPC  H18Y11287   7.175  -0.040   4.287  2.8244 -0.7775  0.0563
  110SLPC  H18Z11288   7.071  -0.053   4.433  1.5734 -0.6493 -0.4315
  111SLPC     N11289   2.980   4.205   1.811 -0.6072  0.5493  0.0278
  111SLPC   C1311290   2.879   4.257   1.721 -0.5331 -0.7594  0.2404
  111SLPC  H13A11291   2.888   4.364   1.713 -1.2553 -0.7853 -1.3004
  111SLPC  H13B11292   2.902   4.226   1.620 -0.1312 -0.6771  0.3040
  111SLPC  H13C11293   2.778   4.227   1.742 -0.5247 -1.1297 -0.2221
  111SLPC   C1411294   3.108   4.263   1.782 -0.2642 -0.0324  0.7191
  111SLPC  H14A11295   3.141   4.253   1.680  0.5856 -2.5648  1.1636
  111SLPC  H14B11296   3.116   4.368   1.804 -0.1560 -0.0903  0.9714
  111SLPC  H14C11297   3.176   4.215   1.852  0.9873  2.8513  1.6375
  111SLPC   C1511298   2.988   4.056   1.796  0.6127 -0.6254  0.0626
  111SLPC  H15A11299   2.886   4.022   1.804  0.5491 -0.0764  2.1973
  111SLPC  H15B11300   3.040   4.034   1.704 -0.0692 -0.3527 -0.4005
  111SLPC  H15C11301   3.045   4.012   1.876 -0.0741 -1.2730  0.2022
  111SLPC   C1211302   2.940   4.243   1.957 -0.3114 -0.0242  0.7058
  111SLPC  H12A11303   2.951   4.350   1.965  1.5798 -0.2160  1.2153
  111SLPC  H12B11304   3.021   4.200   2.014 -0.0214 -1.2606 -0.5690
  111SLPC   C1111305   2.806   4.207   2.019 -0.3902  0.5506 -0.3977
  111SLPC  H11A11306   2.796   4.234   2.126 -0.2283  0.2639 -0.3087
  111SLPC  H11B11307   2.805   4.096   2.014 -2.4615  0.4568  0.9582
  111SLPC     P11308   2.649   4.402   1.950 -0.5282 -0.0450 -0.2782
  111SLPC   O1311309   2.741   4.488   2.021  0.3457 -0.6255 -0.1405
  111SLPC   O1411310   2.596   4.440   1.818  0.2681 -0.4728  0.4389
  111SLPC   O1211311   2.691   4.256   1.955  0.0521  0.0544 -0.2269
  111SLPC   O1111312   2.519   4.406   2.031 -0.1946  0.0331  0.4854
  111SLPC    C111313   2.491   4.315   2.145  0.0640 -0.1726  0.5519
  111SLPC    HA11314   2.404   4.251   2.118 -0.7000  1.6760 -1.5936
  111SLPC    HB11315   2.584   4.256   2.158  0.3608 -0.3766 -2.1015
  111SLPC    C211316   2.460   4.392   2.274  0.5108  0.8055 -0.3406
  111SLPC    HS11317   2.384   4.469   2.247 -0.5887 -0.2105 -0.2221
  111SLPC   O2111318   2.586   4.452   2.314 -0.3024  0.7522 -0.2074
  111SLPC   C2111319   2.570   4.577   2.358 -0.1834 -0.4640  0.5285
  111SLPC   O2211320   2.469   4.647   2.345 -0.1248  0.1115  0.7611
  111SLPC   C2211321   2.698   4.624   2.423  0.2504 -0.3578 -0.5870
  111SLPC   H2R11322   2.727   4.552   2.502  2.0460  1.5066  0.5348
  111SLPC   H2S11323   2.774   4.619   2.341  0.9595 -0.5473  0.0686
  111SLPC    C311324   2.401   4.300   2.385 -0.1542 -0.2649  0.2502
  111SLPC    HX11325   2.479   4.221   2.389  0.0240 -0.1565 -0.8761
  111SLPC    HY11326   2.307   4.244   2.367 -0.3917  0.5547 -1.1889
  111SLPC   O3111327   2.401   4.368   2.509 -0.4824 -0.3069  0.3712
  111SLPC   C3111328   2.281   4.431   2.546 -0.2194  0.8246  0.5579
  111SLPC   O3211329   2.182   4.428   2.475 -0.2618 -0.0956  0.1233
  111SLPC   C3211330   2.295   4.500   2.683 -0.5034 -1.0418  0.9618
  111SLPC   H2X11331   2.226   4.440   2.747 -0.5838 -0.2605  1.6249
  111SLPC   H2Y11332   2.249   4.600   2.670  1.0307 -0.4486 -0.1127
  111SLPC   C2311333   2.696   4.765   2.495  0.8895 -0.6083 -0.1260
  111SLPC   H3R11334   2.602   4.780   2.552  0.2163 -1.1548 -1.0753
  111SLPC   H3S11335   2.708   4.847   2.421  1.1538  2.1150  2.7275
  111SLPC   C2411336   2.813   4.792   2.588  0.1094 -0.1733  0.0235
  111SLPC   H4R11337   2.906   4.796   2.529 -0.3797  1.2997 -0.7012
  111SLPC   H4S11338   2.804   4.699   2.649 -2.0283 -0.5806 -0.7976
  111SLPC   C2511339   2.800   4.919   2.675 -0.2692 -0.5241 -0.2071
  111SLPC   H5R11340   2.705   4.912   2.733 -0.2946 -0.8502 -0.2864
  111SLPC   H5S11341   2.786   5.003   2.605  0.4084 -0.2541 -0.0280
  111SLPC   C2611342   2.920   4.936   2.766  0.6302  0.1476 -0.0357
  111SLPC   H6R11343   2.938   4.842   2.822 -0.7959  0.4946  1.0560
  111SLPC   H6S11344   2.886   5.005   2.845 -0.3608 -0.8551  0.4367
  111SLPC   C2711345   3.038   5.013   2.708  1.0090 -0.3997  0.6987
  111SLPC   H7R11346   3.006   5.119   2.701  1.4952 -0.0799  2.7148
  111SLPC   H7S11347   3.069   4.966   2.612 -1.3234  0.3883 -0.5005
  111SLPC   C2811348   3.163   5.018   2.803 -0.2897  0.4147  0.3042
  111SLPC   H8R11349   3.144   5.073   2.897  0.9503 -0.1604  0.9209
  111SLPC   H8S11350   3.245   5.070   2.749 -1.7699  0.0140 -2.5360
  111SLPC   C2911351   3.201   4.875   2.846 -0.0932  0.4665 -0.1608
  111SLPC   H9R11352   3.242   4.816   2.763 -0.0785  1.2072 -0.6938
  111SLPC  C21011353   3.190   4.810   2.966  0.1618 -0.3138  0.7365
  111SLPC  H10R11354   3.218   4.704   2.967 -1.5050 -0.7800  0.5833
  111SLPC  C21111355   3.145   4.865   3.099  0.4006  0.2800  0.7296
  111SLPC  H11R11356   3.041   4.901   3.084 -0.7367 -0.8761  4.5255
  111SLPC  H11S11357   3.213   4.952   3.117  3.0061 -1.8057  1.6022
  111SLPC  C21211358   3.151   4.772   3.216  0.5208  0.4735  0.2046
  111SLPC  H12R11359   3.223   4.691   3.198 -0.4917 -0.4132  0.0069
  111SLPC  C21311360   3.062   4.763   3.320  0.2087  0.2657 -0.2241
  111SLPC  H13R11361   3.076   4.685   3.396  0.2802 -0.1524 -0.6597
  111SLPC  C21411362   2.954   4.860   3.365 -0.1420 -0.1507  0.3517
  111SLPC  H14R11363   2.857   4.805   3.372 -0.6308  0.2818 -1.9100
  111SLPC  H14S11364   2.952   4.937   3.285  0.9646  2.0449  2.3334
  111SLPC  C21511365   2.996   4.929   3.495 -0.8695 -0.3747  0.0883
  111SLPC  H15R11366   2.934   5.020   3.509 -0.0239  0.1870  0.2572
  111SLPC  H15S11367   3.094   4.979   3.484 -1.0396  0.3257  1.5006
  111SLPC  C21611368   2.983   4.838   3.626 -0.3728 -0.6413 -0.2066
  111SLPC  H16R11369   3.048   4.748   3.617 -0.0982 -0.4110 -0.5960
  111SLPC  H16S11370   2.879   4.800   3.621 -1.6871  2.6579 -0.4429
  111SLPC  C21711371   3.018   4.898   3.767 -0.3389  0.6960  0.1382
  111SLPC  H17R11372   3.124   4.931   3.758  0.4113 -0.9859  2.0628
  111SLPC  H17S11373   3.009   4.821   3.846  1.0020  0.4171  0.0285
  111SLPC  C21811374   2.934   5.019   3.799  0.2523 -0.8152 -0.3493
  111SLPC  H18R11375   2.957   5.112   3.742 -3.1658 -0.3652 -1.1722
  111SLPC  H18S11376   2.942   5.049   3.906  1.2997  0.0931 -0.6610
  111SLPC  H18T11377   2.826   4.999   3.785 -0.4273  2.3253 -0.4012
  111SLPC   C3311378   2.445   4.518   2.729  0.5960 -0.1195  0.5494
  111SLPC   H3X11379   2.497   4.561   2.641 -0.7955 -2.1589 -1.3810
  111SLPC   H3Y11380   2.493   4.424   2.764 -2.5706 -2.3139 -0.5304
  111SLPC   C3411381   2.461   4.616   2.848 -0.3283  0.6266  0.2826
  111SLPC   H4X11382   2.406   4.578   2.937  1.3412  0.5868  1.3429
  111SLPC   H4Y11383   2.415   4.714   2.824  1.4112  0.6899 -3.6438
  111SLPC   C3511384   2.605   4.666   2.877  0.3628 -0.3986 -0.3168
  111SLPC   H5X11385   2.644   4.699   2.778 -1.1986  0.4419 -0.6735
  111SLPC   H5Y11386   2.661   4.572   2.900 -1.0938 -1.5920 -1.4516
  111SLPC   C3611387   2.627   4.766   2.991 -0.8762 -0.2605  0.4867
  111SLPC   H6X11388   2.599   4.868   2.959  0.4084 -0.3205 -0.9349
  111SLPC   H6Y11389   2.737   4.766   3.009 -0.6559 -0.4802 -0.7479
  111SLPC   C3711390   2.543   4.724   3.108  0.2380 -0.1971 -0.3935
  111SLPC   H7X11391   2.547   4.614   3.118 -3.7561 -0.3432  1.4142
  111SLPC   H7Y11392   2.436   4.754   3.095  0.8540  2.6688  0.4772
  111SLPC   C3811393   2.589   4.789   3.236 -0.4003  0.1218 -0.0220
  111SLPC   H8X11394   2.588   4.899   3.217  2.7891  0.3351  0.6339
  111SLPC   H8Y11395   2.691   4.760   3.266 -0.9971 -2.7083 -0.4615
  111SLPC   C3911396   2.500   4.760   3.354 -0.2286  0.6367 -0.6144
  111SLPC   H9X11397   2.497   4.651   3.376 -0.4962  1.0913  2.0324
  111SLPC   H9Y11398   2.397   4.797   3.334  0.5042  4.1319  1.1262
  111SLPC  C31011399   2.557   4.826   3.488 -0.3097  0.2891 -0.2785
  111SLPC  H10X11400   2.553   4.937   3.483  1.9514  0.3678 -1.3051
  111SLPC  H10Y11401   2.667   4.810   3.488 -0.3214  0.1590  0.3158
  111SLPC  C31111402   2.480   4.776   3.611 -0.2082  0.4528 -0.1240
  111SLPC  H11X11403   2.466   4.666   3.610  0.4648  0.3628 -1.2944
  111SLPC  H11Y11404   2.376   4.814   3.607 -1.5911 -3.0455 -0.5112
  111SLPC  C31211405   2.545   4.816   3.744 -0.4373 -0.3015 -0.1425
  111SLPC  H12X11406   2.548   4.926   3.752 -0.6171 -0.3593  0.8603
  111SLPC  H12Y11407   2.652   4.790   3.757 -0.1752  0.8345  0.0491
  111SLPC  C31311408   2.470   4.764   3.869 -0.2116 -0.8385  0.7070
  111SLPC  H13X11409   2.501   4.659   3.885  1.9659 -0.3363  0.1360
  111SLPC  H13Y11410   2.362   4.782   3.848  0.5054  1.3738 -1.5452
  111SLPC  C31411411   2.490   4.850   4.007 -0.5810 -1.0996  0.5632
  111SLPC  H14X11412   2.423   4.801   4.081 -2.3176  0.9949  0.4973
  111SLPC  H14Y11413   2.448   4.952   3.993  0.0847 -0.9756 -0.7512
  111SLPC  C31511414   2.633   4.869   4.058  0.5939  0.3485 -0.6124
  111SLPC  H15X11415   2.698   4.890   3.970  0.5637 -1.7530 -1.1958
  111SLPC  H15Y11416   2.647   4.765   4.093  1.1426  0.2445 -1.1198
  111SLPC  C31611417   2.645   4.958   4.178 -0.2587  0.6144  0.7203
  111SLPC  H16X11418   2.563   4.930   4.247 -0.0819  0.3228  0.8123
  111SLPC  H16Y11419   2.630   5.066   4.157 -1.1977  0.5480  1.0031
  111SLPC  C31711420   2.780   4.953   4.245 -0.3809 -0.3579  0.0289
  111SLPC  H17X11421   2.850   5.023   4.195 -1.1913 -1.0779 -2.2172
  111SLPC  H17Y11422   2.828   4.853   4.256 -1.4572 -0.7069  2.1587
  111SLPC  C31811423   2.769   5.001   4.391 -0.2511  0.0450 -0.0193
  111SLPC  H18X11424   2.744   5.108   4.377 -0.0735  0.0769 -0.1057
  111SLPC  H18Y11425   2.865   4.979   4.442 -0.6443 -0.8012  0.3752
  111SLPC  H18Z11426   2.687   4.946   4.442  0.5590 -0.4770  0.7558
  112SLPC     N11427   0.013   1.760   1.986  0.2201 -0.6850 -0.1847
  112SLPC   C1311428  -0.134   1.767   2.028 -0.0130  0.1944  0.8798
  112SLPC  H13A11429  -0.198   1.788   1.943 -1.2986 -2.0055  1.2555
  112SLPC  H13B11430  -0.156   1.685   2.093  1.5704  0.4013  1.7204
  112SLPC  H13C11431  -0.149   1.855   2.089  2.2668  1.2042  0.1037
  112SLPC   C1411432   0.044   1.906   1.958  0.2014 -0.7024 -0.8860
  112SLPC  H14A11433   0.046   1.961   2.051  0.0968 -1.5475 -0.3663
  112SLPC  H14B11434   0.134   1.915   1.900  1.2286 -0.2853  0.6983
  112SLPC  H14C11435  -0.032   1.937   1.888 -1.3147 -1.1859  0.4876
  112SLPC   C1511436   0.035   1.672   1.864 -0.2496 -0.8429  0.9286
  112SLPC  H15A11437   0.135   1.633   1.854  0.7201  1.4042  1.0451
  112SLPC  H15B11438  -0.026   1.583   1.863  0.7231 -1.5212  0.0656
  112SLPC  H15C11439  -0.000   1.726   1.777 -1.6330 -1.4226  1.1078
  112SLPC   C1211440   0.103   1.711   2.102 -0.3091  0.4288 -0.3579
  112SLPC  H12A11441   0.205   1.740   2.080  0.6168 -1.0493  1.6978
  112SLPC  H12B11442   0.107   1.603   2.096 -0.7308  0.4249 -0.5922
  112SLPC   C1111443   0.077   1.751   2.250  0.1610  0.7442  0.4873
  112SLPC  H11A11444   0.148   1.704   2.322 -0.0196  0.7352  0.6623
  112SLPC  H11B11445  -0.022   1.727   2.295  0.5858  2.1762  2.3320
  112SLPC     P11446   0.234   1.961   2.237 -0.3592  0.5462  0.1070
  112SLPC   O1311447   0.327   1.868   2.170  0.5547  0.0265 -0.5328
  112SLPC   O1411448   0.225   2.094   2.173  0.0062  0.4769 -0.4315
  112SLPC   O1211449   0.099   1.894   2.258  0.2078 -0.4812 -0.5342
  112SLPC   O1111450   0.273   1.983   2.392  0.0820 -0.1106 -0.3982
  112SLPC    C111451   0.179   2.018   2.494 -0.6250 -0.3764 -1.2161
  112SLPC    HA11452   0.244   2.083   2.557  0.4211 -0.1398 -2.4788
  112SLPC    HB11453   0.091   2.073   2.456  0.2111  1.5360 -0.4919
  112SLPC    C211454   0.128   1.895   2.570 -0.9173 -0.2270  0.3791
  112SLPC    HS11455   0.080   1.819   2.504 -0.6525 -1.4229  1.5234
  112SLPC   O2111456   0.034   1.937   2.671  0.4036 -0.0927 -0.0476
  112SLPC   C2111457  -0.016   1.838   2.746 -0.0936  1.0191 -0.4548
  112SLPC   O2211458  -0.028   1.723   2.708  0.1649  0.2593 -0.1785
  112SLPC   C2211459  -0.054   1.881   2.890  0.2184  0.5435 -0.2427
  112SLPC   H2R11460   0.024   1.949   2.929 -0.4969  1.2634 -0.0401
  112SLPC   H2S11461  -0.150   1.933   2.868  0.2831 -0.3015 -2.8712
  112SLPC    C311462   0.244   1.816   2.623  0.0981 -0.4937  0.1927
  112SLPC    HX11463   0.319   1.790   2.545  0.9312 -0.6243  1.0224
  112SLPC    HY11464   0.201   1.718   2.652 -0.5457  0.1840  1.6403
  112SLPC   O3111465   0.319   1.890   2.720  0.7585 -0.1749  0.4660
  112SLPC   C3111466   0.349   1.824   2.828 -0.5651 -0.1988 -0.3636
  112SLPC   O3211467   0.320   1.706   2.851  0.6839  0.1623 -0.2551
  112SLPC   C3211468   0.401   1.918   2.939 -0.2844  0.4811 -0.7813
  112SLPC   H2X11469   0.370   2.023   2.921 -2.1140  0.4430  1.6557
  112SLPC   H2Y11470   0.511   1.903   2.934 -0.0079  2.3419 -0.9292
  112SLPC   C2311471  -0.070   1.774   2.996 -0.4238  0.3793 -0.0898
  112SLPC   H3R11472   0.012   1.700   3.004  0.5643  1.5010  0.5991
  112SLPC   H3S11473  -0.164   1.716   2.989  0.0748 -0.2470 -2.0630
  112SLPC   C2411474  -0.069   1.851   3.136  0.3656 -0.3444  0.1889
  112SLPC   H4R11475  -0.144   1.933   3.134  1.1034  0.3483  0.3890
  112SLPC   H4S11476   0.028   1.902   3.151 -0.0097 -0.1472  2.2805
  112SLPC   C2511477  -0.094   1.762   3.261  0.2393 -0.4044  0.4117
  112SLPC   H5R11478  -0.011   1.689   3.274  1.4584  1.2455  2.4454
  112SLPC   H5S11479  -0.183   1.695   3.257 -0.0912 -0.0928  1.8623
  112SLPC   C2611480  -0.079   1.844   3.387 -0.4246  0.2420  0.1812
  112SLPC   H6R11481  -0.144   1.934   3.381 -0.3218  0.2633 -0.7291
  112SLPC   H6S11482   0.026   1.880   3.385 -0.9823  1.9890 -1.3514
  112SLPC   C2711483  -0.099   1.757   3.517  0.4605  0.5213 -0.1580
  112SLPC   H7R11484  -0.014   1.686   3.525  0.4360  0.4603 -0.4196
  112SLPC   H7S11485  -0.189   1.692   3.506  1.7622 -1.5652  0.8507
  112SLPC   C2811486  -0.101   1.843   3.641  0.5484 -0.1785 -0.9263
  112SLPC   H8R11487  -0.182   1.918   3.632  0.0789 -0.4142  0.9041
  112SLPC   H8S11488  -0.006   1.900   3.653 -0.6007  1.4443  1.1643
  112SLPC   C2911489  -0.116   1.762   3.770  0.0930  0.1153 -0.0182
  112SLPC   H9R11490  -0.217   1.745   3.810  0.6164 -1.7032  0.5923
  112SLPC  C21011491  -0.022   1.707   3.851  1.3106  0.3565 -0.2672
  112SLPC  H10R11492  -0.057   1.671   3.949  0.9964  1.7921  0.1678
  112SLPC  C21111493   0.129   1.710   3.844  0.3558 -0.0587  0.0546
  112SLPC  H11R11494   0.166   1.815   3.850 -0.1043  0.0570  1.3992
  112SLPC  H11S11495   0.164   1.677   3.744  0.3221  0.4196 -0.1202
  112SLPC  C21211496   0.209   1.631   3.944  0.5890 -0.1840 -0.2360
  112SLPC  H12R11497   0.241   1.533   3.906 -2.0949 -1.5924  0.8922
  112SLPC  C21311498   0.253   1.676   4.063 -1.1014 -0.0525 -0.0093
  112SLPC  H13R11499   0.305   1.603   4.127 -2.2760  1.1442  2.4552
  112SLPC  C21411500   0.209   1.810   4.120  0.2028 -0.2170 -0.0921
  112SLPC  H14R11501   0.148   1.788   4.210 -2.8765 -0.1900 -2.0499
  112SLPC  H14S11502   0.150   1.871   4.048  0.4505 -0.0551 -0.1587
  112SLPC  C21511503   0.319   1.896   4.182 -0.3063 -0.2657 -0.0730
  112SLPC  H15R11504   0.277   1.993   4.215  2.1287  1.8360 -2.5912
  112SLPC  H15S11505   0.409   1.919   4.121  0.8106  0.1916  1.6665
  112SLPC  C21611506   0.373   1.818   4.311  0.2292  0.3601 -0.2355
  112SLPC  H16R11507   0.418   1.723   4.278  1.0189  0.1495  1.3298
  112SLPC  H16S11508   0.281   1.790   4.367 -0.1106 -0.4240 -1.1642
  112SLPC  C21711509   0.451   1.901   4.420 -0.4524 -0.3365  0.6749
  112SLPC  H17R11510   0.397   1.993   4.452 -0.4121 -0.4035  0.9340
  112SLPC  H17S11511   0.550   1.922   4.374 -0.9749  0.1111 -0.2948
  112SLPC  C21811512   0.481   1.826   4.546 -0.2231  0.1757  1.0909
  112SLPC  H18R11513   0.383   1.794   4.587 -0.0907 -2.6388 -0.5322
  112SLPC  H18S11514   0.540   1.894   4.610 -1.0391  1.1665  0.8096
  112SLPC  H18T11515   0.540   1.734   4.524  0.1147  0.9733 -1.7542
  112SLPC   C3311516   0.367   1.881   3.091  0.0177 -0.0780 -0.2400
  112SLPC   H3X11517   0.393   1.781   3.131 -1.0686 -0.8888 -1.4678
  112SLPC   H3Y11518   0.257   1.896   3.095  0.0349 -0.0398  0.1917
  112SLPC   C3411519   0.425   1.987   3.186 -0.1434  0.5098  0.4807
  112SLPC   H4X11520   0.437   2.084   3.133 -0.9604  1.6476  2.2536
  112SLPC   H4Y11521   0.529   1.955   3.206 -0.2189  0.6583  1.1588
  112SLPC   C3511522   0.359   1.990   3.328  0.2202 -0.7653 -0.2287
  112SLPC   H5X11523   0.252   1.969   3.307 -0.0047  1.2255 -1.4109
  112SLPC   H5Y11524   0.377   2.095   3.362  1.1601 -1.0567  0.1877
  112SLPC   C3611525   0.406   1.882   3.427 -0.5742 -0.0360 -0.5473
  112SLPC   H6X11526   0.512   1.902   3.453 -1.6111  2.1657  2.7305
  112SLPC   H6Y11527   0.406   1.788   3.369 -0.3389  0.5121 -1.4623
  112SLPC   C3711528   0.333   1.886   3.563  0.0048  0.0186  0.1347
  112SLPC   H7X11529   0.369   1.798   3.621 -0.0137  0.1314  0.3183
  112SLPC   H7Y11530   0.224   1.891   3.547 -0.1757 -1.0592  0.9276
  112SLPC   C3811531   0.373   2.016   3.641 -0.3425 -0.6458 -0.5645
  112SLPC   H8X11532   0.304   2.031   3.727 -1.1095  1.6928 -1.4884
  112SLPC   H8Y11533   0.349   2.111   3.588  0.8784  0.9249  1.5620
  112SLPC   C3911534   0.517   2.014   3.693  0.5244 -0.1125  0.1308
  112SLPC   H9X11535   0.598   2.030   3.620  1.6709  2.8358  1.8524
  112SLPC   H9Y11536   0.537   1.914   3.738  1.9138 -0.6945 -1.6894
  112SLPC  C31011537   0.540   2.114   3.809 -0.0188 -0.4864 -0.1885
  112SLPC  H10X11538   0.462   2.104   3.887 -0.7160  1.6489 -0.5504
  112SLPC  H10Y11539   0.526   2.218   3.773 -0.0267 -0.8456 -1.2511
  112SLPC  C31111540   0.685   2.124   3.863 -1.0449 -0.0527  0.1142
  112SLPC  H11X11541   0.747   2.157   3.777  1.0946 -2.8877  0.4269
  112SLPC  H11Y11542   0.724   2.024   3.893  2.6218  1.4891  1.0739
  112SLPC  C31211543   0.714   2.209   3.984  0.2841 -0.1138  0.3721
  112SLPC  H12X11544   0.685   2.314   3.960 -0.1218 -0.8509 -2.6627
  112SLPC  H12Y11545   0.825   2.215   3.993  0.3985 -0.4770 -0.7129
  112SLPC  C31311546   0.674   2.159   4.124 -0.5356  0.2934  0.1605
  112SLPC  H13X11547   0.739   2.071   4.145 -1.4015  0.0493  2.1260
  112SLPC  H13Y11548   0.566   2.133   4.116 -0.3710  0.1275 -2.1024
  112SLPC  C31411549   0.693   2.270   4.225 -0.1552 -0.5940  0.3142
  112SLPC  H14X11550   0.629   2.359   4.207  1.0809  0.2292 -0.2250
  112SLPC  H14Y11551   0.800   2.301   4.223 -0.3001 -0.0806  0.3019
  112SLPC  C31511552   0.668   2.210   4.369  0.2301  0.2454  0.4039
  112SLPC  H15X11553   0.732   2.120   4.382  0.5567  0.0177 -2.2240
  112SLPC  H15Y11554   0.560   2.186   4.359  1.1534 -3.8226 -2.4587
  112SLPC  C31611555   0.708   2.321   4.475 -0.1792  0.5768  0.0055
  112SLPC  H16X11556   0.671   2.420   4.440  2.5448  2.5867  2.3589
  112SLPC  H16Y11557   0.818   2.322   4.484  0.0029 -1.1001 -1.3727
  112SLPC  C31711558   0.648   2.283   4.611  0.5443  0.3348 -0.1742
  112SLPC  H17X11559   0.683   2.182   4.643 -3.3470 -0.5773  1.8538
  112SLPC  H17Y11560   0.537   2.277   4.608  0.5877 -0.0576 -1.5338
  112SLPC  C31811561   0.683   2.387   4.716 -0.6069  0.0815 -0.5448
  112SLPC  H18X11562   0.788   2.366   4.746 -1.1916 -0.3105  1.3769
  112SLPC  H18Y11563   0.629   2.378   4.813  1.0858 -0.1024  0.4113
  112SLPC  H18Z11564   0.668   2.493   4.687  1.6867  0.6117  0.0238
  113SAPC     N11565   4.251   2.830   6.126 -0.0741  0.2177 -0.2306
  113SAPC   C1211566   4.130   2.741   6.095 -0.1774 -0.0135  0.1766
  113SAPC  H12A11567   4.158   2.678   6.011 -0.4149  2.2119 -1.6844
  113SAPC  H12B11568   4.045   2.795   6.056 -0.6324 -1.2498 -0.6143
  113SAPC   C1311569   4.291   2.915   6.006  0.6983 -0.0448 -0.3809
  113SAPC  H13A11570   4.206   2.975   5.978  1.8725  1.6807 -0.4293
  113SAPC  H13B11571   4.373   2.979   6.034  0.2064 -0.4789  2.3478
  113SAPC  H13C11572   4.318   2.844   5.928  1.2144 -1.3599  0.9384
  113SAPC   C1411573   4.213   2.920   6.235 -0.1296  0.3447  0.0849
  113SAPC  H14A11574   4.126   2.982   6.215  0.8197  1.3517 -1.0981
  113SAPC  H14B11575   4.180   2.866   6.323 -2.6507  1.9102  0.2134
  113SAPC  H14C11576   4.301   2.979   6.254  1.7425 -1.4658 -2.4950
  113SAPC   C1511577   4.367   2.749   6.171 -0.2863 -0.1645  0.6625
  113SAPC  H15A11578   4.460   2.800   6.193 -0.0352 -0.0102 -0.7015
  113SAPC  H15B11579   4.343   2.693   6.261  0.5614  0.5337  1.3362
  113SAPC  H15C11580   4.392   2.681   6.091  0.8144  0.3861  0.5223
  113SAPC   C1111581   4.073   2.642   6.199  0.1701  0.7266  0.2357
  113SAPC  H11A11582   3.973   2.612   6.160  0.1412  1.7918 -0.5713
  113SAPC  H11B11583   4.061   2.696   6.295  1.1874  3.3409 -1.0027
  113SAPC     P11584   4.186   2.439   6.320  0.0345 -0.1343  0.1248
  113SAPC   O1311585   4.286   2.527   6.386 -0.5121 -0.3867 -0.2112
  113SAPC   O1411586   4.071   2.403   6.404 -0.3117 -0.6280 -0.5539
  113SAPC   O1211587   4.140   2.519   6.199 -0.3918  0.0324 -0.0700
  113SAPC   O1111588   4.255   2.304   6.269  0.0364 -0.4111 -0.2738
  113SAPC    C111589   4.380   2.304   6.193 -0.7259  0.2444 -0.6744
  113SAPC    HA11590   4.441   2.388   6.234 -0.4130 -1.2227  2.0769
  113SAPC    HB11591   4.444   2.216   6.215 -2.5622 -1.2840 -1.1985
  113SAPC    C211592   4.354   2.301   6.042  0.2691 -0.7646 -0.5354
  113SAPC    HS11593   4.360   2.411   6.024  1.6699 -0.3889  1.8009
  113SAPC   O2111594   4.222   2.244   6.020  0.2542 -0.0763  0.3155
  113SAPC   C2111595   4.137   2.319   5.955  0.0809 -0.1396 -0.3074
  113SAPC   O2211596   4.167   2.429   5.907 -0.3229  0.2038 -0.2530
  113SAPC   C2211597   3.996   2.257   5.955  0.3830 -0.3187 -0.1781
  113SAPC   H2R11598   4.012   2.151   5.927  0.1346 -0.5505  0.5274
  113SAPC   H2S11599   3.980   2.253   6.065  0.3272 -0.1427 -0.1794
  113SAPC    C311600   4.450   2.226   5.951 -0.2706 -0.3409  0.0278
  113SAPC    HX11601   4.462   2.117   5.971 -0.9848 -1.1857 -3.3495
  113SAPC    HY11602   4.545   2.278   5.972  0.1794 -0.9443 -0.4539
  113SAPC   O3111603   4.424   2.253   5.811 -0.3738 -0.5294 -0.4010
  113SAPC   C3111604   4.369   2.151   5.733 -0.3287 -0.7531 -0.5964
  113SAPC   O3211605   4.344   2.037   5.779  0.1360 -0.2134  0.1526
  113SAPC   C3211606   4.340   2.195   5.598 -0.5982  0.2153  0.1214
  113SAPC   H2X11607   4.431   2.232   5.546 -0.6791  1.1386  0.6276
  113SAPC   H2Y11608   4.269   2.279   5.610 -1.3423 -0.7026  3.0422
  113SAPC   C2311609   3.887   2.338   5.883 -0.3327  0.0183  0.5467
  113SAPC   H3R11610   3.908   2.357   5.775 -1.7555  0.0885  0.2592
  113SAPC   H3S11611   3.875   2.439   5.927  1.3921  0.2443  0.5551
  113SAPC   C2411612   3.751   2.265   5.876  0.2934 -0.8832 -0.2266
  113SAPC   H4R11613   3.671   2.315   5.818 -0.5736 -1.7064  0.2433
  113SAPC   H4S11614   3.715   2.256   5.981  0.7459 -2.3111 -0.1738
  113SAPC   C2511615   3.758   2.127   5.809 -0.8297 -0.3900 -0.4671
  113SAPC   H5R11616   3.780   2.040   5.872 -1.1680 -2.1715 -2.6892
  113SAPC   C2611617   3.740   2.094   5.680 -0.4303  0.3348  0.5629
  113SAPC   H6R11618   3.739   1.987   5.655  0.1255 -0.7730  4.4722
  113SAPC   C2711619   3.722   2.186   5.566 -0.2413 -0.1730  0.1281
  113SAPC   H7R11620   3.665   2.276   5.597 -0.8206 -0.2126 -0.7792
  113SAPC   H7S11621   3.655   2.131   5.497 -0.6872  2.0084 -1.2713
  113SAPC   C2811622   3.849   2.227   5.490 -0.2495 -0.7295  0.6207
  113SAPC   H8R11623   3.930   2.259   5.556  0.3923 -0.5636 -0.2233
  113SAPC   C2911624   3.865   2.224   5.351 -0.3584  0.1778  0.1169
  113SAPC   H9R11625   3.962   2.250   5.305  0.3333  0.9569  1.9155
  113SAPC  C21011626   3.762   2.176   5.257  0.3379  0.8182  0.7294
  113SAPC  H10R11627   3.674   2.243   5.263  0.2353  0.5444  3.3806
  113SAPC  H10S11628   3.733   2.075   5.294  1.3744  0.0741 -0.3951
  113SAPC  C21111629   3.816   2.145   5.119 -0.2602 -0.3640 -0.3386
  113SAPC  H11R11630   3.921   2.171   5.102  0.0287 -0.6694  0.8771
  113SAPC  C21211631   3.754   2.077   5.014 -0.1466 -0.3902  0.2392
  113SAPC  H12R11632   3.810   2.050   4.924  1.9886 -1.3410  1.7796
  113SAPC  C21311633   3.614   2.028   5.001  0.2251 -0.0042 -0.2950
  113SAPC  H13R11634   3.578   1.978   5.093 -2.4498  0.3606 -1.0647
  113SAPC  H13S11635   3.604   1.947   4.925  1.1993  0.2052 -0.6622
  113SAPC  C21411636   3.525   2.138   4.951 -0.0391 -0.2577  0.6892
  113SAPC  H14R11637   3.478   2.204   5.026 -2.0707  1.9007 -2.2222
  113SAPC  C21511638   3.515   2.184   4.823 -0.1388 -0.5352 -0.6028
  113SAPC  H15R11639   3.433   2.253   4.797  0.6588  0.2301 -1.1253
  113SAPC  C21611640   3.582   2.116   4.705  0.2661 -0.0058 -0.0196
  113SAPC  H16R11641   3.608   2.008   4.716 -3.0236 -0.9477 -0.5147
  113SAPC  H16S11642   3.679   2.160   4.673  1.7963 -2.8064  0.3632
  113SAPC  C21711643   3.482   2.120   4.584 -0.8003 -0.4394 -0.0728
  113SAPC  H17R11644   3.443   2.223   4.570 -1.1137 -0.5078  0.2665
  113SAPC  H17S11645   3.388   2.066   4.609 -0.5927 -0.7320  0.0861
  113SAPC  C21811646   3.544   2.066   4.458 -0.1928  0.8104  0.0055
  113SAPC  H18R11647   3.562   1.959   4.483  2.4379  1.3405  0.5754
  113SAPC  H18S11648   3.645   2.110   4.452  1.5764 -2.3653  2.8565
  113SAPC  C21911649   3.458   2.087   4.330 -0.6401 -0.1855 -0.0548
  113SAPC  H19R11650   3.450   2.197   4.323 -1.0727 -0.1662  0.6358
  113SAPC  H19S11651   3.354   2.052   4.350 -1.2781  0.3802 -2.1325
  113SAPC  C22011652   3.502   2.022   4.198 -0.1109  0.2697 -0.7884
  113SAPC  H20R11653   3.609   2.053   4.192 -0.4375  1.5070 -0.3887
  113SAPC  H20S11654   3.451   2.061   4.108  0.0487  0.1726 -0.9234
  113SAPC  H20T11655   3.501   1.911   4.201  0.9487  0.2621 -0.2179
  113SAPC   C3311656   4.275   2.081   5.513  0.3754 -0.3901 -0.1117
  113SAPC   H3X11657   4.174   2.076   5.559  0.4191  0.4244  0.0827
  113SAPC   H3Y11658   4.331   1.985   5.514 -2.1632 -1.9871 -1.1125
  113SAPC   C3411659   4.250   2.127   5.365 -0.0466 -0.8848 -0.1434
  113SAPC   H4X11660   4.220   2.233   5.349 -0.6149 -1.0979 -0.4980
  113SAPC   H4Y11661   4.166   2.065   5.327  0.5829 -1.1995 -1.0569
  113SAPC   C3511662   4.378   2.101   5.285  0.2900  0.0949 -0.3878
  113SAPC   H5X11663   4.382   1.993   5.260  1.2935 -0.0834  0.4378
  113SAPC   H5Y11664   4.459   2.131   5.355 -1.3104 -0.8812  1.9795
  113SAPC   C3611665   4.382   2.188   5.166  0.5206 -0.4585 -0.1931
  113SAPC   H6X11666   4.484   2.177   5.123  0.4029  0.3226 -0.6958
  113SAPC   H6Y11667   4.379   2.293   5.203  1.6799 -1.0919  1.8628
  113SAPC   C3711668   4.267   2.169   5.065  0.4969  0.0905 -0.3312
  113SAPC   H7X11669   4.173   2.201   5.115  0.0704 -1.1249 -0.3070
  113SAPC   H7Y11670   4.249   2.062   5.042 -0.3661  0.7532 -3.0498
  113SAPC   C3811671   4.273   2.250   4.937 -0.5126  0.0036  0.1261
  113SAPC   H8X11672   4.375   2.236   4.895 -0.6560  1.7740 -0.9420
  113SAPC   H8Y11673   4.262   2.358   4.960 -0.6998  0.0618 -0.2304
  113SAPC   C3911674   4.178   2.214   4.824 -0.5351 -0.3045  0.4043
  113SAPC   H9X11675   4.079   2.264   4.839 -1.7406 -1.7060 -2.1885
  113SAPC   H9Y11676   4.174   2.103   4.816  2.2823 -0.4949  0.8078
  113SAPC  C31011677   4.236   2.253   4.687  0.4411  0.2800 -0.4045
  113SAPC  H10X11678   4.337   2.206   4.679  0.3796  0.1346 -0.3361
  113SAPC  H10Y11679   4.237   2.364   4.692 -0.1312  0.2741 -0.0449
  113SAPC  C31111680   4.147   2.199   4.577 -0.3211 -0.3800 -0.0229
  113SAPC  H11X11681   4.041   2.225   4.596 -0.1974  0.0388  0.0948
  113SAPC  H11Y11682   4.163   2.091   4.558 -1.0458 -0.3171 -1.0478
  113SAPC  C31211683   4.187   2.260   4.437  0.1974 -0.3248  0.5157
  113SAPC  H12X11684   4.297   2.247   4.429  0.2055  0.3756 -0.9285
  113SAPC  H12Y11685   4.183   2.371   4.445  1.3051 -0.0909 -1.4447
  113SAPC  C31311686   4.110   2.198   4.318 -0.5317  0.6938  0.6800
  113SAPC  H13X11687   4.005   2.229   4.337 -1.4923  0.4497 -3.4421
  113SAPC  H13Y11688   4.114   2.090   4.341 -1.4502  0.3074 -0.8331
  113SAPC  C31411689   4.169   2.221   4.185 -0.4060 -0.4441  0.0381
  113SAPC  H14X11690   4.279   2.207   4.190  0.0143  0.4563 -3.5926
  113SAPC  H14Y11691   4.159   2.330   4.163 -0.7285 -0.1298  1.6181
  113SAPC  C31511692   4.093   2.166   4.063  0.3697 -0.3779 -0.6124
  113SAPC  H15X11693   4.002   2.226   4.081  2.6995  2.8137  1.6797
  113SAPC  H15Y11694   4.067   2.058   4.064  0.1259 -0.3376 -1.4587
  113SAPC  C31611695   4.158   2.208   3.929 -0.4042 -0.2497  0.5191
  113SAPC  H16X11696   4.260   2.167   3.912 -0.0715 -1.0857  3.8080
  113SAPC  H16Y11697   4.160   2.319   3.927 -2.5873 -0.1250  1.9171
  113SAPC  C31711698   4.071   2.162   3.818  0.4246  0.0837  0.0140
  113SAPC  H17X11699   3.971   2.207   3.839  0.6188 -0.1030  1.4091
  113SAPC  H17Y11700   4.056   2.052   3.813  2.1032 -0.1177 -1.5473
  113SAPC  C31811701   4.121   2.207   3.687  0.0339  0.5715  1.5306
  113SAPC  H18X11702   4.063   2.171   3.599  2.1998 -1.0793  0.7208
  113SAPC  H18Y11703   4.217   2.153   3.674 -0.6398 -0.1522 -1.0938
  113SAPC  H18Z11704   4.133   2.317   3.672  2.8685  0.2011  0.4591
  114SAPC     N11705   2.188   3.260   7.103  0.3039  0.3251 -0.0371
  114SAPC   C1211706   2.201   3.215   6.959 -0.4525 -0.2096 -0.7313
  114SAPC  H12A11707   2.273   3.135   6.957  1.9006  1.6855  1.5938
  114SAPC  H12B11708   2.258   3.292   6.908  0.3348  0.7335  1.4769
  114SAPC   C1311709   2.121   3.153   7.187  0.1055  0.0961 -0.0092
  114SAPC  H13A11710   2.179   3.062   7.194 -1.7442 -1.1071  0.4515
  114SAPC  H13B11711   2.105   3.186   7.289 -1.2195 -0.7781  0.0911
  114SAPC  H13C11712   2.024   3.125   7.148  0.4012  1.4767 -1.8597
  114SAPC   C1411713   2.325   3.278   7.160  0.8018  0.0235  0.4780
  114SAPC  H14A11714   2.310   3.292   7.266  1.4752 -0.7109  0.6788
  114SAPC  H14B11715   2.391   3.195   7.141  0.8322  0.3775 -1.0877
  114SAPC  H14C11716   2.369   3.362   7.109  0.2100 -0.3118 -0.6315
  114SAPC   C1511717   2.107   3.383   7.120  1.1895  0.1627 -0.7119
  114SAPC  H15A11718   2.100   3.397   7.227  0.0516 -2.8577 -0.2732
  114SAPC  H15B11719   2.148   3.471   7.073  0.3291  0.9753  0.0059
  114SAPC  H15C11720   2.015   3.370   7.065  1.7186  0.8772 -1.7775
  114SAPC   C1111721   2.078   3.167   6.877  0.5963  0.4040  0.6322
  114SAPC  H11A11722   2.113   3.153   6.772  0.0744  1.1784  0.3510
  114SAPC  H11B11723   2.005   3.251   6.875 -1.7806 -1.5463  0.4541
  114SAPC     P11724   2.074   2.900   6.921 -0.0386 -0.0530 -0.1941
  114SAPC   O1311725   2.214   2.916   6.962  0.3237 -0.4960  0.2252
  114SAPC   O1411726   1.986   2.805   6.998  0.5043 -0.1606  0.0017
  114SAPC   O1211727   2.018   3.046   6.937  0.2554  0.2802  0.5556
  114SAPC   O1111728   2.067   2.882   6.758 -0.3040  0.1743 -0.3835
  114SAPC    C111729   1.946   2.914   6.685  0.0664  0.3844 -0.0562
  114SAPC    HA11730   1.851   2.879   6.730  0.9218  0.1776  1.7056
  114SAPC    HB11731   1.932   3.023   6.669  0.2591  0.0481 -2.9652
  114SAPC    C211732   1.934   2.856   6.537 -0.3978 -0.0787 -0.3127
  114SAPC    HS11733   1.874   2.763   6.545 -2.3116  1.0795 -0.3281
  114SAPC   O2111734   2.066   2.839   6.482 -0.0426  0.5747  0.2829
  114SAPC   C2111735   2.069   2.743   6.386 -0.9943 -0.8247  0.0246
  114SAPC   O2211736   1.973   2.672   6.352 -0.6605  0.0666  0.3995
  114SAPC   C2211737   2.219   2.735   6.329  0.4075 -0.0886 -0.4951
  114SAPC   H2R11738   2.264   2.836   6.325 -0.9302  0.5117 -1.2437
  114SAPC   H2S11739   2.281   2.676   6.400 -2.3713 -1.5441  0.8707
  114SAPC    C311740   1.843   2.945   6.444  0.1699 -0.8072 -0.2674
  114SAPC    HX11741   1.895   3.040   6.421 -0.1834 -0.8195 -1.1849
  114SAPC    HY11742   1.754   2.970   6.507  1.2049  0.9380  0.5735
  114SAPC   O3111743   1.803   2.884   6.316 -0.1081 -0.3139  0.5676
  114SAPC   C3111744   1.695   2.821   6.323  0.4973  0.2160 -0.9915
  114SAPC   O3211745   1.612   2.813   6.415  0.4242 -0.6246 -0.2099
  114SAPC   C3211746   1.678   2.753   6.194  0.3173 -0.0994 -0.2765
  114SAPC   H2X11747   1.777   2.718   6.159 -0.3239  0.2460 -2.6118
  114SAPC   H2Y11748   1.625   2.817   6.121 -0.6400 -1.2188 -0.5936
  114SAPC   C2311749   2.230   2.680   6.185 -0.6284  0.1319  0.0348
  114SAPC   H3R11750   2.171   2.586   6.181 -1.1060  0.0664  4.0466
  114SAPC   H3S11751   2.339   2.663   6.168 -0.4092  2.3455 -1.1759
  114SAPC   C2411752   2.175   2.781   6.079  0.3257  0.2085 -0.2597
  114SAPC   H4R11753   2.221   2.878   6.106 -0.9434  0.0969  2.6126
  114SAPC   H4S11754   2.070   2.801   6.107  0.5289 -2.1278  2.7655
  114SAPC   C2511755   2.194   2.742   5.937  0.3688 -0.0140  0.1771
  114SAPC   H5R11756   2.296   2.760   5.901  0.4506  1.2416  0.9627
  114SAPC   C2611757   2.100   2.694   5.851 -0.2832 -0.4576  0.2725
  114SAPC   H6R11758   2.134   2.666   5.750  0.3430  0.2371  0.2823
  114SAPC   C2711759   1.949   2.670   5.880 -0.3596 -0.2516 -0.7357
  114SAPC   H7R11760   1.936   2.644   5.987 -0.3306 -0.5554 -0.8067
  114SAPC   H7S11761   1.922   2.575   5.831  0.4036 -0.8627 -0.0135
  114SAPC   C2811762   1.855   2.782   5.850  0.0890 -0.9912 -0.1889
  114SAPC   H8R11763   1.877   2.875   5.904 -3.8811 -0.0480  0.1041
  114SAPC   C2911764   1.762   2.789   5.755 -0.9884  0.2604  0.0222
  114SAPC   H9R11765   1.709   2.884   5.737 -2.5320 -0.5329  0.2319
  114SAPC  C21011766   1.727   2.670   5.667  0.1324  0.5167 -0.0753
  114SAPC  H10R11767   1.754   2.577   5.721  2.4767  1.3872  0.3784
  114SAPC  H10S11768   1.791   2.668   5.576  0.2403  0.1625  0.0063
  114SAPC  C21111769   1.583   2.675   5.633 -0.5851 -0.3684  0.1340
  114SAPC  H11R11770   1.521   2.655   5.721  0.8265  0.7772  1.4507
  114SAPC  C21211771   1.525   2.708   5.519  0.1387  0.4328 -0.0425
  114SAPC  H12R11772   1.416   2.700   5.507  0.2410 -1.3941  0.0152
  114SAPC  C21311773   1.594   2.753   5.390 -0.3847  0.3451  0.4057
  114SAPC  H13R11774   1.689   2.801   5.421 -1.0183  1.1752  1.1209
  114SAPC  H13S11775   1.549   2.846   5.348 -2.3657 -1.2249 -1.1917
  114SAPC  C21411776   1.605   2.650   5.284  1.0714  0.5366  0.8046
  114SAPC  H14R11777   1.667   2.567   5.321  3.9569  2.5350  0.7112
  114SAPC  C21511778   1.543   2.637   5.167  0.1975  0.7033  0.5030
  114SAPC  H15R11779   1.565   2.550   5.103  2.3073  1.4473  0.1313
  114SAPC  C21611780   1.444   2.736   5.105  0.3519 -0.6568  0.4251
  114SAPC  H16R11781   1.465   2.839   5.141  1.2719 -1.2476  1.6367
  114SAPC  H16S11782   1.343   2.703   5.136  0.1084 -2.0650 -1.6298
  114SAPC  C21711783   1.426   2.730   4.956 -0.2535  0.6348 -0.1416
  114SAPC  H17R11784   1.331   2.785   4.939  0.7663  2.1519 -1.1590
  114SAPC  H17S11785   1.410   2.624   4.925  1.4196  0.5993 -0.9419
  114SAPC  C21811786   1.542   2.784   4.877 -0.6391 -0.2693 -0.3962
  114SAPC  H18R11787   1.633   2.725   4.896  0.3863  0.5690 -2.4154
  114SAPC  H18S11788   1.552   2.890   4.908 -1.6033 -0.9830  2.6620
  114SAPC  C21911789   1.527   2.776   4.727  0.0536  0.2519  0.4354
  114SAPC  H19R11790   1.436   2.826   4.686 -0.1465  0.3425  0.9860
  114SAPC  H19S11791   1.524   2.667   4.707 -0.4133  0.9340 -4.4248
  114SAPC  C22011792   1.651   2.842   4.662 -0.8015 -0.2931  0.4930
  114SAPC  H20R11793   1.662   2.783   4.569 -1.1858 -1.2605  1.0525
  114SAPC  H20S11794   1.743   2.821   4.720 -0.5438  3.1561  1.6166
  114SAPC  H20T11795   1.640   2.952   4.645 -1.7212 -0.3767  0.4797
  114SAPC   C3311796   1.594   2.622   6.211  0.6207 -0.1058  0.2832
  114SAPC   H3X11797   1.486   2.648   6.224  0.6816 -0.3771  1.4861
  114SAPC   H3Y11798   1.617   2.575   6.310  0.5799  2.0174  1.3519
  114SAPC   C3411799   1.607   2.524   6.096 -0.0481 -0.5149 -0.5388
  114SAPC   H4X11800   1.702   2.468   6.100 -1.1607 -2.4417  1.2835
  114SAPC   H4Y11801   1.596   2.583   6.003 -1.3904  1.3135  0.6915
  114SAPC   C3511802   1.501   2.411   6.094 -0.6771 -0.7659 -0.1992
  114SAPC   H5X11803   1.414   2.443   6.156  1.1072 -1.2711  2.7477
  114SAPC   H5Y11804   1.551   2.330   6.152  1.2967 -0.3691 -1.2664
  114SAPC   C3611805   1.452   2.371   5.948 -0.2369  0.1058 -0.7337
  114SAPC   H6X11806   1.407   2.459   5.898  0.2282 -0.4958 -2.3120
  114SAPC   H6Y11807   1.381   2.289   5.970 -0.1701  0.9503  3.2656
  114SAPC   C3711808   1.564   2.313   5.860 -0.4593 -0.0177  0.1588
  114SAPC   H7X11809   1.609   2.243   5.934  1.5124  2.8639  1.8536
  114SAPC   H7Y11810   1.638   2.393   5.838 -2.2364  1.0710 -2.4221
  114SAPC   C3811811   1.513   2.234   5.741 -0.5774 -0.6610  0.4157
  114SAPC   H8X11812   1.426   2.170   5.766  0.6087 -2.0245  1.1972
  114SAPC   H8Y11813   1.593   2.167   5.704 -0.5682 -0.0249 -0.7682
  114SAPC   C3911814   1.495   2.329   5.616 -0.2204  0.3470  0.3590
  114SAPC   H9X11815   1.585   2.393   5.603  0.0216 -0.3628 -2.0003
  114SAPC   H9Y11816   1.403   2.386   5.637  0.3868  1.1870  0.7805
  114SAPC  C31011817   1.476   2.240   5.486 -0.4381  0.1268 -0.1761
  114SAPC  H10X11818   1.398   2.164   5.510 -2.1061  1.9799  0.4522
  114SAPC  H10Y11819   1.572   2.195   5.451 -0.1725 -1.0550  1.9006
  114SAPC  C31111820   1.431   2.325   5.376 -0.4265  0.0819  0.1764
  114SAPC  H11X11821   1.514   2.386   5.336 -0.1817  0.5869  1.4107
  114SAPC  H11Y11822   1.357   2.400   5.413 -1.1678 -1.5748  2.2488
  114SAPC  C31211823   1.372   2.256   5.253 -0.0624  0.4205  0.0932
  114SAPC  H12X11824   1.287   2.192   5.285  1.0883 -0.6224  1.2041
  114SAPC  H12Y11825   1.450   2.188   5.212 -0.1251  0.8055 -0.6805
  114SAPC  C31311826   1.342   2.351   5.135  0.6543  0.5618 -0.4200
  114SAPC  H13X11827   1.433   2.408   5.106 -0.3545  1.7276 -1.3880
  114SAPC  H13Y11828   1.278   2.433   5.172  1.0612  0.5196  0.4137
  114SAPC  C31411829   1.268   2.287   5.020 -0.0878  0.0407  0.1295
  114SAPC  H14X11830   1.165   2.256   5.048 -0.0331 -0.7308 -0.4756
  114SAPC  H14Y11831   1.309   2.186   4.995 -0.8056  0.0056 -0.9851
  114SAPC  C31511832   1.269   2.369   4.887 -0.2784 -0.1341  0.1982
  114SAPC  H15X11833   1.373   2.367   4.850  0.5783 -1.8593  2.4563
  114SAPC  H15Y11834   1.250   2.475   4.915  0.6719  0.1199 -0.0945
  114SAPC  C31611835   1.190   2.304   4.771 -0.1581 -0.4046  0.8312
  114SAPC  H16X11836   1.086   2.292   4.808  0.2210 -0.2232  1.9944
  114SAPC  H16Y11837   1.230   2.203   4.751  1.1792  0.2520 -0.0008
  114SAPC  C31711838   1.185   2.386   4.645 -0.3571  0.6139 -0.6982
  114SAPC  H17X11839   1.290   2.399   4.609 -0.0287 -0.4381 -0.1804
  114SAPC  H17Y11840   1.142   2.488   4.654  1.2276  1.3756 -1.2301
  114SAPC  C31811841   1.106   2.301   4.543  0.6570 -0.4804 -0.1093
  114SAPC  H18X11842   1.163   2.222   4.490  0.4641 -1.1994  0.7433
  114SAPC  H18Y11843   1.078   2.373   4.463  2.6579  1.1006  0.5142
  114SAPC  H18Z11844   1.018   2.261   4.597  0.2162 -0.1201 -0.5499
  115SAPC     N11845   6.132   4.990   7.066 -0.1129 -0.2410  0.1123
  115SAPC   C1211846   6.164   4.949   6.920 -0.0911 -0.0319 -0.0240
  115SAPC  H12A11847   6.230   4.865   6.911  0.9895  0.8083 -0.0798
  115SAPC  H12B11848   6.233   5.023   6.881  0.5605 -1.6103 -2.0180
  115SAPC   C1311849   6.050   4.892   7.132 -0.4564 -0.3207  0.0157
  115SAPC  H13A11850   6.052   4.894   7.240 -0.2856 -1.7248  0.0630
  115SAPC  H13B11851   5.954   4.893   7.084 -0.2888 -0.2403 -0.3161
  115SAPC  H13C11852   6.091   4.797   7.102 -2.2350 -0.5770 -1.8453
  115SAPC   C1411853   6.260   5.016   7.143  0.1871  0.5470  0.6546
  115SAPC  H14A11854   6.347   5.043   7.084 -0.6556  1.4871 -0.1877
  115SAPC  H14B11855   6.243   5.097   7.212  1.2217  1.8554 -0.5645
  115SAPC  H14C11856   6.279   4.924   7.196  1.3331 -0.7254 -1.7681
  115SAPC   C1511857   6.056   5.119   7.061 -0.0774 -0.1225 -0.6297
  115SAPC  H15A11858   6.118   5.196   7.017 -1.3775  0.4865 -1.4484
  115SAPC  H15B11859   5.966   5.105   7.002 -0.0259  1.0894 -1.0322
  115SAPC  H15C11860   6.029   5.157   7.158  1.8335  2.0939 -0.8708
  115SAPC   C1111861   6.059   4.947   6.808 -0.1971  0.3275 -0.1359
  115SAPC  H11A11862   6.104   4.909   6.714 -3.3418 -1.4466 -1.0780
  115SAPC  H11B11863   6.043   5.056   6.787  0.4612  0.4097 -0.2260
  115SAPC     P11864   5.921   4.716   6.817  0.2769 -0.1937 -0.1444
  115SAPC   O1311865   5.975   4.638   6.934  0.5327 -0.7520  0.1468
  115SAPC   O1411866   5.778   4.689   6.787 -0.2942  0.1654  0.6420
  115SAPC   O1211867   5.938   4.876   6.837 -0.3905  0.0061  0.1896
  115SAPC   O1111868   6.010   4.674   6.685 -0.1712  0.2741 -0.2534
  115SAPC    C111869   5.950   4.726   6.562  0.2028 -0.0491  0.0678
  115SAPC    HA11870   5.853   4.675   6.544  0.1933 -1.3112  3.0887
  115SAPC    HB11871   5.935   4.836   6.575 -1.5437 -0.2933  0.3373
  115SAPC    C211872   6.041   4.716   6.441 -0.6038 -0.4028 -0.2338
  115SAPC    HS11873   6.016   4.795   6.368  0.3188 -1.8170 -2.1622
  115SAPC   O2111874   6.047   4.580   6.383 -0.4320 -0.1662 -0.3439
  115SAPC   C2111875   5.954   4.555   6.300 -0.3581  0.1944 -0.1272
  115SAPC   O2211876   5.864   4.629   6.267  0.0515  0.2004  0.0476
  115SAPC   C2211877   5.978   4.413   6.240 -0.4203  0.5462  1.2062
  115SAPC   H2R11878   6.088   4.398   6.229 -0.4349  0.7742  0.7172
  115SAPC   H2S11879   5.956   4.343   6.324  1.4807 -3.1884 -1.1528
  115SAPC    C311880   6.187   4.766   6.466 -0.0189  0.5281 -0.7619
  115SAPC    HX11881   6.233   4.746   6.565 -2.1249  2.5787  0.7301
  115SAPC    HY11882   6.193   4.877   6.475  1.9295  0.3198  1.5692
  115SAPC   O3111883   6.272   4.744   6.352 -0.0439 -0.4605  0.2677
  115SAPC   C3111884   6.336   4.628   6.355 -0.1800  0.7202 -0.4716
  115SAPC   O3211885   6.324   4.550   6.448  0.2790 -0.1882  0.2232
  115SAPC   C3211886   6.425   4.605   6.232  0.3272 -0.4072  0.0636
  115SAPC   H2X11887   6.521   4.554   6.256  0.8211  1.5539  2.7043
  115SAPC   H2Y11888   6.454   4.703   6.187  0.5675 -0.9766 -1.0689
  115SAPC   C2311889   5.902   4.385   6.111  0.6507 -0.4188  0.0838
  115SAPC   H3R11890   5.933   4.466   6.041  1.9547 -1.3682 -0.4796
  115SAPC   H3S11891   5.795   4.408   6.133  0.3489 -2.0616  0.4670
  115SAPC   C2411892   5.920   4.235   6.071  0.5813  0.0471 -0.2902
  115SAPC   H4R11893   5.829   4.219   6.009  0.6667  1.2921 -0.7740
  115SAPC   H4S11894   5.915   4.162   6.154  3.3086  0.0074 -0.0801
  115SAPC   C2511895   6.040   4.222   5.983  0.6198 -0.5324  0.4251
  115SAPC   H5R11896   6.133   4.244   6.037  0.3346 -0.2372  0.7995
  115SAPC   C2611897   6.038   4.221   5.849  0.4184  0.3094 -0.0964
  115SAPC   H6R11898   6.131   4.220   5.790 -0.1064  1.8791 -1.0154
  115SAPC   C2711899   5.920   4.218   5.751  0.0802 -0.6276  0.2667
  115SAPC   H7R11900   5.962   4.214   5.648  0.5526 -2.7015  0.5000
  115SAPC   H7S11901   5.890   4.325   5.752  1.2264 -0.2859 -0.0687
  115SAPC   C2811902   5.815   4.109   5.767  0.5421 -0.1476 -0.4619
  115SAPC   H8R11903   5.857   4.008   5.778  0.2008 -0.3141 -0.6600
  115SAPC   C2911904   5.681   4.124   5.780  0.1255 -0.7116  0.6592
  115SAPC   H9R11905   5.615   4.036   5.789 -3.6500  1.8553  0.4764
  115SAPC  C21011906   5.603   4.252   5.763 -0.5765  0.1388 -0.3578
  115SAPC  H10R11907   5.564   4.264   5.660  1.9375 -1.1456 -1.5576
  115SAPC  H10S11908   5.669   4.342   5.761 -0.3935  0.0486  0.9679
  115SAPC  C21111909   5.495   4.256   5.874 -0.3654  0.1507  0.8284
  115SAPC  H11R11910   5.454   4.163   5.917 -2.4695  0.0108 -1.2863
  115SAPC  C21211911   5.473   4.363   5.962  0.1367  0.3673  0.0603
  115SAPC  H12R11912   5.406   4.336   6.045  1.3670 -0.9096  0.6635
  115SAPC  C21311913   5.533   4.506   5.945  0.0922  0.2350 -0.6163
  115SAPC  H13R11914   5.518   4.534   5.839 -2.7811  0.3684 -0.2492
  115SAPC  H13S11915   5.643   4.506   5.964  0.0174  1.3448 -0.0545
  115SAPC  C21411916   5.457   4.599   6.032 -0.1741  0.4153  0.0282
  115SAPC  H14R11917   5.448   4.562   6.135 -0.2202  1.9011  0.5940
  115SAPC  C21511918   5.387   4.706   5.995  0.0076 -0.0623  0.0155
  115SAPC  H15R11919   5.314   4.754   6.062 -1.8758 -3.4892  0.6910
  115SAPC  C21611920   5.371   4.765   5.855  0.3913 -0.1234  0.1305
  115SAPC  H16R11921   5.446   4.722   5.786  0.4512 -0.5590  0.4626
  115SAPC  H16S11922   5.386   4.876   5.852 -2.0325  0.2248 -1.9194
  115SAPC  C21711923   5.224   4.720   5.813 -0.2344 -0.4276 -0.5284
  115SAPC  H17R11924   5.157   4.752   5.895 -1.2133  0.7784 -1.7485
  115SAPC  H17S11925   5.215   4.609   5.808 -1.4464 -0.3718  0.0245
  115SAPC  C21811926   5.178   4.778   5.676 -0.0048 -0.1882 -1.1470
  115SAPC  H18R11927   5.228   4.723   5.593 -0.3662 -2.5639  0.1103
  115SAPC  H18S11928   5.215   4.883   5.675  2.3133 -0.9474 -2.3547
  115SAPC  C21911929   5.026   4.787   5.636  0.4787 -0.2799 -0.0956
  115SAPC  H19R11930   4.992   4.865   5.564 -1.2708 -2.7559 -2.1445
  115SAPC  H19S11931   4.977   4.807   5.734  2.5242  0.0370  0.9060
  115SAPC  C22011932   4.958   4.652   5.589 -0.3163  0.0663 -0.7705
  115SAPC  H20R11933   4.993   4.614   5.491 -1.0577 -0.2811 -0.9087
  115SAPC  H20S11934   4.850   4.675   5.584 -0.4345  0.1972  1.4269
  115SAPC  H20T11935   4.988   4.577   5.665 -0.1438  0.3265 -0.5776
  115SAPC   C3311936   6.357   4.524   6.118 -0.5057 -0.0932  0.3070
  115SAPC   H3X11937   6.257   4.573   6.117 -0.2345  0.5279  1.7188
  115SAPC   H3Y11938   6.355   4.415   6.139  2.6443 -0.2364  0.2530
  115SAPC   C3411939   6.423   4.570   5.991 -0.5233  0.3799 -0.3009
  115SAPC   H4X11940   6.528   4.539   6.011 -0.5057  1.0070  0.6552
  115SAPC   H4Y11941   6.412   4.680   5.983 -1.0666  0.2412 -1.7324
  115SAPC   C3511942   6.357   4.508   5.871 -0.0350  0.3919 -0.7245
  115SAPC   H5X11943   6.248   4.510   5.894 -0.2295 -1.9983 -1.1479
  115SAPC   H5Y11944   6.385   4.405   5.842  0.4292  0.8579 -2.0037
  115SAPC   C3611945   6.380   4.588   5.746 -0.2033  0.3356  0.4091
  115SAPC   H6X11946   6.489   4.592   5.725 -0.2949  0.9479  0.0034
  115SAPC   H6Y11947   6.347   4.693   5.763 -1.9802  0.1625 -1.4669
  115SAPC   C3711948   6.310   4.552   5.615  0.0026  0.2839 -0.0874
  115SAPC   H7X11949   6.203   4.581   5.624 -0.1562 -0.3503  0.1440
  115SAPC   H7Y11950   6.318   4.441   5.606  0.9438  0.1162  2.0620
  115SAPC   C3811951   6.390   4.597   5.493  0.9589 -0.3641 -0.7873
  115SAPC   H8X11952   6.495   4.563   5.511  1.1130  0.7028  0.4918
  115SAPC   H8Y11953   6.391   4.708   5.491 -1.3339 -0.2961 -0.1325
  115SAPC   C3911954   6.333   4.547   5.365 -0.2691  0.0493  0.1095
  115SAPC   H9X11955   6.223   4.563   5.374 -0.6044 -2.1359  0.5544
  115SAPC   H9Y11956   6.339   4.436   5.366 -0.4065  0.0402  1.0127
  115SAPC  C31011957   6.385   4.622   5.237 -0.4046 -0.0254  0.4839
  115SAPC  H10X11958   6.489   4.592   5.212 -0.2063  2.8534 -2.8420
  115SAPC  H10Y11959   6.379   4.732   5.252  0.2581 -0.0896  1.3237
  115SAPC  C31111960   6.296   4.598   5.108 -0.2518 -0.1781 -0.2226
  115SAPC  H11X11961   6.195   4.635   5.135  1.3808  3.0755  2.1285
  115SAPC  H11Y11962   6.293   4.487   5.098 -0.9311 -0.1928  0.1236
  115SAPC  C31211963   6.360   4.659   4.978  0.6508 -0.2455  0.1783
  115SAPC  H12X11964   6.471   4.661   4.975  0.6276  0.1397 -0.4984
  115SAPC  H12Y11965   6.314   4.760   4.974 -1.3403 -0.9787  2.1999
  115SAPC  C31311966   6.306   4.585   4.850  0.0409  0.2347 -0.7917
  115SAPC  H13X11967   6.197   4.602   4.835 -0.1399 -1.1773 -1.1489
  115SAPC  H13Y11968   6.323   4.476   4.861  1.2418  0.2377 -2.2910
  115SAPC  C31411969   6.380   4.640   4.726  1.1958 -0.4973 -0.2108
  115SAPC  H14X11970   6.488   4.612   4.730  1.3246 -0.0957 -0.7628
  115SAPC  H14Y11971   6.376   4.750   4.736 -2.1789 -0.7200  2.6354
  115SAPC  C31511972   6.324   4.608   4.590 -0.2076  0.6575  0.6474
  115SAPC  H15X11973   6.309   4.499   4.580 -2.7140  0.8003  2.1204
  115SAPC  H15Y11974   6.407   4.633   4.521  0.2988 -2.1648  0.1332
  115SAPC  C31611975   6.192   4.682   4.559 -0.3486  0.3307 -0.0295
  115SAPC  H16X11976   6.211   4.790   4.577  1.7556  0.3108 -1.6327
  115SAPC  H16Y11977   6.118   4.652   4.636  1.5897 -0.5071  1.5767
  115SAPC  C31711978   6.132   4.665   4.414  0.4517 -0.0412 -0.3896
  115SAPC  H17X11979   6.221   4.666   4.348  1.7438  3.8506  1.0979
  115SAPC  H17Y11980   6.076   4.759   4.395  0.6055  0.1437  0.0491
  115SAPC  C31811981   6.039   4.545   4.387 -0.3672 -0.3384  0.7363
  115SAPC  H18X11982   5.948   4.552   4.451 -1.1964 -1.1444 -0.3204
  115SAPC  H18Y11983   6.089   4.449   4.413 -1.3485 -1.2207 -0.5216
  115SAPC  H18Z11984   6.007   4.537   4.281 -0.3641  1.2040  0.5943
  116SAPC     N11985   4.138   3.472   6.170  0.4621 -0.1456 -0.4890
  116SAPC   C1211986   4.078   3.596   6.233  0.1186  0.0141 -0.2134
  116SAPC  H12A11987   4.139   3.611   6.321  0.5163 -0.7196 -0.3566
  116SAPC  H12B11988   3.977   3.584   6.270  0.4148  2.1417  1.4523
  116SAPC   C1311989   4.279   3.495   6.136  0.3020  1.3037 -0.4636
  116SAPC  H13A11990   4.342   3.505   6.222 -0.6692  0.2388  0.4154
  116SAPC  H13B11991   4.312   3.402   6.092 -0.6293  0.6380  0.1949
  116SAPC  H13C11992   4.294   3.573   6.063  2.2473  0.9749 -0.4637
  116SAPC   C1411993   4.130   3.360   6.269 -0.0180  0.1079  0.2372
  116SAPC  H14A11994   4.173   3.269   6.229 -1.3426  0.4568 -2.1639
  116SAPC  H14B11995   4.199   3.389   6.346  1.1905 -0.0466 -0.7671
  116SAPC  H14C11996   4.027   3.335   6.291  0.2227 -3.1141 -1.6489
  116SAPC   C1511997   4.072   3.416   6.052  0.2505 -0.9471  0.4221
  116SAPC  H15A11998   3.965   3.401   6.062 -0.2408  1.6298 -0.2272
  116SAPC  H15B11999   4.074   3.493   5.977 -0.5379 -0.3617  0.9813
  116SAPC  H15C12000   4.121   3.328   6.014  0.6367 -2.4387  4.0040
  116SAPC   C1112001   4.088   3.731   6.163  0.1718 -0.5980 -0.3906
  116SAPC  H11A12002   4.019   3.791   6.226 -0.2498 -0.7622 -0.6857
  116SAPC  H11B12003   4.046   3.722   6.060  0.2545  2.3329 -0.7581
  116SAPC     P12004   4.287   3.879   6.252  0.1280  0.0830  0.0887
  116SAPC   O1312005   4.231   3.876   6.388  0.1175 -0.2843  0.1690
  116SAPC   O1412006   4.429   3.860   6.250 -0.7070  0.1019  0.1566
  116SAPC   O1212007   4.223   3.775   6.161  0.0247 -0.3446 -0.5531
  116SAPC   O1112008   4.244   4.010   6.174  0.2392 -0.3543 -0.0119
  116SAPC    C112009   4.256   4.007   6.028  0.9576  0.0766  0.5270
  116SAPC    HA12010   4.347   3.951   5.995  1.7399  1.4449  0.3041
  116SAPC    HB12011   4.161   3.966   5.987 -0.3976 -0.9494  4.3143
  116SAPC    C212012   4.279   4.153   5.974  0.4554  0.4754 -0.2596
  116SAPC    HS12013   4.363   4.201   6.028  2.3118 -2.5299 -0.2056
  116SAPC   O2112014   4.149   4.216   5.974  0.4634  0.7246  0.1705
  116SAPC   C2112015   4.144   4.342   5.988 -0.1327  0.8260  0.0372
  116SAPC   O2212016   4.231   4.413   6.028  0.1007  0.1598 -0.1615
  116SAPC   C2212017   4.004   4.388   5.955  0.3849  0.2278 -0.5362
  116SAPC   H2R12018   3.927   4.331   6.012  0.8022  0.7251  0.5452
  116SAPC   H2S12019   3.998   4.496   5.979  1.0844  0.2734 -0.5265
  116SAPC    C312020   4.328   4.144   5.828 -1.1183  0.0612  0.7463
  116SAPC    HX12021   4.248   4.119   5.756 -1.1832  0.7914  0.5617
  116SAPC    HY12022   4.392   4.053   5.825 -1.8563 -0.4574 -1.7707
  116SAPC   O3112023   4.405   4.263   5.788  0.3177  0.2276 -0.9036
  116SAPC   C3112024   4.535   4.265   5.763 -0.4434 -0.3553  0.6318
  116SAPC   O3212025   4.611   4.171   5.789  0.4448 -0.3197  0.8328
  116SAPC   C3212026   4.573   4.397   5.696  0.3774 -0.3882  0.5548
  116SAPC   H2X12027   4.681   4.410   5.717  0.2206  0.8924  0.6429
  116SAPC   H2Y12028   4.517   4.473   5.755 -0.4674 -1.2112  0.8480
  116SAPC   C2312029   3.975   4.373   5.802 -0.2518 -0.1761 -0.9281
  116SAPC   H3R12030   3.999   4.267   5.778 -0.0026 -0.9792  2.2789
  116SAPC   H3S12031   4.050   4.427   5.741 -0.7471 -0.3238 -1.6810
  116SAPC   C2412032   3.829   4.399   5.763 -0.4507 -0.1317  0.0085
  116SAPC   H4R12033   3.783   4.305   5.801  3.0135 -1.4147  1.4545
  116SAPC   H4S12034   3.831   4.397   5.651  0.6085  0.6352 -0.0029
  116SAPC   C2512035   3.770   4.525   5.808 -0.0382  1.1022  0.0641
  116SAPC   H5R12036   3.758   4.531   5.917 -0.4971  1.4819 -0.0046
  116SAPC   C2612037   3.745   4.630   5.737  0.6259  0.3397 -0.0714
  116SAPC   H6R12038   3.716   4.721   5.790 -2.0429  0.4569 -1.5844
  116SAPC   C2712039   3.770   4.647   5.593  0.0821 -0.2086 -0.0434
  116SAPC   H7R12040   3.826   4.558   5.556 -0.8885 -1.5126  1.4622
  116SAPC   H7S12041   3.842   4.730   5.576 -1.9624  1.6427 -0.0040
  116SAPC   C2812042   3.647   4.677   5.513 -0.2732  0.3782  0.4324
  116SAPC   H8R12043   3.557   4.686   5.575 -1.8515 -1.0861 -1.5079
  116SAPC   C2912044   3.634   4.696   5.380  0.0943  0.4677  0.0847
  116SAPC   H9R12045   3.540   4.730   5.335 -0.4618 -1.2534 -0.1409
  116SAPC  C21012046   3.744   4.700   5.281  0.2039  0.1138  0.1832
  116SAPC  H10R12047   3.727   4.639   5.190  1.3976 -0.3333  0.2471
  116SAPC  H10S12048   3.835   4.660   5.330  0.2434  1.0103  0.8679
  116SAPC  C21112049   3.781   4.835   5.217  0.8391 -0.3498 -0.3573
  116SAPC  H11R12050   3.808   4.910   5.293 -2.3067  0.6509 -0.0701
  116SAPC  C21212051   3.789   4.874   5.089  0.0351  0.1338 -0.0328
  116SAPC  H12R12052   3.820   4.978   5.072 -0.8004  0.4417  0.2721
  116SAPC  C21312053   3.782   4.788   4.957  0.0267  0.0935 -0.3428
  116SAPC  H13R12054   3.699   4.828   4.895  0.5325 -0.1538 -1.1957
  116SAPC  H13S12055   3.759   4.680   4.976 -0.0829  0.2119  0.2031
  116SAPC  C21412056   3.913   4.793   4.880 -0.0986  0.6224 -0.5599
  116SAPC  H14R12057   4.005   4.803   4.940 -0.6239  0.4014  0.2915
  116SAPC  C21512058   3.934   4.818   4.752  1.1585 -0.2314  0.6756
  116SAPC  H15R12059   4.033   4.825   4.705  1.5684 -0.5192  1.4837
  116SAPC  C21612060   3.827   4.836   4.650  0.5568 -0.2402  0.5409
  116SAPC  H16R12061   3.808   4.942   4.622  0.1496 -1.0091 -2.4763
  116SAPC  H16S12062   3.730   4.793   4.683 -0.9593  2.4452 -0.1335
  116SAPC  C21712063   3.853   4.765   4.514 -0.0947 -0.1220  0.1029
  116SAPC  H17R12064   3.749   4.750   4.477 -0.8598 -0.4721  2.2515
  116SAPC  H17S12065   3.886   4.661   4.532  0.6448  0.2199  0.7595
  116SAPC  C21812066   3.952   4.833   4.422 -0.1419 -0.3008  0.6992
  116SAPC  H18R12067   3.976   4.760   4.341  1.5756  1.2327 -0.2673
  116SAPC  H18S12068   4.048   4.842   4.477  0.7212 -1.8210 -0.4715
  116SAPC  C21912069   3.906   4.974   4.365  0.1387  0.5806 -0.5821
  116SAPC  H19R12070   3.988   5.030   4.316  0.3165  1.5100  0.7156
  116SAPC  H19S12071   3.878   5.044   4.446  0.7707  0.1889 -0.0116
  116SAPC  C22012072   3.788   4.961   4.276  1.2571 -0.0406  0.1728
  116SAPC  H20R12073   3.821   4.915   4.180 -2.1921 -2.6137 -0.0139
  116SAPC  H20S12074   3.742   5.057   4.242  0.6885 -0.7617 -1.2028
  116SAPC  H20T12075   3.701   4.906   4.320  1.9790  0.1924  1.9611
  116SAPC   C3312076   4.536   4.383   5.548  0.1716  0.0182 -0.0293
  116SAPC   H3X12077   4.555   4.483   5.504  2.0480 -0.0170  0.6068
  116SAPC   H3Y12078   4.426   4.368   5.538  0.4115 -1.3333 -0.7953
  116SAPC   C3412079   4.622   4.289   5.471 -0.7679 -0.0630  0.8013
  116SAPC   H4X12080   4.603   4.193   5.522 -1.8915 -0.2585  0.0582
  116SAPC   H4Y12081   4.728   4.320   5.486 -2.0844  4.3295  2.5071
  116SAPC   C3512082   4.591   4.280   5.322  0.0608  0.3842 -0.0571
  116SAPC   H5X12083   4.482   4.262   5.317 -0.0444  0.7368  0.8744
  116SAPC   H5Y12084   4.630   4.188   5.273 -2.9426 -0.5567 -0.8350
  116SAPC   C3612085   4.630   4.399   5.228  0.9541  0.0405 -0.0579
  116SAPC   H6X12086   4.601   4.500   5.265 -1.4164 -0.4095 -0.5211
  116SAPC   H6Y12087   4.570   4.391   5.135  0.5036  0.5267  0.1879
  116SAPC   C3712088   4.776   4.412   5.191  0.2834 -0.4062  0.0135
  116SAPC   H7X12089   4.827   4.322   5.149  0.8323  0.7314 -1.8564
  116SAPC   H7Y12090   4.826   4.444   5.285  0.1180 -1.5949  0.5349
  116SAPC   C3812091   4.797   4.538   5.103  0.2285  0.1095  0.2650
  116SAPC   H8X12092   4.709   4.606   5.109  0.3578  0.5489 -1.9413
  116SAPC   H8Y12093   4.795   4.502   4.998 -1.4495 -0.2820  0.4058
  116SAPC   C3912094   4.915   4.634   5.139 -0.3201  0.9031 -0.1762
  116SAPC   H9X12095   4.997   4.573   5.183 -0.6064  1.0428  0.5733
  116SAPC   H9Y12096   4.890   4.708   5.220 -0.2003  0.4420  0.2863
  116SAPC  C31012097   4.967   4.717   5.022 -0.4899 -0.0652  0.2322
  116SAPC  H10X12098   5.026   4.797   5.070  0.7576 -0.2930 -0.8486
  116SAPC  H10Y12099   4.881   4.759   4.964 -0.4870  0.9186  0.9149
  116SAPC  C31112100   5.073   4.642   4.938 -0.1448 -0.4229 -0.9921
  116SAPC  H11X12101   5.036   4.544   4.900 -1.5909  0.4457 -1.9357
  116SAPC  H11Y12102   5.161   4.621   5.002 -0.7101  1.4975  0.5053
  116SAPC  C31212103   5.129   4.719   4.813  0.3707 -0.1301  0.4121
  116SAPC  H12X12104   5.031   4.718   4.761  0.3345 -0.8220  0.4919
  116SAPC  H12Y12105   5.195   4.652   4.755 -0.0924 -0.3414  0.1221
  116SAPC  C31312106   5.176   4.859   4.836 -0.3686 -0.2809 -0.2663
  116SAPC  H13X12107   5.248   4.862   4.921  1.3123 -1.1721 -1.5970
  116SAPC  H13Y12108   5.093   4.924   4.871 -0.8233 -1.7129  1.4387
  116SAPC  C31412109   5.236   4.909   4.704 -0.7963 -0.3041  0.0811
  116SAPC  H14X12110   5.161   4.895   4.624 -0.2202 -0.5701 -0.4250
  116SAPC  H14Y12111   5.325   4.849   4.675  0.0473  0.2420  1.4208
  116SAPC  C31512112   5.281   5.060   4.704 -0.0840  0.7817  0.1009
  116SAPC  H15X12113   5.357   5.071   4.785  1.3044  0.7085 -1.1559
  116SAPC  H15Y12114   5.192   5.124   4.720 -0.5676  0.4704 -1.2226
  116SAPC  C31612115   5.349   5.109   4.569  0.8392  0.5960  0.4734
  116SAPC  H16X12116   5.422   5.038   4.523  0.0060 -1.5207  2.2370
  116SAPC  H16Y12117   5.416   5.194   4.594 -0.1032  1.5943 -0.3756
  116SAPC  C31712118   5.253   5.163   4.465  0.6733  0.3984  1.3894
  116SAPC  H17X12119   5.173   5.222   4.514  0.2353  0.5635  0.4874
  116SAPC  H17Y12120   5.197   5.073   4.431  3.6085 -0.8347 -0.6545
  116SAPC  C31812121   5.318   5.236   4.342 -0.5586  0.1771 -0.1512
  116SAPC  H18X12122   5.247   5.272   4.265  0.2622 -2.0117 -2.0574
  116SAPC  H18Y12123   5.400   5.172   4.302  0.8072  1.5607  0.3347
  116SAPC  H18Z12124   5.377   5.324   4.376  0.3822 -0.6639  0.4634
  117SAPC     N12125   5.547   2.140   6.793  0.1028 -0.5473 -0.0819
  117SAPC   C1212126   5.685   2.188   6.826 -0.4403  0.2306  0.0277
  117SAPC  H12A12127   5.701   2.182   6.933 -0.1219  1.6887  0.0859
  117SAPC  H12B12128   5.685   2.295   6.811 -1.6729  0.4654  1.5422
  117SAPC   C1312129   5.503   2.160   6.648 -0.3884 -0.5838 -0.4863
  117SAPC  H13A12130   5.425   2.088   6.627 -0.2635 -1.0660  0.6087
  117SAPC  H13B12131   5.475   2.264   6.641  0.9343 -0.1916 -0.2964
  117SAPC  H13C12132   5.590   2.158   6.585  0.2893  1.0547  0.3438
  117SAPC   C1412133   5.544   1.993   6.817 -0.1539 -0.5421 -0.3158
  117SAPC  H14A12134   5.599   1.938   6.742 -0.7575 -1.2807 -0.2233
  117SAPC  H14B12135   5.578   1.976   6.918 -3.2767 -0.5586  0.8242
  117SAPC  H14C12136   5.445   1.951   6.818  0.3443 -1.7961 -1.5813
  117SAPC   C1512137   5.458   2.209   6.886 -0.1876  0.1690 -0.3858
  117SAPC  H15A12138   5.353   2.194   6.863 -0.2139  0.8734 -0.7506
  117SAPC  H15B12139   5.474   2.185   6.990 -0.3700 -2.5383 -0.9105
  117SAPC  H15C12140   5.464   2.317   6.883 -0.4219  0.1598 -1.2533
  117SAPC   C1112141   5.804   2.129   6.751 -0.1098  0.8968  0.2310
  117SAPC  H11A12142   5.800   2.019   6.768 -2.4063  0.8332 -0.3425
  117SAPC  H11B12143   5.899   2.167   6.793  0.9128 -1.2286 -0.0405
  117SAPC     P12144   5.933   2.185   6.531 -0.2887  0.0760 -0.3443
  117SAPC   O1312145   6.006   2.058   6.513  0.2641 -0.1925 -0.0300
  117SAPC   O1412146   5.902   2.250   6.400  0.8780  0.7815 -0.2715
  117SAPC   O1212147   5.795   2.172   6.616 -0.0802 -0.5922 -0.7596
  117SAPC   O1112148   6.019   2.295   6.607  0.2411  0.6238  0.5935
  117SAPC    C112149   6.153   2.277   6.648  0.5283 -0.5491  0.5634
  117SAPC    HA12150   6.160   2.315   6.752 -3.9897  1.0393  0.5284
  117SAPC    HB12151   6.178   2.169   6.646  1.6630 -0.2928  0.6901
  117SAPC    C212152   6.254   2.350   6.548  0.0412  0.6969 -0.4220
  117SAPC    HS12153   6.247   2.460   6.558 -1.3413  0.8473 -2.4305
  117SAPC   O2112154   6.234   2.292   6.418  0.6615  0.3788  0.6251
  117SAPC   C2112155   6.160   2.362   6.328  0.8435 -0.2659  0.4354
  117SAPC   O2212156   6.121   2.474   6.345 -0.4967  0.2228 -0.0019
  117SAPC   C2212157   6.148   2.278   6.200  0.2364  0.4308 -0.3126
  117SAPC   H2R12158   6.170   2.174   6.230 -0.7498 -0.0856 -1.2789
  117SAPC   H2S12159   6.039   2.290   6.178  0.6860  1.6186 -2.1392
  117SAPC    C312160   6.396   2.321   6.598 -0.2153  0.4507  0.0779
  117SAPC    HX12161   6.412   2.212   6.584  0.4764  0.5072  0.3810
  117SAPC    HY12162   6.389   2.347   6.706 -0.1174  2.5670 -0.3819
  117SAPC   O3112163   6.495   2.406   6.528 -0.4063 -0.6643  0.1963
  117SAPC   C3112164   6.537   2.346   6.422 -0.5327 -0.4447  1.0053
  117SAPC   O3212165   6.519   2.227   6.392  0.0854 -0.0319 -0.0770
  117SAPC   C3212166   6.608   2.455   6.337  0.3126 -0.1032  0.0351
  117SAPC   H2X12167   6.673   2.510   6.408 -1.8896 -1.0957  2.9901
  117SAPC   H2Y12168   6.519   2.519   6.317 -0.5129 -1.0020  0.7808
  117SAPC   C2312169   6.226   2.337   6.079  0.2825 -0.7346 -0.4173
  117SAPC   H3R12170   6.333   2.355   6.100 -0.0608 -0.7220  1.4338
  117SAPC   H3S12171   6.186   2.436   6.048  1.0840 -0.2177  0.1840
  117SAPC   C2412172   6.221   2.257   5.953 -0.3397  0.2881  0.1235
  117SAPC   H4R12173   6.271   2.319   5.875 -1.0481 -0.7035 -1.1593
  117SAPC   H4S12174   6.118   2.241   5.916  0.3262  0.0762 -1.7383
  117SAPC   C2512175   6.309   2.139   5.980  0.1015 -0.4600 -0.3474
  117SAPC   H5R12176   6.286   2.090   6.076  0.5303  1.2008  0.6526
  117SAPC   C2612177   6.419   2.101   5.921 -0.2482 -0.6226  0.4427
  117SAPC   H6R12178   6.454   2.004   5.957 -0.2049 -0.4779  0.7878
  117SAPC   C2712179   6.492   2.168   5.803  0.4298  0.0328  0.2963
  117SAPC   H7R12180   6.575   2.236   5.830  0.7184  0.8082 -2.2377
  117SAPC   H7S12181   6.427   2.224   5.732  0.7057 -2.8355 -2.4773
  117SAPC   C2812182   6.558   2.068   5.715 -0.1087 -0.6164  0.4032
  117SAPC   H8R12183   6.509   2.069   5.616 -1.6851  2.7865  1.0625
  117SAPC   C2912184   6.669   1.991   5.749  0.3871  0.4018  0.3122
  117SAPC   H9R12185   6.694   1.909   5.679 -3.1683 -0.4183 -0.1757
  117SAPC  C21012186   6.752   1.973   5.870 -0.0282 -0.2033 -0.5171
  117SAPC  H10R12187   6.741   1.871   5.912 -0.9402  0.1012  0.0031
  117SAPC  H10S12188   6.722   2.046   5.948 -0.3656 -0.6170 -0.2487
  117SAPC  C21112189   6.894   1.999   5.840 -0.1262  0.1496 -0.1897
  117SAPC  H11R12190   6.908   2.106   5.816  0.3830 -0.1093 -1.0834
  117SAPC  C21212191   7.007   1.927   5.870 -0.6001  0.2784 -0.0197
  117SAPC  H12R12192   7.102   1.961   5.828 -0.3001  0.8640  1.1131
  117SAPC  C21312193   7.013   1.784   5.920  0.1743 -0.2036  0.5891
  117SAPC  H13R12194   6.912   1.744   5.942 -0.3530  0.9093  0.2688
  117SAPC  H13S12195   7.070   1.779   6.015  0.5986 -0.1733  0.3373
  117SAPC  C21412196   7.086   1.674   5.835 -0.6469 -0.4040  0.1681
  117SAPC  H14R12197   7.161   1.619   5.894 -0.9753 -0.4487  0.5459
  117SAPC  C21512198   7.078   1.652   5.707 -0.1576  0.0442 -0.6062
  117SAPC  H15R12199   7.152   1.586   5.660  0.9921  0.1605  0.9638
  117SAPC  C21612200   6.983   1.735   5.617 -0.4073  0.8009  0.2183
  117SAPC  H16R12201   7.030   1.829   5.581  2.3298 -0.1672  1.0051
  117SAPC  H16S12202   6.886   1.753   5.668 -1.1187 -1.1443 -0.3598
  117SAPC  C21712203   6.960   1.652   5.481 -0.3181 -0.0380 -0.1470
  117SAPC  H17R12204   6.860   1.677   5.440 -0.0530 -0.3169 -0.9855
  117SAPC  H17S12205   6.967   1.543   5.503  1.9108 -0.7987 -3.8036
  117SAPC  C21812206   7.075   1.663   5.377  0.1427 -0.4412  0.4846
  117SAPC  H18R12207   7.171   1.651   5.432 -0.2089  0.0485  1.2284
  117SAPC  H18S12208   7.084   1.764   5.331  0.5687 -1.1148 -0.9705
  117SAPC  C21912209   7.064   1.575   5.253  0.5045 -0.4278 -0.9190
  117SAPC  H19R12210   6.974   1.610   5.198  0.2871  1.9196  0.7877
  117SAPC  H19S12211   7.042   1.472   5.290 -0.0987 -0.4033 -1.1942
  117SAPC  C22012212   7.180   1.574   5.165  0.7763  0.5211  0.9956
  117SAPC  H20R12213   7.267   1.516   5.203 -1.2036 -2.8670  0.8014
  117SAPC  H20S12214   7.199   1.682   5.144 -0.5158  0.6212  0.2155
  117SAPC  H20T12215   7.153   1.523   5.070  0.9251  1.2904  0.5347
  117SAPC   C3312216   6.671   2.390   6.210  0.8637 -0.9206 -0.1639
  117SAPC   H3X12217   6.593   2.339   6.150 -0.3460  1.8026 -1.1134
  117SAPC   H3Y12218   6.746   2.317   6.246  1.8499 -0.8239 -1.8903
  117SAPC   C3412219   6.737   2.492   6.120  1.0517 -0.9954 -0.6599
  117SAPC   H4X12220   6.824   2.530   6.176  0.3336 -1.1920  0.6329
  117SAPC   H4Y12221   6.668   2.573   6.087  0.9093  0.1497  2.1501
  117SAPC   C3512222   6.779   2.440   5.980  0.1573  0.1172 -0.1661
  117SAPC   H5X12223   6.692   2.405   5.921  1.1135  1.4873 -2.5418
  117SAPC   H5Y12224   6.847   2.354   5.999 -0.0125  0.0988  0.3781
  117SAPC   C3612225   6.863   2.532   5.889  0.0710  0.7397 -0.5977
  117SAPC   H6X12226   6.960   2.566   5.931  0.6468 -1.1530 -0.2748
  117SAPC   H6Y12227   6.792   2.613   5.862 -0.9574  0.4865  1.2186
  117SAPC   C3712228   6.879   2.465   5.750  0.9532 -0.2847 -0.0788
  117SAPC   H7X12229   6.782   2.467   5.695  1.9488 -0.5360 -1.9108
  117SAPC   H7Y12230   6.910   2.359   5.761  0.5563 -0.6530 -2.1091
  117SAPC   C3812231   6.984   2.541   5.661 -0.4270 -0.1325 -0.4913
  117SAPC   H8X12232   7.011   2.476   5.575 -1.2411  1.0049 -1.6482
  117SAPC   H8Y12233   7.082   2.556   5.711  0.1566 -0.1479 -1.6002
  117SAPC   C3912234   6.943   2.685   5.616  0.4302  0.3419 -0.2985
  117SAPC   H9X12235   7.031   2.744   5.581  0.9131 -1.2674 -1.9204
  117SAPC   H9Y12236   6.889   2.727   5.704 -1.7097 -0.5273 -1.1305
  117SAPC  C31012237   6.834   2.694   5.510  0.2544  0.3431 -0.1742
  117SAPC  H10X12238   6.796   2.797   5.527 -1.7844  0.0120 -2.2155
  117SAPC  H10Y12239   6.750   2.623   5.528 -1.0497  1.7603 -0.5082
  117SAPC  C31112240   6.887   2.682   5.368  0.9842 -0.1520 -0.2096
  117SAPC  H11X12241   6.925   2.581   5.343 -1.6740 -0.9551 -1.4261
  117SAPC  H11Y12242   6.971   2.754   5.364  0.5174  0.4045 -0.1014
  117SAPC  C31212243   6.791   2.729   5.259  0.7710 -0.9403  0.1458
  117SAPC  H12X12244   6.743   2.818   5.304 -1.7298 -1.2731 -1.6834
  117SAPC  H12Y12245   6.704   2.664   5.236 -0.8897  1.4692 -0.7897
  117SAPC  C31312246   6.855   2.760   5.120  0.3343  0.5938 -0.5953
  117SAPC  H13X12247   6.889   2.659   5.087 -2.3337 -0.6364  0.1706
  117SAPC  H13Y12248   6.933   2.835   5.147 -0.0299  0.5021  0.7925
  117SAPC  C31412249   6.761   2.813   5.014  0.4008 -0.6739  0.8406
  117SAPC  H14X12250   6.695   2.891   5.058 -1.3751 -1.4404 -0.3293
  117SAPC  H14Y12251   6.682   2.739   4.989  0.9247 -0.9775  0.0483
  117SAPC  C31512252   6.833   2.856   4.885 -0.0799  0.9568  0.4552
  117SAPC  H15X12253   6.912   2.782   4.859 -0.1393  1.1958 -0.4083
  117SAPC  H15Y12254   6.871   2.957   4.912  1.5998 -0.2689  3.1291
  117SAPC  C31612255   6.734   2.877   4.765 -0.0161  0.4240  0.6185
  117SAPC  H16X12256   6.677   2.786   4.735 -0.4515  0.2455  1.9437
  117SAPC  H16Y12257   6.791   2.914   4.677  1.4848 -1.6074  0.6537
  117SAPC  C31712258   6.620   2.975   4.798 -0.2198  0.0813 -0.1330
  117SAPC  H17X12259   6.663   3.073   4.828 -0.9301  0.5959 -0.7522
  117SAPC  H17Y12260   6.560   2.943   4.885 -1.3925 -0.5626 -1.1582
  117SAPC  C31812261   6.531   2.992   4.676  0.3092 -0.1330 -0.3094
  117SAPC  H18X12262   6.438   3.050   4.694  0.7567  0.6506 -0.4590
  117SAPC  H18Y12263   6.505   2.898   4.623 -0.0331 -0.3338  0.2091
  117SAPC  H18Z12264   6.594   3.051   4.606  1.2983  1.7643  2.0224
  118SAPC     N12265   3.715   4.672   6.743 -0.1250  0.5208  0.4117
  118SAPC   C1212266   3.651   4.641   6.610  0.4082 -0.5961  0.4115
  118SAPC  H12A12267   3.594   4.551   6.628 -1.6941  0.6370  0.2954
  118SAPC  H12B12268   3.721   4.624   6.530 -0.3137  2.4883 -1.0550
  118SAPC   C1312269   3.785   4.803   6.732 -0.0336  0.7662  0.1969
  118SAPC  H13A12270   3.710   4.881   6.736  1.2500  2.0443  0.3611
  118SAPC  H13B12271   3.843   4.824   6.820 -1.0385  0.9967  0.8243
  118SAPC  H13C12272   3.848   4.817   6.645 -0.1590  2.3688  0.3202
  118SAPC   C1412273   3.628   4.676   6.857 -0.3947 -0.2633  0.1525
  118SAPC  H14A12274   3.563   4.592   6.878  0.3780 -0.7541  0.6219
  118SAPC  H14B12275   3.682   4.707   6.945 -1.6499 -1.2113  1.3050
  118SAPC  H14C12276   3.561   4.759   6.840  2.3598  2.3134  0.9699
  118SAPC   C1512277   3.813   4.562   6.761 -0.7498  0.7381 -0.1428
  118SAPC  H15A12278   3.879   4.558   6.675 -3.7388  0.3639 -2.5987
  118SAPC  H15B12279   3.875   4.578   6.848 -0.5700 -2.6913  0.5145
  118SAPC  H15C12280   3.755   4.471   6.765 -2.4041  1.7651  0.1967
  118SAPC   C1112281   3.541   4.745   6.571 -0.5645 -0.2010  0.6201
  118SAPC  H11A12282   3.510   4.727   6.466 -1.1151  2.5049  0.2256
  118SAPC  H11B12283   3.595   4.843   6.567  0.5470 -0.7902  0.8260
  118SAPC     P12284   3.333   4.626   6.672  0.5691  0.1058 -0.5107
  118SAPC   O1312285   3.405   4.495   6.666  0.1507  0.0485  0.3178
  118SAPC   O1412286   3.259   4.634   6.805 -0.0187 -0.2001  0.2670
  118SAPC   O1212287   3.435   4.750   6.668 -0.5678 -0.1914  0.4209
  118SAPC   O1112288   3.229   4.633   6.549  0.4641  0.4908  0.1954
  118SAPC    C112289   3.159   4.753   6.515 -0.2370  0.1905 -0.5346
  118SAPC    HA12290   3.078   4.760   6.591  1.4380 -0.4289  1.4075
  118SAPC    HB12291   3.222   4.843   6.533 -0.6494  0.1035  1.5682
  118SAPC    C212292   3.108   4.747   6.372  0.4895 -0.2782 -0.4957
  118SAPC    HS12293   3.082   4.643   6.345  0.6070  0.1332 -2.3124
  118SAPC   O2112294   3.209   4.795   6.282  0.7742 -0.2286 -0.1329
  118SAPC   C2112295   3.294   4.703   6.231  0.6226  0.3696  0.1189
  118SAPC   O2212296   3.299   4.583   6.253  0.3704 -0.5479  0.6129
  118SAPC   C2212297   3.399   4.787   6.155 -0.2525 -0.6819  0.4020
  118SAPC   H2R12298   3.350   4.881   6.123 -2.6352 -2.2706 -0.9427
  118SAPC   H2S12299   3.481   4.805   6.227  0.2534  1.8353 -0.7165
  118SAPC    C312300   2.979   4.829   6.354  0.5719  0.9387  0.3689
  118SAPC    HX12301   3.001   4.931   6.392  0.3499  0.8317  0.7866
  118SAPC    HY12302   2.899   4.797   6.424  0.5856  1.0478  0.4349
  118SAPC   O3112303   2.946   4.827   6.214  0.2981  0.4724 -0.1466
  118SAPC   C3112304   2.855   4.739   6.172 -1.3081  0.5320  0.0517
  118SAPC   O3212305   2.815   4.650   6.241 -0.2465  0.2835 -0.3359
  118SAPC   C3212306   2.821   4.756   6.033  0.7470  0.0236  0.0640
  118SAPC   H2X12307   2.905   4.796   5.973 -0.2034 -0.0976 -1.3905
  118SAPC   H2Y12308   2.739   4.831   6.046  0.6695 -0.3953  2.5062
  118SAPC   C2312309   3.447   4.715   6.029 -0.5202 -0.1411  0.2507
  118SAPC   H3R12310   3.491   4.616   6.054 -1.3390 -1.2107 -2.2103
  118SAPC   H3S12311   3.537   4.757   5.979 -0.7149 -1.1921 -1.0458
  118SAPC   C2412312   3.333   4.691   5.930 -0.1833 -0.1228  0.3844
  118SAPC   H4R12313   3.288   4.791   5.914  0.0605 -0.0646  0.0369
  118SAPC   H4S12314   3.250   4.626   5.965  0.1344 -2.0339 -2.1106
  118SAPC   C2512315   3.375   4.630   5.802  0.2030  0.3746 -0.0914
  118SAPC   H5R12316   3.480   4.596   5.805  0.4359  1.1189  1.1080
  118SAPC   C2612317   3.299   4.612   5.692 -0.2191 -0.2121  1.0321
  118SAPC   H6R12318   3.348   4.568   5.604  0.8020  1.6318  0.6187
  118SAPC   C2712319   3.160   4.659   5.675 -0.2552  0.8930  0.9198
  118SAPC   H7R12320   3.112   4.698   5.767 -1.9800  1.0901 -0.0252
  118SAPC   H7S12321   3.101   4.574   5.633  0.1085 -0.2456  2.6429
  118SAPC   C2812322   3.162   4.775   5.581  0.1429 -0.0848  0.5495
  118SAPC   H8R12323   3.169   4.876   5.622 -2.9452  0.0859  0.9245
  118SAPC   C2912324   3.157   4.759   5.447  0.0599  0.1394 -0.2267
  118SAPC   H9R12325   3.160   4.851   5.387  0.1376  1.2763  1.4371
  118SAPC  C21012326   3.141   4.627   5.371 -0.4500  0.8990  0.5488
  118SAPC  H10R12327   3.111   4.538   5.430  0.3468  0.5056  0.3780
  118SAPC  H10S12328   3.236   4.603   5.318 -2.4956 -2.3699 -2.0192
  118SAPC  C21112329   3.040   4.650   5.259  0.3883  0.3039 -1.1535
  118SAPC  H11R12330   2.991   4.748   5.251  1.0809  0.8896  1.0245
  118SAPC  C21212331   2.987   4.563   5.174  0.2727  0.6671  0.3688
  118SAPC  H12R12332   2.908   4.592   5.103 -0.9564 -0.2421  1.3239
  118SAPC  C21312333   3.015   4.414   5.159  0.1136  0.9759 -0.4388
  118SAPC  H13R12334   2.993   4.364   5.063  3.0175 -1.5193  0.0282
  118SAPC  H13S12335   2.932   4.371   5.219  1.6881  1.8737  2.6268
  118SAPC  C21412336   3.140   4.361   5.217 -0.8131 -0.0222 -0.3365
  118SAPC  H14R12337   3.147   4.359   5.327  3.1413 -2.4029 -0.4426
  118SAPC  C21512338   3.242   4.317   5.141  0.3374  0.2121  0.4282
  118SAPC  H15R12339   3.335   4.275   5.182  0.5740  2.8519  2.9643
  118SAPC  C21612340   3.248   4.322   4.993 -0.3252  0.5509 -0.0685
  118SAPC  H16R12341   3.153   4.277   4.958  1.1208 -1.7579 -1.2934
  118SAPC  H16S12342   3.326   4.261   4.943 -0.4293 -1.5108  2.1165
  118SAPC  C21712343   3.262   4.472   4.955 -0.3482  0.1733 -0.0104
  118SAPC  H17R12344   3.193   4.538   5.013 -0.1476  0.1125  0.2978
  118SAPC  H17S12345   3.249   4.487   4.846  1.2004 -0.3288 -0.2819
  118SAPC  C21812346   3.408   4.512   4.986 -0.0396  0.1047 -0.2214
  118SAPC  H18R12347   3.475   4.465   4.910  2.4194  1.4023  1.0427
  118SAPC  H18S12348   3.437   4.474   5.086  2.8423  1.6248 -0.3842
  118SAPC  C21912349   3.443   4.661   4.983 -0.2284  0.1970  0.6751
  118SAPC  H19R12350   3.549   4.685   5.005  0.6793 -0.4114 -2.5477
  118SAPC  H19S12351   3.385   4.708   5.066 -2.0668  0.2892 -0.6155
  118SAPC  C22012352   3.411   4.740   4.854  0.4263 -0.3903 -0.0248
  118SAPC  H20R12353   3.304   4.722   4.833 -0.1621  2.7025 -0.0880
  118SAPC  H20S12354   3.474   4.706   4.769 -0.0699 -0.1393 -0.4958
  118SAPC  H20T12355   3.422   4.848   4.879  0.0072 -0.4387  0.3967
  118SAPC   C3312356   2.774   4.623   5.970  0.0809 -0.7113  0.2763
  118SAPC   H3X12357   2.687   4.578   6.021 -0.7413 -0.3100 -0.7160
  118SAPC   H3Y12358   2.859   4.552   5.972  0.9576  0.2088 -1.6353
  118SAPC   C3412359   2.723   4.662   5.826  0.1737  0.1395 -0.7286
  118SAPC   H4X12360   2.807   4.714   5.775  1.5580  0.5447  1.7963
  118SAPC   H4Y12361   2.641   4.732   5.851 -0.2046  0.6316 -3.0934
  118SAPC   C3512362   2.671   4.544   5.746  0.1595 -0.2890  0.3378
  118SAPC   H5X12363   2.574   4.509   5.787 -0.7618  0.3972 -1.1813
  118SAPC   H5Y12364   2.742   4.459   5.746  1.4622  0.7421 -0.7326
  118SAPC   C3612365   2.634   4.577   5.598 -0.0635 -0.1893  0.8935
  118SAPC   H6X12366   2.551   4.650   5.594  2.1252  2.6457  2.8865
  118SAPC   H6Y12367   2.583   4.490   5.551  1.0655  0.9805 -2.8815
  118SAPC   C3712368   2.745   4.604   5.498  0.7643 -0.4944  0.0544
  118SAPC   H7X12369   2.829   4.532   5.497  0.4582 -0.9505 -3.4184
  118SAPC   H7Y12370   2.784   4.704   5.523  0.6797 -0.7923  1.4536
  118SAPC   C3812371   2.690   4.623   5.358  0.4509  0.4709  0.6066
  118SAPC   H8X12372   2.773   4.663   5.296  0.3737  0.4120  0.4658
  118SAPC   H8Y12373   2.606   4.696   5.354 -1.8776 -1.9678  1.5453
  118SAPC   C3912374   2.643   4.495   5.287 -0.5432  0.4794 -0.3735
  118SAPC   H9X12375   2.556   4.445   5.336 -0.7951  0.5348 -0.7606
  118SAPC   H9Y12376   2.728   4.424   5.292 -1.8478 -1.5202 -3.7273
  118SAPC  C31012377   2.610   4.502   5.132  0.2901 -0.3871 -0.6448
  118SAPC  H10X12378   2.705   4.511   5.074  0.0366 -2.2928 -1.4012
  118SAPC  H10Y12379   2.548   4.594   5.124 -1.9404 -1.6144  1.2872
  118SAPC  C31112380   2.523   4.389   5.089  0.6696  0.0081  0.3354
  118SAPC  H11X12381   2.428   4.393   5.146  0.6471 -2.1411  0.5533
  118SAPC  H11Y12382   2.574   4.293   5.113  1.2564 -0.3142 -1.9753
  118SAPC  C31212383   2.493   4.382   4.941  0.4284  0.0491  0.0469
  118SAPC  H12X12384   2.587   4.367   4.883  1.1017  2.5000  0.3548
  118SAPC  H12Y12385   2.454   4.473   4.890  1.3843  0.1132 -0.6139
  118SAPC  C31312386   2.395   4.269   4.916 -0.3135  0.2544 -0.0680
  118SAPC  H13X12387   2.298   4.270   4.969 -0.2536  1.7785  0.0481
  118SAPC  H13Y12388   2.447   4.174   4.942 -0.3777  0.0190 -0.7880
  118SAPC  C31412389   2.364   4.241   4.769  0.8361  0.2675 -0.4752
  118SAPC  H14X12390   2.448   4.236   4.697 -1.5517  1.1726 -3.5146
  118SAPC  H14Y12391   2.300   4.328   4.742 -0.0806  0.0390  0.8355
  118SAPC  C31512392   2.277   4.116   4.748  0.2074  0.6940 -0.7314
  118SAPC  H15X12393   2.214   4.093   4.836 -0.1395  0.2664 -1.0864
  118SAPC  H15Y12394   2.336   4.022   4.754 -0.9323 -0.1795 -2.5113
  118SAPC  C31612395   2.210   4.115   4.615 -0.7524 -0.4895  0.8137
  118SAPC  H16X12396   2.280   4.089   4.532 -1.1309 -0.4450  0.4773
  118SAPC  H16Y12397   2.169   4.215   4.587  0.9262  0.3706  1.3030
  118SAPC  C31712398   2.085   4.026   4.607  0.1728 -0.4035 -0.0817
  118SAPC  H17X12399   2.032   4.051   4.513  0.4122  0.1380 -0.0735
  118SAPC  H17Y12400   2.026   4.054   4.697 -0.7956 -2.6084  0.0378
  118SAPC  C31812401   2.109   3.880   4.617 -0.2119  0.0847 -0.0749
  118SAPC  H18X12402   2.165   3.852   4.710 -1.6777  1.9247  1.4580
  118SAPC  H18Y12403   2.181   3.862   4.535 -0.2229 -0.6688  0.0775
  118SAPC  H18Z12404   2.022   3.813   4.601  0.0022  0.0334 -1.0363
  119SAPC     N12405   1.498   0.117   1.804 -0.2710  0.5766  0.0132
  119SAPC   C1212406   1.385   0.095   1.900  0.0177  0.3833  0.1143
  119SAPC  H12A12407   1.346  -0.001   1.870 -1.5068  1.4222 -1.4350
  119SAPC  H12B12408   1.306   0.163   1.869  0.1452 -1.2572 -4.5233
  119SAPC   C1312409   1.438   0.112   1.662 -0.5188 -0.4492 -0.0356
  119SAPC  H13A12410   1.383   0.020   1.651 -0.5723 -0.5031  0.6490
  119SAPC  H13B12411   1.378   0.200   1.642 -2.2146 -0.9672  2.3387
  119SAPC  H13C12412   1.521   0.110   1.594  1.5375  0.1137  2.3200
  119SAPC   C1412413   1.577   0.247   1.820 -0.2986  0.0040 -0.0908
  119SAPC  H14A12414   1.528   0.343   1.829  2.1405  1.2000  1.2321
  119SAPC  H14B12415   1.639   0.228   1.906  0.9913  2.2247 -0.4487
  119SAPC  H14C12416   1.653   0.247   1.743 -0.4710  0.3069 -0.2648
  119SAPC   C1512417   1.590   0.000   1.801  0.0122 -0.2229 -0.2038
  119SAPC  H15A12418   1.642  -0.007   1.895 -0.3232  0.5799  0.0463
  119SAPC  H15B12419   1.539  -0.094   1.789  0.5204 -0.4479 -0.6798
  119SAPC  H15C12420   1.668   0.023   1.729  0.7183 -3.0692 -0.4515
  119SAPC   C1112421   1.418   0.108   2.049  0.1900 -0.4730  0.3521
  119SAPC  H11A12422   1.325   0.091   2.107  0.1818 -2.0374 -0.0656
  119SAPC  H11B12423   1.452   0.209   2.079 -0.4825 -0.2566  0.3884
  119SAPC     P12424   1.500  -0.131   2.132  0.3601 -0.0110  0.0146
  119SAPC   O1312425   1.427  -0.195   2.016 -0.0880  0.6151  0.2931
  119SAPC   O1412426   1.628  -0.193   2.173  0.1072  0.2286  0.5562
  119SAPC   O1212427   1.529   0.017   2.085 -0.0584  0.1739 -0.0422
  119SAPC   O1112428   1.407  -0.113   2.259 -0.0617 -0.2648 -0.3079
  119SAPC    C112429   1.454  -0.037   2.369  1.0338 -0.6403 -0.2981
  119SAPC    HA12430   1.491   0.061   2.333  0.5160  0.3845  1.7941
  119SAPC    HB12431   1.377  -0.015   2.447  1.8128  0.1078  0.2849
  119SAPC    C212432   1.560  -0.107   2.463  0.7278  0.3221 -0.4734
  119SAPC    HS12433   1.645  -0.122   2.393  0.0453  0.6319 -1.3972
  119SAPC   O2112434   1.490  -0.224   2.521 -0.0071  0.2581 -0.2001
  119SAPC   C2112435   1.577  -0.316   2.549 -0.1934 -0.8721 -0.2229
  119SAPC   O2212436   1.699  -0.306   2.542 -0.4061  0.2530  0.5835
  119SAPC   C2212437   1.507  -0.442   2.600 -0.2266 -0.0856 -0.2724
  119SAPC   H2R12438   1.412  -0.458   2.544 -1.3567  0.3796  1.4283
  119SAPC   H2S12439   1.572  -0.527   2.572  1.6499  0.3973  2.2107
  119SAPC    C312440   1.600  -0.009   2.578 -0.0030 -0.0205  0.3244
  119SAPC    HX12441   1.509  -0.003   2.641  1.3443  1.2011  2.2518
  119SAPC    HY12442   1.619   0.094   2.539  1.1060  0.2680  1.5758
  119SAPC   O3112443   1.702  -0.054   2.660 -0.1725 -0.1771 -0.0533
  119SAPC   C3112444   1.829  -0.025   2.629 -0.1444 -0.0688  0.2896
  119SAPC   O3212445   1.867   0.033   2.522  0.2022  0.6200 -0.6093
  119SAPC   C3212446   1.922  -0.083   2.740 -0.5703  0.0192  0.7466
  119SAPC   H2X12447   1.921  -0.012   2.826 -0.3555 -1.0169  1.6311
  119SAPC   H2Y12448   2.023  -0.095   2.695  1.2670 -0.0206  4.5008
  119SAPC   C2312449   1.475  -0.439   2.754  0.0269 -1.0243 -0.3171
  119SAPC   H3R12450   1.426  -0.340   2.772  0.2028 -0.4238 -2.8459
  119SAPC   H3S12451   1.574  -0.444   2.806  0.1338  1.3494 -0.1698
  119SAPC   C2412452   1.381  -0.546   2.818  0.5437  0.7794  0.0736
  119SAPC   H4R12453   1.288  -0.548   2.757 -0.4770  1.1016  1.5596
  119SAPC   H4S12454   1.350  -0.523   2.922 -3.1579 -0.0954 -0.7083
  119SAPC   C2512455   1.452  -0.673   2.817 -1.2834  0.9013 -0.1400
  119SAPC   H5R12456   1.485  -0.708   2.718 -2.3565 -0.7348  0.0358
  119SAPC   C2612457   1.499  -0.747   2.921  0.3645 -0.0653 -0.3546
  119SAPC   H6R12458   1.566  -0.832   2.901 -1.9210 -1.9592 -0.4846
  119SAPC   C2712459   1.486  -0.721   3.072  0.1562 -0.0931 -0.4985
  119SAPC   H7R12460   1.514  -0.618   3.101  0.1981 -0.9073  2.6825
  119SAPC   H7S12461   1.567  -0.777   3.124 -0.0004  2.3521  2.7074
  119SAPC   C2812462   1.356  -0.752   3.143 -0.0498  0.0052 -0.1174
  119SAPC   H8R12463   1.259  -0.753   3.090 -0.7283 -2.9976  0.9974
  119SAPC   C2912464   1.350  -0.787   3.268 -0.3086  0.2029  0.5749
  119SAPC   H9R12465   1.249  -0.817   3.302 -1.2799  2.7013  0.1280
  119SAPC  C21012466   1.464  -0.796   3.363  0.3694 -0.4452 -0.3419
  119SAPC  H10R12467   1.423  -0.774   3.464 -0.2508 -0.5544 -0.5644
  119SAPC  H10S12468   1.532  -0.709   3.355 -0.0461  0.0874  1.4319
  119SAPC  C21112469   1.539  -0.925   3.369  0.6430  0.4496 -0.6401
  119SAPC  H11R12470   1.502  -1.004   3.302 -1.4714  1.3907 -0.6573
  119SAPC  C21212471   1.628  -0.959   3.462  0.0792 -0.3220 -0.1485
  119SAPC  H12R12472   1.687  -1.051   3.461  0.0842 -0.3257  0.4253
  119SAPC  C21312473   1.688  -0.855   3.561 -0.1948  0.5329  0.2537
  119SAPC  H13R12474   1.616  -0.771   3.571 -0.9110 -0.1748  1.3762
  119SAPC  H13S12475   1.781  -0.805   3.524 -0.9313  1.1224 -0.8396
  119SAPC  C21412476   1.724  -0.924   3.693  0.4842  0.8079 -0.0644
  119SAPC  H14R12477   1.826  -0.963   3.696  1.1492  2.4983  0.3921
  119SAPC  C21512478   1.638  -0.965   3.792  0.2176  0.4693  0.5721
  119SAPC  H15R12479   1.685  -0.986   3.889 -0.4431  1.2051  1.0619
  119SAPC  C21612480   1.493  -0.928   3.805  0.4552  0.1876 -0.6769
  119SAPC  H16R12481   1.449  -1.010   3.864  2.3764 -0.4951 -0.1045
  119SAPC  H16S12482   1.450  -0.929   3.702  1.1825 -1.4717 -0.9937
  119SAPC  C21712483   1.448  -0.805   3.881 -0.1149  0.4008 -0.3295
  119SAPC  H17R12484   1.340  -0.784   3.864 -0.1981 -0.3554 -0.7932
  119SAPC  H17S12485   1.509  -0.726   3.833  0.3299 -0.0763 -0.5690
  119SAPC  C21812486   1.477  -0.803   4.031 -0.3336  0.0776  0.5147
  119SAPC  H18R12487   1.583  -0.831   4.048 -0.1340  0.7975  0.4904
  119SAPC  H18S12488   1.413  -0.865   4.096 -1.8796  1.0768 -0.0108
  119SAPC  C21912489   1.458  -0.657   4.090  0.4295  0.7090 -0.3035
  119SAPC  H19R12490   1.355  -0.619   4.073  0.4362  0.8505 -0.0452
  119SAPC  H19S12491   1.524  -0.598   4.024  1.9084  0.4180  0.8553
  119SAPC  C22012492   1.506  -0.631   4.228  0.0914 -0.1773 -0.2631
  119SAPC  H20R12493   1.465  -0.535   4.265  1.7425  0.6174 -0.4206
  119SAPC  H20S12494   1.614  -0.610   4.238 -0.1171  0.0370  2.1552
  119SAPC  H20T12495   1.485  -0.711   4.303 -0.0381  0.7164  0.6890
  119SAPC   C3312496   1.874  -0.219   2.794 -0.5931 -0.4282 -0.0402
  119SAPC   H3X12497   1.908  -0.305   2.732 -1.7289 -1.8210  1.1905
  119SAPC   H3Y12498   1.763  -0.218   2.792 -0.5858  0.8883 -0.5905
  119SAPC   C3412499   1.911  -0.246   2.939  0.2559 -0.0141 -0.9041
  119SAPC   H4X12500   1.830  -0.310   2.983 -0.5369 -0.5783 -3.0462
  119SAPC   H4Y12501   1.915  -0.154   3.000  0.6169 -2.7284  3.6234
  119SAPC   C3512502   2.053  -0.294   2.966  0.0156 -0.1130 -0.7475
  119SAPC   H5X12503   2.127  -0.219   2.930  1.2382 -0.4134  1.0142
  119SAPC   H5Y12504   2.051  -0.381   2.897 -0.5913  0.8051 -1.9205
  119SAPC   C3612505   2.072  -0.344   3.114 -0.7400  0.0925 -0.3262
  119SAPC   H6X12506   2.168  -0.400   3.120 -2.5998 -3.2217  0.9882
  119SAPC   H6Y12507   1.996  -0.417   3.148  0.0412 -0.2279  0.7722
  119SAPC   C3712508   2.080  -0.220   3.208  0.1890  0.0984 -0.2820
  119SAPC   H7X12509   1.996  -0.152   3.184 -2.1468 -2.8355 -1.0906
  119SAPC   H7Y12510   2.168  -0.161   3.176  1.3009 -1.5491 -0.3908
  119SAPC   C3812511   2.090  -0.240   3.360 -0.2675 -0.1235 -0.0886
  119SAPC   H8X12512   2.145  -0.152   3.401  2.3836 -1.8594  0.4214
  119SAPC   H8Y12513   2.170  -0.316   3.377 -1.5928 -1.6482 -0.4339
  119SAPC   C3912514   1.959  -0.273   3.435 -0.4335 -0.5574  0.5990
  119SAPC   H9X12515   1.906  -0.360   3.391  0.5287 -0.4307 -0.8930
  119SAPC   H9Y12516   1.882  -0.194   3.424  0.3321  0.0906 -0.1871
  119SAPC  C31012517   1.974  -0.296   3.583 -0.4904 -0.1979 -0.4927
  119SAPC  H10X12518   2.051  -0.375   3.598 -0.7220  0.0293  2.7125
  119SAPC  H10Y12519   1.885  -0.343   3.632  0.5595 -1.5439  0.2121
  119SAPC  C31112520   2.035  -0.171   3.658 -0.2243  0.0293  0.7546
  119SAPC  H11X12521   1.965  -0.087   3.637  0.1189 -0.2832 -1.9131
  119SAPC  H11Y12522   2.129  -0.148   3.605 -0.4421 -0.9010 -0.0515
  119SAPC  C31212523   2.072  -0.201   3.805 -0.1411 -0.3063  0.7596
  119SAPC  H12X12524   2.150  -0.280   3.811  1.5789  1.3603  1.3503
  119SAPC  H12Y12525   1.982  -0.243   3.855 -1.2416  0.7518 -0.2714
  119SAPC  C31312526   2.135  -0.088   3.882 -0.3481 -1.2314 -0.0310
  119SAPC  H13X12527   2.063  -0.005   3.899  0.1611 -0.6730 -0.5515
  119SAPC  H13Y12528   2.223  -0.052   3.825 -0.1849  1.1943  1.6108
  119SAPC  C31412529   2.170  -0.139   4.018 -0.2476  0.6723 -0.4131
  119SAPC  H14X12530   2.247  -0.219   4.011  0.2549  1.2797 -2.1188
  119SAPC  H14Y12531   2.084  -0.187   4.069  0.0418  0.6860  0.1003
  119SAPC  C31512532   2.215  -0.028   4.118 -0.6084 -0.0565  0.4071
  119SAPC  H15X12533   2.134   0.044   4.140  0.3430  0.4504  2.4790
  119SAPC  H15Y12534   2.300   0.028   4.073 -1.1083  0.2731 -0.1419
  119SAPC  C31612535   2.268  -0.081   4.254 -0.3414 -0.1844  0.4257
  119SAPC  H16X12536   2.350  -0.155   4.242  0.7914  0.7248  2.1913
  119SAPC  H16Y12537   2.181  -0.134   4.299  0.3686  0.2034  2.3464
  119SAPC  C31712538   2.314   0.021   4.352  0.2472  0.3334  0.0117
  119SAPC  H17X12539   2.236   0.100   4.352 -0.0048  0.0888 -0.6595
  119SAPC  H17Y12540   2.411   0.073   4.338 -1.0379  3.1294  0.8073
  119SAPC  C31812541   2.311  -0.037   4.495  0.2775 -0.3062  0.2289
  119SAPC  H18X12542   2.345   0.044   4.564 -1.4036  0.2501  0.4533
  119SAPC  H18Y12543   2.371  -0.130   4.492 -0.6145 -0.9536  1.4686
  119SAPC  H18Z12544   2.211  -0.075   4.524  0.2010 -1.4120 -1.4169
  120SAPC     N12545   2.399   3.661   1.874  0.0156  0.7171  0.0323
  120SAPC   C1212546   2.443   3.703   2.012 -0.0204  0.3081  0.5431
  120SAPC  H12A12547   2.477   3.805   2.001 -1.1114  0.4721 -1.7264
  120SAPC  H12B12548   2.532   3.648   2.039  0.6110  0.2386 -1.4910
  120SAPC   C1312549   2.321   3.768   1.808  0.1923  0.5314  0.4629
  120SAPC  H13A12550   2.222   3.777   1.851 -1.3433 -2.2610 -2.1052
  120SAPC  H13B12551   2.373   3.861   1.791 -0.5868  0.9722  0.4633
  120SAPC  H13C12552   2.291   3.734   1.710 -2.4826  0.0509  1.3672
  120SAPC   C1412553   2.522   3.628   1.791 -0.2636 -0.3471  0.4530
  120SAPC  H14A12554   2.586   3.715   1.792 -0.6042 -0.0810 -0.3384
  120SAPC  H14B12555   2.579   3.551   1.842  0.7207 -0.3244 -0.5848
  120SAPC  H14C12556   2.500   3.590   1.693 -1.5041 -0.5765  0.7935
  120SAPC   C1512557   2.307   3.546   1.867 -0.0110  0.5188 -0.6252
  120SAPC  H15A12558   2.211   3.577   1.905 -0.1807  0.1466 -0.7468
  120SAPC  H15B12559   2.292   3.518   1.764  0.7171  0.2989 -0.6827
  120SAPC  H15C12560   2.342   3.465   1.930 -1.1001  1.5612  1.4005
  120SAPC   C1112561   2.339   3.689   2.130  0.2677  0.3599 -0.5181
  120SAPC  H11A12562   2.386   3.687   2.231  0.6124  3.0779 -0.5445
  120SAPC  H11B12563   2.294   3.590   2.111 -0.0860  0.6902 -1.4153
  120SAPC     P12564   2.282   3.930   2.188  0.0327 -0.1291 -0.0800
  120SAPC   O1312565   2.429   3.962   2.150  0.0869 -0.2238  0.7142
  120SAPC   O1412566   2.182   4.034   2.156 -0.1514 -0.3737  0.5514
  120SAPC   O1212567   2.239   3.793   2.121 -0.1390  0.5608  0.4438
  120SAPC   O1112568   2.271   3.889   2.342  0.1931 -0.3539 -0.5001
  120SAPC    C112569   2.148   3.912   2.406  0.4479 -0.9139  0.7572
  120SAPC    HA12570   2.130   4.021   2.414  1.9421 -0.5895  0.1013
  120SAPC    HB12571   2.067   3.867   2.344 -0.0521  0.2707  0.5384
  120SAPC    C212572   2.140   3.844   2.541 -0.4190 -0.0085  0.0299
  120SAPC    HS12573   2.044   3.859   2.595 -0.1587 -0.1472  0.5479
  120SAPC   O2112574   2.257   3.874   2.624  0.1971 -0.3452 -0.0315
  120SAPC   C2112575   2.281   4.000   2.650  0.0189 -0.4032 -0.4320
  120SAPC   O2212576   2.211   4.097   2.636 -0.0335 -0.2639  0.4022
  120SAPC   C2212577   2.433   4.004   2.673  0.1895  0.4705 -0.1581
  120SAPC   H2R12578   2.465   3.901   2.699  0.6735  0.5282 -0.5143
  120SAPC   H2S12579   2.481   4.032   2.576 -0.7849  1.3866 -0.3938
  120SAPC    C312580   2.129   3.694   2.516 -0.3042  0.5514  0.2130
  120SAPC    HX12581   2.230   3.656   2.489 -0.4216  0.9308 -0.7969
  120SAPC    HY12582   2.071   3.658   2.429  0.7296 -1.7017  0.3846
  120SAPC   O3112583   2.102   3.620   2.637 -0.3971  0.1704 -0.2045
  120SAPC   C3112584   1.979   3.580   2.658 -0.1186  0.3589  0.2293
  120SAPC   O3212585   1.890   3.578   2.573  0.2046 -0.4533 -0.7226
  120SAPC   C3212586   1.974   3.497   2.785 -0.1544 -0.3756  0.2374
  120SAPC   H2X12587   1.918   3.402   2.768 -0.7731 -0.5160  2.6785
  120SAPC   H2Y12588   1.917   3.552   2.863  1.4162  0.6119  0.7302
  120SAPC   C2312589   2.479   4.104   2.784 -0.1172  0.1410  0.5317
  120SAPC   H3R12590   2.439   4.207   2.778 -1.3148 -0.3892 -1.3400
  120SAPC   H3S12591   2.589   4.110   2.774  0.0233 -1.9379  0.3475
  120SAPC   C2412592   2.471   4.058   2.929  0.1267  0.0109 -0.5459
  120SAPC   H4R12593   2.511   3.956   2.946 -1.7034 -0.4730  1.2362
  120SAPC   H4S12594   2.363   4.046   2.955  0.6802 -1.8453  1.1225
  120SAPC   C2512595   2.548   4.151   3.016 -0.1326  0.4375  0.4451
  120SAPC   H5R12596   2.655   4.126   3.012  0.8430  3.7048  2.0547
  120SAPC   C2612597   2.495   4.242   3.104 -0.0720  0.4202  0.3102
  120SAPC   H6R12598   2.567   4.296   3.168  0.3965  0.7216 -0.4507
  120SAPC   C2712599   2.349   4.251   3.132  0.1552  0.1146 -0.3190
  120SAPC   H7R12600   2.285   4.269   3.043 -1.2678  0.0591  0.6585
  120SAPC   H7S12601   2.344   4.343   3.195  2.6028  0.4150 -0.4671
  120SAPC   C2812602   2.290   4.141   3.213 -0.0388  0.2090  0.4785
  120SAPC   H8R12603   2.223   4.075   3.157 -1.2041  0.6923  1.2571
  120SAPC   C2912604   2.289   4.128   3.347  0.0885 -0.1096 -0.2211
  120SAPC   H9R12605   2.245   4.039   3.394 -0.9613 -1.4336 -3.4326
  120SAPC  C21012606   2.364   4.217   3.449  0.4448  0.4210 -0.1227
  120SAPC  H10R12607   2.285   4.268   3.508  0.3881  0.3145 -0.1057
  120SAPC  H10S12608   2.419   4.303   3.405  2.1520 -1.1259 -1.1392
  120SAPC  C21112609   2.440   4.122   3.540 -0.4501 -0.0925 -0.4143
  120SAPC  H11R12610   2.543   4.102   3.509 -0.3863 -2.0739  0.8864
  120SAPC  C21212611   2.388   4.069   3.652 -0.4671  0.1500  0.3843
  120SAPC  H12R12612   2.444   3.998   3.716 -1.3096 -2.0433 -1.1716
  120SAPC  C21312613   2.255   4.109   3.712 -0.2256 -0.3553  1.4341
  120SAPC  H13R12614   2.167   4.096   3.646 -0.3554  0.5156  1.4220
  120SAPC  H13S12615   2.271   4.213   3.750  3.0865 -0.2813  0.1058
  120SAPC  C21412616   2.210   4.034   3.839 -0.5309 -1.1335  0.5234
  120SAPC  H14R12617   2.222   4.096   3.930 -2.5258  0.3042 -0.1035
  120SAPC  C21512618   2.162   3.908   3.846 -0.0369  0.2158  0.5108
  120SAPC  H15R12619   2.133   3.881   3.949  0.7311  0.0828  0.7016
  120SAPC  C21612620   2.144   3.803   3.752  0.4944 -0.2285  0.9955
  120SAPC  H16R12621   2.196   3.710   3.783  4.0869  0.9527 -0.8534
  120SAPC  H16S12622   2.184   3.832   3.652 -0.9244 -0.7003  0.2647
  120SAPC  C21712623   1.989   3.787   3.724  0.0839 -0.5892  0.0368
  120SAPC  H17R12624   1.957   3.879   3.669  0.0720  1.2848  2.9465
  120SAPC  H17S12625   1.922   3.804   3.811  0.7626  1.3656  0.2431
  120SAPC  C21812626   1.955   3.672   3.633  0.0815 -0.0919 -0.7882
  120SAPC  H18R12627   1.846   3.651   3.626 -0.1056  0.4393  0.2843
  120SAPC  H18S12628   2.004   3.578   3.667  1.8991  1.0730 -0.0298
  120SAPC  C21912629   1.991   3.711   3.494 -0.5777 -0.3870 -0.5528
  120SAPC  H19R12630   2.101   3.723   3.482 -0.6417  2.2050  0.6664
  120SAPC  H19S12631   1.962   3.818   3.480  1.4999  0.4375  1.0441
  120SAPC  C22012632   1.920   3.632   3.378 -0.2061  0.1933 -0.4381
  120SAPC  H20R12633   1.964   3.664   3.281  2.0481 -3.0256 -0.6467
  120SAPC  H20S12634   1.811   3.650   3.377 -0.4669 -1.2409 -1.6392
  120SAPC  H20T12635   1.940   3.525   3.400  0.1317  0.8371  3.0323
  120SAPC   C3312636   2.107   3.459   2.846 -0.3791 -0.2124 -0.2183
  120SAPC   H3X12637   2.160   3.532   2.911  0.4587 -0.9077 -0.0953
  120SAPC   H3Y12638   2.176   3.410   2.773 -0.9222 -1.9457  0.3893
  120SAPC   C3412639   2.091   3.346   2.953 -0.1677 -0.2654  0.6998
  120SAPC   H4X12640   2.187   3.322   3.003 -0.0314 -2.3979 -0.4467
  120SAPC   H4Y12641   2.056   3.256   2.897  0.2121  0.7757 -1.2895
  120SAPC   C3512642   2.004   3.395   3.065 -0.1257  0.1815  0.0393
  120SAPC   H5X12643   1.905   3.426   3.026 -0.6398  0.5965  1.6032
  120SAPC   H5Y12644   2.040   3.489   3.111  2.0486  0.1108 -1.4126
  120SAPC   C3612645   1.995   3.293   3.182  0.9678 -0.2770  0.0263
  120SAPC   H6X12646   1.972   3.190   3.149 -0.8547 -0.6031  2.0887
  120SAPC   H6Y12647   1.913   3.335   3.244  2.5145  3.3908 -0.1172
  120SAPC   C3712648   2.117   3.291   3.278 -0.0596 -0.7811  0.0155
  120SAPC   H7X12649   2.135   3.395   3.311  0.2620 -1.0025  0.5397
  120SAPC   H7Y12650   2.204   3.261   3.215  0.5046  0.9130 -0.0792
  120SAPC   C3812651   2.096   3.208   3.407  0.1894 -0.0211  0.1434
  120SAPC   H8X12652   2.190   3.199   3.467  0.3124  0.7570  0.0778
  120SAPC   H8Y12653   2.057   3.110   3.373  1.1446 -0.5233  0.4455
  120SAPC   C3912654   1.993   3.272   3.503  0.0618  0.5732  0.6643
  120SAPC   H9X12655   1.897   3.260   3.447  1.4884  0.1024 -1.8221
  120SAPC   H9Y12656   2.027   3.377   3.510 -1.5918  1.0273  3.8308
  120SAPC  C31012657   1.997   3.206   3.646  0.5088  0.5082  0.2143
  120SAPC  H10X12658   2.095   3.230   3.693  0.1909 -0.7852  1.6080
  120SAPC  H10Y12659   1.987   3.097   3.626  2.5185  0.5004 -0.9819
  120SAPC  C31112660   1.889   3.262   3.735 -0.3964 -0.1965 -0.0016
  120SAPC  H11X12661   1.794   3.227   3.688 -0.9773  2.2902 -0.7920
  120SAPC  H11Y12662   1.891   3.373   3.730  0.7073 -0.1839  0.3918
  120SAPC  C31212663   1.900   3.227   3.882  0.1151 -0.4686 -0.0638
  120SAPC  H12X12664   1.825   3.290   3.936  0.5169  0.5724 -0.6930
  120SAPC  H12Y12665   1.997   3.269   3.914 -0.7127  0.6725  1.0690
  120SAPC  C31312666   1.888   3.078   3.911 -0.3627 -0.0631 -0.1280
  120SAPC  H13X12667   1.858   3.029   3.816 -0.8206  0.4593 -0.2567
  120SAPC  H13Y12668   1.801   3.067   3.978 -2.0587  0.9934 -2.0503
  120SAPC  C31412669   2.015   3.014   3.970  0.2769  0.4308  0.1341
  120SAPC  H14X12670   2.094   3.040   3.897  0.7268  2.1295  1.1656
  120SAPC  H14Y12671   2.000   2.904   3.963  0.2131  0.5448 -2.7636
  120SAPC  C31512672   2.046   3.053   4.111  0.1983  0.1648  0.0977
  120SAPC  H15X12673   2.053   3.163   4.122  1.8414 -0.0428  1.6876
  120SAPC  H15Y12674   2.150   3.020   4.133  0.6395  0.2295 -1.7665
  120SAPC  C31612675   1.954   3.006   4.218  0.5526 -0.1723 -0.4639
  120SAPC  H16X12676   1.950   2.897   4.241 -0.8558  0.1403  0.9801
  120SAPC  H16Y12677   1.854   3.040   4.183 -0.2644 -0.2498  1.6040
  120SAPC  C31712678   1.973   3.075   4.348  0.2948  0.4234 -0.0361
  120SAPC  H17X12679   1.958   3.185   4.345  0.9228  0.5024 -0.6024
  120SAPC  H17Y12680   2.074   3.067   4.394 -0.0536 -0.1009  0.6519
  120SAPC  C31812681   1.880   3.007   4.448 -0.6266  0.3072 -0.1202
  120SAPC  H18X12682   1.879   3.063   4.545 -0.3820  1.3794 -0.7173
  120SAPC  H18Y12683   1.909   2.901   4.463 -0.9373  0.2285 -0.0482
  120SAPC  H18Z12684   1.776   2.997   4.409 -0.6823 -0.8873  0.2981
  121SAPC     N12685   6.219   5.412   1.773 -0.0792 -0.3695  0.3005
  121SAPC   C1212686   6.303   5.460   1.884  0.1909  0.2119 -0.1068
  121SAPC  H12A12687   6.297   5.568   1.893 -1.0827  0.0396  1.4168
  121SAPC  H12B12688   6.407   5.436   1.866  0.3121 -0.5977  1.5328
  121SAPC   C1312689   6.069   5.449   1.783  0.5109  0.3402  0.3730
  121SAPC  H13A12690   6.023   5.388   1.707 -1.6638  0.9236  1.1336
  121SAPC  H13B12691   6.025   5.407   1.872 -2.3312  0.8420 -0.6850
  121SAPC  H13C12692   6.051   5.555   1.766  1.0489  0.9031  2.9315
  121SAPC   C1412693   6.266   5.477   1.646 -0.1319  0.1284 -0.5031
  121SAPC  H14A12694   6.272   5.584   1.658  3.1227 -0.1053  1.1484
  121SAPC  H14B12695   6.359   5.439   1.607  1.6984  1.4963  2.2243
  121SAPC  H14C12696   6.197   5.454   1.566  1.8262 -1.1511 -1.9252
  121SAPC   C1512697   6.237   5.261   1.752  0.4203 -0.4883 -0.1750
  121SAPC  H15A12698   6.173   5.233   1.669  0.4216 -0.4629 -0.1847
  121SAPC  H15B12699   6.341   5.237   1.735  0.0767 -2.0443 -0.2089
  121SAPC  H15C12700   6.211   5.202   1.839  1.7977 -1.1855 -0.2175
  121SAPC   C1112701   6.273   5.398   2.028  0.6448  0.2297  0.2258
  121SAPC  H11A12702   6.171   5.431   2.058 -0.8985 -1.5821 -2.5840
  121SAPC  H11B12703   6.344   5.446   2.099 -0.8771  0.0736  1.9396
  121SAPC     P12704   6.236   5.153   2.129  0.3795 -0.2841  0.1414
  121SAPC   O1312705   6.108   5.093   2.089  0.5895 -0.4006  0.1119
  121SAPC   O1412706   6.344   5.055   2.150 -0.5726  0.1799 -0.2833
  121SAPC   O1212707   6.291   5.254   2.023 -0.5287  0.1474  0.2044
  121SAPC   O1112708   6.228   5.237   2.271  0.3805 -0.5556 -0.2317
  121SAPC    C112709   6.107   5.308   2.308  0.1938  0.2127  0.0497
  121SAPC    HA12710   6.072   5.384   2.235 -3.4192 -2.1339 -0.8873
  121SAPC    HB12711   6.020   5.241   2.319 -0.0447  0.5782  0.4399
  121SAPC    C212712   6.140   5.368   2.441  0.0964  0.1997 -0.2949
  121SAPC    HS12713   6.230   5.430   2.424 -0.3010  0.7673 -0.3748
  121SAPC   O2112714   6.155   5.272   2.546 -0.0281 -0.0344  0.3764
  121SAPC   C2112715   6.276   5.227   2.578 -0.0213  0.1088  0.0955
  121SAPC   O2212716   6.376   5.236   2.507 -0.4560 -0.2865  0.5163
  121SAPC   C2212717   6.272   5.147   2.707  0.0613  0.3518  0.3760
  121SAPC   H2R12718   6.378   5.127   2.729  0.3936 -0.5582 -1.7539
  121SAPC   H2S12719   6.226   5.204   2.791 -0.4357 -0.3187  0.5670
  121SAPC    C312720   6.032   5.475   2.488 -0.2863  0.7557  0.0704
  121SAPC    HX12721   5.940   5.413   2.490  1.3527 -1.8036 -0.2688
  121SAPC    HY12722   6.014   5.548   2.406 -2.7823  0.1515  0.0140
  121SAPC   O3112723   6.067   5.551   2.608  0.0608  0.7822 -0.0240
  121SAPC   C3112724   5.956   5.583   2.668  0.8919 -0.4565 -0.1376
  121SAPC   O3212725   5.842   5.555   2.626 -0.0377  0.0823 -0.4049
  121SAPC   C3212726   5.986   5.646   2.800 -0.0420  0.0958  0.3671
  121SAPC   H2X12727   6.011   5.754   2.792  1.4503 -0.3500 -1.9447
  121SAPC   H2Y12728   6.086   5.608   2.831 -0.2773 -0.4993  0.4051
  121SAPC   C2312729   6.194   5.011   2.684 -0.6253 -1.1218 -1.1379
  121SAPC   H3R12730   6.260   4.940   2.631  3.1395  1.2787 -0.0147
  121SAPC   H3S12731   6.099   5.035   2.630 -2.8651  0.3474  2.9630
  121SAPC   C2412732   6.146   4.949   2.822 -0.2679 -0.4729 -0.6744
  121SAPC   H4R12733   6.042   4.920   2.798 -0.7457 -0.0130  0.7407
  121SAPC   H4S12734   6.142   5.033   2.895  1.2762 -0.6789 -0.3221
  121SAPC   C2512735   6.234   4.839   2.888  0.0948  0.4209 -0.2822
  121SAPC   H5R12736   6.232   4.741   2.837 -1.2737 -0.9045  2.1401
  121SAPC   C2612737   6.328   4.845   2.987 -0.3274 -0.0264 -0.5460
  121SAPC   H6R12738   6.375   4.749   3.016  0.4176  0.4658 -0.0666
  121SAPC   C2712739   6.396   4.964   3.046 -0.7894  0.0414 -0.7481
  121SAPC   H7R12740   6.442   5.023   2.964  1.3244 -0.8832 -0.3002
  121SAPC   H7S12741   6.486   4.929   3.101 -1.7230  0.5215  1.1710
  121SAPC   C2812742   6.306   5.047   3.136 -0.0503 -0.0278 -0.7925
  121SAPC   H8R12743   6.238   5.105   3.073  1.9241  0.5089 -2.5304
  121SAPC   C2912744   6.297   5.051   3.273 -0.4347  0.6892 -0.3698
  121SAPC   H9R12745   6.243   5.128   3.329  1.5580  0.2036  2.4478
  121SAPC  C21012746   6.382   4.977   3.373 -0.1359  0.9564  0.0479
  121SAPC  H10R12747   6.472   5.037   3.397  1.0770 -0.9852  0.5431
  121SAPC  H10S12748   6.424   4.885   3.327 -3.4333 -0.7319  0.0979
  121SAPC  C21112749   6.305   4.931   3.494 -0.0456 -0.8796 -0.5645
  121SAPC  H11R12750   6.215   4.871   3.474 -1.1148  1.1798 -2.2402
  121SAPC  C21212751   6.355   4.937   3.622  0.0247  0.4950  0.8112
  121SAPC  H12R12752   6.294   4.898   3.705  2.9680 -3.8960  1.2330
  121SAPC  C21312753   6.475   5.013   3.670  0.5844 -0.2099  0.2735
  121SAPC  H13R12754   6.505   5.101   3.609  3.1730 -0.4485  1.0637
  121SAPC  H13S12755   6.562   4.944   3.660  0.2328 -0.5638 -0.3649
  121SAPC  C21412756   6.450   5.064   3.814  0.7210  0.1339 -0.0654
  121SAPC  H14R12757   6.343   5.076   3.835  1.0629  2.1044  0.6809
  121SAPC  C21512758   6.533   5.110   3.904 -0.0804 -0.2423  0.1021
  121SAPC  H15R12759   6.492   5.151   3.998  0.8602 -2.5310  1.6152
  121SAPC  C21612760   6.685   5.111   3.896  0.7481  0.3230  0.5660
  121SAPC  H16R12761   6.716   5.032   3.824  0.6389  0.3731  0.4639
  121SAPC  H16S12762   6.723   5.085   3.997  1.9003  3.1106  0.9355
  121SAPC  C21712763   6.753   5.239   3.856  0.9016  0.5589 -0.4672
  121SAPC  H17R12764   6.726   5.281   3.757 -0.0086 -0.4354 -0.6596
  121SAPC  H17S12765   6.857   5.208   3.837  0.3068 -1.2716 -0.9223
  121SAPC  C21812766   6.778   5.350   3.965  0.8756 -0.0173  0.2545
  121SAPC  H18R12767   6.819   5.305   4.058  3.1743  2.0490  0.3536
  121SAPC  H18S12768   6.682   5.397   3.996  0.9987 -0.2250  0.9757
  121SAPC  C21912769   6.876   5.458   3.912 -0.5405 -0.1435  0.0101
  121SAPC  H19R12770   6.967   5.405   3.876 -0.8079 -0.4370 -0.2479
  121SAPC  H19S12771   6.912   5.514   4.001  0.3175 -1.1258  0.3018
  121SAPC  C22012772   6.826   5.571   3.819  0.2185 -0.0729  0.8087
  121SAPC  H20R12773   6.724   5.600   3.850  0.4430  1.3014  0.3646
  121SAPC  H20S12774   6.816   5.525   3.718 -0.4360  1.5078  0.1018
  121SAPC  H20T12775   6.891   5.661   3.818  0.1333  0.0113  2.0772
  121SAPC   C3312776   5.886   5.614   2.921 -0.8586 -0.2222  0.6906
  121SAPC   H3X12777   5.840   5.514   2.906  1.9185 -1.2080 -2.3168
  121SAPC   H3Y12778   5.800   5.681   2.901 -0.8356 -0.3477  0.1625
  121SAPC   C3412779   5.947   5.628   3.056  0.6321  0.0931 -0.3844
  121SAPC   H4X12780   6.021   5.711   3.055  1.3561 -0.5519 -1.4364
  121SAPC   H4Y12781   6.015   5.546   3.086 -0.0470  0.4679  2.5495
  121SAPC   C3512782   5.839   5.654   3.167  0.1190  0.3677 -0.6338
  121SAPC   H5X12783   5.804   5.555   3.203 -1.5347  0.9089 -0.7078
  121SAPC   H5Y12784   5.753   5.703   3.119 -1.0026 -1.9790 -1.1536
  121SAPC   C3612785   5.878   5.714   3.305 -0.2667  0.0817 -0.1105
  121SAPC   H6X12786   5.783   5.729   3.361  0.4205 -1.6145  1.6139
  121SAPC   H6Y12787   5.938   5.807   3.300  2.3593 -1.5072 -0.1059
  121SAPC   C3712788   5.977   5.617   3.388  0.3286  0.0250 -0.4295
  121SAPC   H7X12789   6.058   5.606   3.313 -2.7698  1.1015 -4.2517
  121SAPC   H7Y12790   5.923   5.523   3.413  1.4452 -0.4435  0.2455
  121SAPC   C3812791   6.021   5.682   3.525  0.5732  0.5688  0.6474
  121SAPC   H8X12792   6.070   5.779   3.500  1.8365 -0.6949 -2.2279
  121SAPC   H8Y12793   6.094   5.616   3.576 -1.1161 -0.7595  1.4249
  121SAPC   C3912794   5.907   5.703   3.621 -0.4602  0.4162  0.4454
  121SAPC   H9X12795   5.855   5.607   3.644 -1.9624  1.0947  0.0367
  121SAPC   H9Y12796   5.834   5.777   3.579 -0.9432  0.4769  1.3539
  121SAPC  C31012797   5.971   5.767   3.745  0.1618  0.3222 -0.6343
  121SAPC  H10X12798   6.015   5.868   3.731  3.5317 -0.7668  0.9352
  121SAPC  H10Y12799   6.060   5.706   3.773  0.3342 -0.0711 -1.9664
  121SAPC  C31112800   5.876   5.763   3.869 -0.1503  0.1500 -0.2478
  121SAPC  H11X12801   5.828   5.663   3.873 -0.5584  0.3072 -1.0051
  121SAPC  H11Y12802   5.789   5.829   3.847 -0.0044  0.4777  0.1600
  121SAPC  C31212803   5.945   5.787   4.005  0.0796  0.2937  0.4318
  121SAPC  H12X12804   6.042   5.733   4.006  0.2746  0.6189 -0.2542
  121SAPC  H12Y12805   5.881   5.753   4.089  2.1093  1.8176  2.7649
  121SAPC  C31312806   5.980   5.934   4.032  0.2460  0.6776 -0.0146
  121SAPC  H13X12807   5.887   5.995   4.032  0.1038  0.4731 -0.6460
  121SAPC  H13Y12808   6.054   5.967   3.956  1.0865  0.6749  0.7793
  121SAPC  C31412809   6.053   5.946   4.169  0.9759 -0.0542  0.1762
  121SAPC  H14X12810   6.125   5.864   4.188 -0.5692 -2.2372 -2.5063
  121SAPC  H14Y12811   5.976   5.930   4.248 -0.1053  0.0627 -0.8302
  121SAPC  C31512812   6.082   6.091   4.203 -0.1435  0.3170  0.0717
  121SAPC  H15X12813   5.990   6.151   4.219  0.4826  0.9835  1.2987
  121SAPC  H15Y12814   6.143   6.130   4.119  0.3449  0.1765  0.3546
  121SAPC  C31612815   6.163   6.108   4.342 -0.4227 -0.2098  0.7264
  121SAPC  H16X12816   6.253   6.042   4.340 -1.9294 -2.3412 -0.8960
  121SAPC  H16Y12817   6.106   6.073   4.431 -0.3538 -0.3401  0.7212
  121SAPC  C31712818   6.205   6.251   4.375 -0.3247  0.6880 -0.0144
  121SAPC  H17X12819   6.122   6.324   4.359  1.4925  3.1679  1.2875
  121SAPC  H17Y12820   6.284   6.281   4.303  1.9794  0.7578  2.4050
  121SAPC  C31812821   6.238   6.280   4.528 -0.0088 -0.4436 -0.2186
  121SAPC  H18X12822   6.338   6.244   4.560  0.5544  0.4582 -0.8976
  121SAPC  H18Y12823   6.162   6.234   4.594 -1.3302 -0.4972 -1.7108
  121SAPC  H18Z12824   6.237   6.390   4.544 -0.5782 -0.3051 -1.1184
  122SAPC     N12825   1.625   3.710   1.933 -0.6442 -0.2429  0.1223
  122SAPC   C1212826   1.564   3.614   1.828 -0.7195  0.4034  0.0928
  122SAPC  H12A12827   1.552   3.676   1.740  0.2505  2.1675  1.1338
  122SAPC  H12B12828   1.468   3.579   1.860  0.1171  0.2853  2.6537
  122SAPC   C1312829   1.761   3.766   1.907  0.1346  0.4206 -0.3375
  122SAPC  H13A12830   1.760   3.843   1.831 -0.6542  0.0985 -0.6672
  122SAPC  H13B12831   1.805   3.800   2.000 -0.9300 -1.7809  1.0679
  122SAPC  H13C12832   1.821   3.692   1.858 -1.3595 -0.9114 -0.2479
  122SAPC   C1412833   1.534   3.830   1.953  0.2522  0.5277 -0.3065
  122SAPC  H14A12834   1.584   3.910   2.005  2.9445 -1.1752 -0.1009
  122SAPC  H14B12835   1.489   3.867   1.862  1.4911  0.5669 -0.9209
  122SAPC  H14C12836   1.449   3.807   2.015  1.0949  0.7311  0.9532
  122SAPC   C1512837   1.632   3.630   2.064 -0.3196  0.0547 -0.7950
  122SAPC  H15A12838   1.670   3.529   2.055 -0.2759 -0.6405  4.4460
  122SAPC  H15B12839   1.705   3.682   2.124  1.5329 -0.6272 -2.3317
  122SAPC  H15C12840   1.545   3.626   2.127  1.6772 -1.5677  2.0786
  122SAPC   C1112841   1.665   3.503   1.780 -0.1835 -0.6794  0.0070
  122SAPC  H11A12842   1.682   3.440   1.870  1.1846 -0.5831 -0.1565
  122SAPC  H11B12843   1.762   3.548   1.751  0.2140 -0.2734  1.8249
  122SAPC     P12844   1.585   3.274   1.669  0.1176  0.0110 -0.1032
  122SAPC   O1312845   1.461   3.256   1.597 -0.3178  0.0111 -0.3521
  122SAPC   O1412846   1.704   3.226   1.610 -0.3477 -0.2170  0.1069
  122SAPC   O1212847   1.607   3.426   1.683  0.4255 -0.5960  0.2468
  122SAPC   O1112848   1.556   3.192   1.810  0.2416 -0.3754 -0.6730
  122SAPC    C112849   1.465   3.233   1.912  0.4157  0.8051 -0.8009
  122SAPC    HA12850   1.492   3.339   1.933  1.8079  0.5875 -1.3867
  122SAPC    HB12851   1.358   3.231   1.883  0.2628 -1.2346 -0.2057
  122SAPC    C212852   1.477   3.145   2.034 -0.0118  0.2996 -0.3133
  122SAPC    HS12853   1.413   3.185   2.115 -1.1370 -0.7978 -0.6282
  122SAPC   O2112854   1.613   3.106   2.075 -0.2410  0.3109 -0.3070
  122SAPC   C2112855   1.679   3.207   2.117  0.4222 -0.2654 -0.1763
  122SAPC   O2212856   1.633   3.320   2.130 -0.4109  0.4943  0.3343
  122SAPC   C2212857   1.814   3.151   2.168 -0.6433 -0.0529  0.2653
  122SAPC   H2R12858   1.814   3.045   2.200  1.1155 -0.0685  0.3120
  122SAPC   H2S12859   1.888   3.146   2.086  0.0974 -3.1348  1.0107
  122SAPC    C312860   1.411   3.004   2.006 -0.4892 -0.3399 -0.4343
  122SAPC    HX12861   1.477   2.939   1.944  0.2436  0.2057 -0.2450
  122SAPC    HY12862   1.317   3.016   1.947 -1.1843 -1.1874  0.4686
  122SAPC   O3112863   1.379   2.939   2.134  0.3330 -0.1455 -0.2191
  122SAPC   C3112864   1.449   2.836   2.171  0.1896  0.1416  0.2469
  122SAPC   O3212865   1.546   2.792   2.111  0.0595  0.2671  0.1043
  122SAPC   C3212866   1.411   2.783   2.308  0.0559  0.4007 -0.5765
  122SAPC   H2X12867   1.476   2.699   2.338 -1.1230 -0.7285 -1.0425
  122SAPC   H2Y12868   1.307   2.745   2.296  0.2858 -0.3318 -0.2815
  122SAPC   C2312869   1.872   3.236   2.275 -0.4335  0.2606 -0.3473
  122SAPC   H3R12870   1.808   3.262   2.362  2.2307  2.2523  1.1804
  122SAPC   H3S12871   1.902   3.339   2.245 -0.2349  0.0810 -0.7796
  122SAPC   C2412872   2.003   3.175   2.332 -0.0580 -0.9151 -0.0431
  122SAPC   H4R12873   2.079   3.152   2.254 -0.1246  0.1566 -0.4507
  122SAPC   H4S12874   1.974   3.080   2.381 -0.0315 -0.6762  0.4388
  122SAPC   C2512875   2.077   3.263   2.427 -0.3442 -0.1947  0.0467
  122SAPC   H5R12876   2.101   3.368   2.402 -0.5592 -0.8372 -3.3499
  122SAPC   C2612877   2.110   3.223   2.553  0.6557  0.1523  0.7817
  122SAPC   H6R12878   2.176   3.287   2.613  2.7221  0.1358 -1.3514
  122SAPC   C2712879   2.079   3.094   2.629  0.1683 -1.0678 -0.1158
  122SAPC   H7R12880   1.974   3.061   2.611  0.3913 -1.2170 -1.1706
  122SAPC   H7S12881   2.072   3.118   2.737 -0.5833 -0.1464 -0.3532
  122SAPC   C2812882   2.169   2.979   2.601  0.1757 -0.0087  0.3118
  122SAPC   H8R12883   2.237   3.009   2.520 -0.7680  0.2403 -0.3986
  122SAPC   C2912884   2.194   2.873   2.676  0.2582  0.2654 -0.3061
  122SAPC   H9R12885   2.246   2.786   2.634  0.5164 -0.0145  0.5753
  122SAPC  C21012886   2.124   2.843   2.807  0.6597  0.4003 -0.4145
  122SAPC  H10R12887   2.019   2.880   2.811  0.5351 -0.0493  1.2973
  122SAPC  H10S12888   2.174   2.892   2.893 -0.5242 -0.9399  1.1027
  122SAPC  C21112889   2.114   2.706   2.847 -0.2484  0.0774  0.2934
  122SAPC  H11R12890   2.075   2.644   2.765  0.8624  2.4578 -2.2039
  122SAPC  C21212891   2.137   2.655   2.968 -0.2101  0.8544  0.4000
  122SAPC  H12R12892   2.125   2.548   2.990 -2.2682  1.2371  1.4481
  122SAPC  C21312893   2.173   2.724   3.091  0.3338 -0.7264  0.2469
  122SAPC  H13R12894   2.090   2.708   3.164  0.4993  1.7609  1.0759
  122SAPC  H13S12895   2.162   2.833   3.074 -1.3144 -0.9355 -0.2236
  122SAPC  C21412896   2.310   2.689   3.127 -0.1506  0.3461 -0.5375
  122SAPC  H14R12897   2.378   2.632   3.062  1.3460  1.4787 -0.0422
  122SAPC  C21512898   2.356   2.718   3.254 -0.0621 -0.2914  0.0903
  122SAPC  H15R12899   2.461   2.688   3.270  0.5573  0.9852 -1.2408
  122SAPC  C21612900   2.294   2.797   3.364 -0.2864 -0.1639  0.2517
  122SAPC  H16R12901   2.212   2.861   3.324 -0.8008 -0.0851  1.3793
  122SAPC  H16S12902   2.367   2.866   3.411 -1.5530  3.1127 -2.2344
  122SAPC  C21712903   2.228   2.701   3.465 -0.2512  0.1396  0.4781
  122SAPC  H17R12904   2.301   2.626   3.502 -0.7651  0.0921  1.4264
  122SAPC  H17S12905   2.145   2.653   3.409 -0.6766 -0.8999  1.9407
  122SAPC  C21812906   2.175   2.777   3.582  0.3474 -0.3218 -0.3360
  122SAPC  H18R12907   2.113   2.701   3.636 -1.2723 -0.3407 -2.1340
  122SAPC  H18S12908   2.111   2.861   3.547  0.4666  0.9446  2.2239
  122SAPC  C21912909   2.269   2.838   3.681 -0.6849 -0.1123  0.4397
  122SAPC  H19R12910   2.206   2.889   3.757 -2.4012  0.1003 -1.0676
  122SAPC  H19S12911   2.338   2.912   3.635 -1.3613 -0.0112 -0.4293
  122SAPC  C22012912   2.350   2.735   3.758 -0.1109 -0.3126  0.0133
  122SAPC  H20R12913   2.403   2.769   3.850  1.0376  1.4641 -1.2236
  122SAPC  H20S12914   2.425   2.684   3.693  0.0939 -0.9159  0.7120
  122SAPC  H20T12915   2.280   2.658   3.796 -0.9704  1.0991  1.3942
  122SAPC   C3312916   1.409   2.901   2.406  0.2113  0.4511  1.0088
  122SAPC   H3X12917   1.366   2.871   2.503  0.7452  1.0236  1.4297
  122SAPC   H3Y12918   1.355   2.986   2.357  0.3519 -1.9836 -4.0742
  122SAPC   C3412919   1.559   2.932   2.440  0.1565  0.2189 -0.0004
  122SAPC   H4X12920   1.603   2.977   2.348  0.5283  1.2614  0.6689
  122SAPC   H4Y12921   1.609   2.840   2.478  0.2816  0.7405  1.1433
  122SAPC   C3512922   1.558   3.025   2.562  0.1658  0.4365 -0.1224
  122SAPC   H5X12923   1.472   2.991   2.624  2.0693 -2.5251  1.1332
  122SAPC   H5Y12924   1.555   3.128   2.521 -2.2262 -0.4087 -2.2968
  122SAPC   C3612925   1.683   3.007   2.654 -0.1549  0.5342  0.1884
  122SAPC   H6X12926   1.775   3.012   2.591 -1.0244 -3.1988 -1.6554
  122SAPC   H6Y12927   1.668   2.913   2.710 -0.6778  0.1407 -0.5932
  122SAPC   C3712928   1.695   3.113   2.764 -0.2868 -0.5289 -0.7153
  122SAPC   H7X12929   1.610   3.144   2.828  1.3893 -1.0445  1.9498
  122SAPC   H7Y12930   1.726   3.207   2.714 -0.7460  1.0162  1.7096
  122SAPC   C3812931   1.793   3.064   2.869 -0.2685  0.1262 -0.5129
  122SAPC   H8X12932   1.825   3.148   2.934 -0.7494 -0.7574  0.8977
  122SAPC   H8Y12933   1.884   3.026   2.817  0.6310 -1.3168  1.9397
  122SAPC   C3912934   1.741   2.972   2.978 -0.2692  0.1692 -0.0803
  122SAPC   H9X12935   1.667   2.896   2.944  0.5407 -0.2859 -0.8719
  122SAPC   H9Y12936   1.693   3.031   3.059  2.2753 -1.5047  2.8594
  122SAPC  C31012937   1.845   2.900   3.068  0.1914 -0.6084 -0.1424
  122SAPC  H10X12938   1.917   2.982   3.091  0.8877 -1.5055  0.9651
  122SAPC  H10Y12939   1.897   2.818   3.015  2.7036  0.4834  0.5084
  122SAPC  C31112940   1.805   2.849   3.209  0.3994 -0.0342 -1.0502
  122SAPC  H11X12941   1.897   2.812   3.259 -0.2657  0.4362  0.5890
  122SAPC  H11Y12942   1.746   2.756   3.195 -0.8535  0.4718  0.6371
  122SAPC  C31212943   1.725   2.950   3.300  0.2916 -0.0209 -0.4388
  122SAPC  H12X12944   1.633   2.976   3.244  0.2262 -0.5568 -0.5857
  122SAPC  H12Y12945   1.781   3.045   3.316 -0.0405 -0.0826  1.1825
  122SAPC  C31312946   1.685   2.890   3.440 -0.2848 -0.1711  0.8638
  122SAPC  H13X12947   1.620   2.802   3.425 -0.1850  0.0921 -1.5487
  122SAPC  H13Y12948   1.626   2.970   3.490  1.0922  0.7031  1.1626
  122SAPC  C31412949   1.803   2.837   3.528 -0.0808 -0.3678  0.2838
  122SAPC  H14X12950   1.864   2.921   3.568  1.5737 -2.4724  2.4517
  122SAPC  H14Y12951   1.875   2.764   3.486  0.7144 -1.3997  3.2097
  122SAPC  C31512952   1.743   2.772   3.664 -0.4004  0.6426 -0.0077
  122SAPC  H15X12953   1.644   2.732   3.635  0.4442 -1.2393 -0.4815
  122SAPC  H15Y12954   1.706   2.854   3.730 -0.0082  2.8257 -2.3685
  122SAPC  C31612955   1.834   2.654   3.721 -0.0102 -0.0250 -0.0366
  122SAPC  H16X12956   1.885   2.594   3.641 -1.9253  0.3135 -1.5810
  122SAPC  H16Y12957   1.760   2.584   3.764 -1.0237  0.1014 -1.4946
  122SAPC  C31712958   1.936   2.683   3.826  0.1234  0.9356 -0.4537
  122SAPC  H17X12959   1.876   2.702   3.917  0.4012 -2.3915  0.5631
  122SAPC  H17Y12960   1.996   2.773   3.800 -2.1279  2.0034 -2.2908
  122SAPC  C31812961   2.024   2.563   3.849 -0.6033 -0.6449 -0.2590
  122SAPC  H18X12962   2.095   2.585   3.931  0.3391  0.4605 -1.3235
  122SAPC  H18Y12963   2.072   2.529   3.755  0.9485  2.5998 -0.8119
  122SAPC  H18Z12964   1.962   2.481   3.891 -1.3178 -1.2137 -2.2869
  123SAPC     N12965   3.262   0.930   1.957 -0.6042 -0.5785 -0.5984
  123SAPC   C1212966   3.362   1.013   2.038  0.1979 -0.0358 -0.6850
  123SAPC  H12A12967   3.458   0.978   2.005 -0.0683 -1.4512 -0.0306
  123SAPC  H12B12968   3.345   0.987   2.141 -0.5373  0.9957 -0.5222
  123SAPC   C1312969   3.309   0.931   1.815 -0.5721 -0.0815  0.3314
  123SAPC  H13A12970   3.233   0.890   1.749 -0.5924  1.5030 -0.6658
  123SAPC  H13B12971   3.331   1.034   1.795 -0.1780 -0.0706  0.8160
  123SAPC  H13C12972   3.394   0.865   1.803 -2.3536 -2.5463  0.4380
  123SAPC   C1412973   3.254   0.790   2.010 -0.7195 -0.6447 -0.0645
  123SAPC  H14A12974   3.347   0.736   2.005  0.3651  1.2609 -2.0826
  123SAPC  H14B12975   3.211   0.794   2.109 -2.7382  1.7531 -0.9161
  123SAPC  H14C12976   3.184   0.738   1.947  0.3828 -0.2164 -1.7164
  123SAPC   C1512977   3.124   0.988   1.973 -0.2313 -0.3703  0.4010
  123SAPC  H15A12978   3.051   0.955   1.901 -0.2423  2.1355 -0.8340
  123SAPC  H15B12979   3.082   0.975   2.072 -1.6739 -2.5592 -0.4332
  123SAPC  H15C12980   3.125   1.094   1.949 -0.1555 -0.1039  1.5312
  123SAPC   C1112981   3.362   1.167   2.034  0.1186  0.7498 -0.0146
  123SAPC  H11A12982   3.435   1.213   2.104 -0.1100  0.7713  0.2103
  123SAPC  H11B12983   3.263   1.202   2.069 -1.8582 -3.0874 -1.2169
  123SAPC     P12984   3.338   1.349   1.835 -0.0209  0.0690 -0.2584
  123SAPC   O1312985   3.425   1.374   1.726  0.5572  0.1418  0.9897
  123SAPC   O1412986   3.190   1.343   1.816  0.6918  0.1668 -0.5836
  123SAPC   O1212987   3.386   1.216   1.897 -0.0494 -0.1922 -0.1653
  123SAPC   O1112988   3.370   1.460   1.938  0.4495  0.5158  0.1820
  123SAPC    C112989   3.503   1.474   1.993  0.0240  0.5048 -0.2134
  123SAPC    HA12990   3.532   1.376   2.036 -0.3203  0.8015  0.7145
  123SAPC    HB12991   3.581   1.487   1.915 -0.8748 -1.0869 -1.4171
  123SAPC    C212992   3.514   1.576   2.107  0.5098 -0.8764  1.1071
  123SAPC    HS12993   3.605   1.552   2.165 -0.4139 -0.7867  2.6675
  123SAPC   O2112994   3.389   1.590   2.193 -0.2767  0.3247 -0.5761
  123SAPC   C2112995   3.381   1.483   2.276 -0.0252  0.2934  0.4861
  123SAPC   O2212996   3.470   1.400   2.286  0.0464 -0.3959 -0.0043
  123SAPC   C2212997   3.232   1.470   2.318  0.1405  0.0858  0.0739
  123SAPC   H2R12998   3.174   1.560   2.288 -1.8733 -0.6393  1.5579
  123SAPC   H2S12999   3.192   1.381   2.264  0.5983 -0.0340 -0.0677
  123SAPC    C313000   3.535   1.721   2.036 -0.5781 -0.2702  0.3089
  123SAPC    HX13001   3.438   1.740   1.984 -0.8763  1.2609  1.3658
  123SAPC    HY13002   3.616   1.715   1.961  0.6324 -1.3118  1.6535
  123SAPC   O3113003   3.547   1.822   2.136 -0.0554 -0.4977  0.4053
  123SAPC   C3113004   3.645   1.915   2.118 -0.0066  0.5465 -0.3552
  123SAPC   O3213005   3.739   1.903   2.039 -0.6835  0.2572  0.3642
  123SAPC   C3213006   3.629   2.039   2.211  0.1602  0.2871 -0.6721
  123SAPC   H2X13007   3.520   2.060   2.213 -0.5643 -2.9784  1.1595
  123SAPC   H2Y13008   3.679   2.124   2.159  1.5517  1.1437  1.9022
  123SAPC   C2313009   3.211   1.440   2.465 -0.4114 -0.2705 -0.4168
  123SAPC   H3R13010   3.246   1.523   2.530 -0.1625 -0.7036  0.0119
  123SAPC   H3S13011   3.272   1.353   2.498 -1.2605 -0.4126  0.8526
  123SAPC   C2413012   3.064   1.408   2.513  0.5626 -0.2190  0.1620
  123SAPC   H4R13013   3.051   1.385   2.621 -4.0445 -1.0101 -0.3737
  123SAPC   H4S13014   3.026   1.318   2.459 -0.4227  1.0151 -1.2831
  123SAPC   C2513015   2.972   1.519   2.474 -0.5311  0.1616  0.6990
  123SAPC   H5R13016   2.951   1.524   2.366 -1.3863 -0.6499  0.8091
  123SAPC   C2613017   2.925   1.610   2.555  0.2702  0.1193  0.1468
  123SAPC   H6R13018   2.854   1.676   2.503  1.1002 -0.2193 -1.4691
  123SAPC   C2713019   2.942   1.633   2.704  0.4132  0.5022  0.1644
  123SAPC   H7R13020   2.999   1.548   2.746  1.9237  0.3843 -1.9498
  123SAPC   H7S13021   2.839   1.639   2.745  0.6429  0.5217  0.7451
  123SAPC   C2813022   3.017   1.759   2.735 -0.6204  0.0409 -0.0592
  123SAPC   H8R13023   2.973   1.849   2.690 -2.6985 -0.9226 -0.0587
  123SAPC   C2913024   3.122   1.776   2.817  0.5156 -0.2594 -0.8743
  123SAPC   H9R13025   3.168   1.876   2.814  0.3551 -0.1689 -0.4175
  123SAPC  C21013026   3.198   1.671   2.904 -0.3708 -0.1364  0.5284
  123SAPC  H10R13027   3.292   1.714   2.945 -0.7328  0.1306  1.0929
  123SAPC  H10S13028   3.233   1.599   2.827 -1.0158  0.1270 -0.0197
  123SAPC  C21113029   3.119   1.602   3.014  0.5432 -0.4122  0.1525
  123SAPC  H11R13030   3.043   1.530   2.979  1.0531  0.0571 -2.0564
  123SAPC  C21213031   3.124   1.627   3.147 -0.0872  0.2409  0.3990
  123SAPC  H12R13032   3.055   1.560   3.201 -3.5486  2.0783 -1.3790
  123SAPC  C21313033   3.186   1.745   3.218 -0.6954 -0.7057 -0.5069
  123SAPC  H13R13034   3.101   1.817   3.224  0.4355  1.2744 -4.3555
  123SAPC  H13S13035   3.268   1.793   3.160  0.5872  2.7148  3.6156
  123SAPC  C21413036   3.249   1.693   3.352  1.3470 -0.2985 -0.0939
  123SAPC  H14R13037   3.341   1.637   3.329  1.4756 -0.3037  0.4345
  123SAPC  C21513038   3.184   1.700   3.470 -1.0229  0.3191  1.0032
  123SAPC  H15R13039   3.245   1.671   3.557  0.3810 -0.4769 -0.2057
  123SAPC  C21613040   3.054   1.757   3.513 -0.0981 -0.8088 -0.2487
  123SAPC  H16R13041   2.982   1.685   3.559 -1.5400 -0.6119 -2.0673
  123SAPC  H16S13042   3.007   1.810   3.427 -0.0702  1.3802  1.0315
  123SAPC  C21713043   3.087   1.868   3.612  0.1314 -0.6572 -0.0736
  123SAPC  H17R13044   2.994   1.923   3.637 -0.0005 -0.0624 -1.7874
  123SAPC  H17S13045   3.162   1.938   3.570  0.0073 -0.5681 -0.1440
  123SAPC  C21813046   3.136   1.819   3.751  0.5314  0.5339 -0.3851
  123SAPC  H18R13047   3.234   1.768   3.742 -0.0126 -0.7176  0.4863
  123SAPC  H18S13048   3.068   1.739   3.790 -0.8245  1.5813 -0.5096
  123SAPC  C21913049   3.148   1.930   3.866 -0.5635  0.0557 -0.1678
  123SAPC  H19R13050   3.045   1.974   3.861 -0.2660  0.6506 -1.3277
  123SAPC  H19S13051   3.225   2.005   3.837 -1.0177  0.7999  0.4873
  123SAPC  C22013052   3.169   1.865   4.003  0.0388 -0.1429 -0.5021
  123SAPC  H20R13053   3.082   1.801   4.028 -0.3645  1.2325  1.9268
  123SAPC  H20S13054   3.186   1.933   4.089 -0.3220 -2.1908  1.2466
  123SAPC  H20T13055   3.256   1.796   4.005 -0.1212 -0.3380  1.4285
  123SAPC   C3313056   3.688   2.038   2.354  0.0947  0.2451  0.2298
  123SAPC   H3X13057   3.651   1.949   2.409 -0.0917 -1.4159 -2.4193
  123SAPC   H3Y13058   3.658   2.133   2.403  2.2843  1.0905  0.0125
  123SAPC   C3413059   3.841   2.040   2.338  0.0585 -0.0906 -0.7016
  123SAPC   H4X13060   3.867   2.129   2.277 -0.2256  0.8447  0.4831
  123SAPC   H4Y13061   3.878   1.946   2.293  0.4404  0.0664 -0.7263
  123SAPC   C3513062   3.913   2.052   2.480  0.2358  0.4694  0.1207
  123SAPC   H5X13063   3.890   2.149   2.528 -2.4982 -0.6016  1.2365
  123SAPC   H5Y13064   4.022   2.031   2.478  0.5768  2.0877 -1.7347
  123SAPC   C3613065   3.850   1.960   2.585 -0.3377  0.0265 -0.4216
  123SAPC   H6X13066   3.815   1.870   2.530 -0.6611 -0.2858  0.2864
  123SAPC   H6Y13067   3.754   2.003   2.618 -1.9512 -1.8073 -2.4201
  123SAPC   C3713068   3.940   1.911   2.698 -0.0133 -0.7736 -0.2554
  123SAPC   H7X13069   4.029   1.852   2.665  0.4732 -0.6211  0.7580
  123SAPC   H7Y13070   3.878   1.854   2.770  0.8514  2.3281  3.2327
  123SAPC   C3813071   3.994   2.021   2.790 -0.4496  0.1071  0.2182
  123SAPC   H8X13072   3.912   2.065   2.852 -0.7858 -1.3224  0.8307
  123SAPC   H8Y13073   4.052   2.094   2.731 -2.5150  1.5451 -0.1512
  123SAPC   C3913074   4.095   1.972   2.893 -0.1747 -0.0787 -1.1055
  123SAPC   H9X13075   4.196   1.979   2.846  0.3195  0.8231  0.0655
  123SAPC   H9Y13076   4.073   1.864   2.909  2.1548 -0.2422  1.8357
  123SAPC  C31013077   4.074   2.045   3.030  0.9794 -0.1464  0.2416
  123SAPC  H10X13078   3.971   2.031   3.070  0.1736  2.6742 -0.5740
  123SAPC  H10Y13079   4.076   2.154   3.008  2.2059 -0.0432  0.8004
  123SAPC  C31113080   4.170   2.002   3.136 -0.1016 -0.5548  0.2578
  123SAPC  H11X13081   4.191   1.894   3.116 -1.0396 -1.3590  3.1016
  123SAPC  H11Y13082   4.118   2.006   3.233 -1.4559  1.5199 -0.5046
  123SAPC  C31213083   4.295   2.100   3.142 -0.6299  0.0451 -0.0624
  123SAPC  H12X13084   4.267   2.207   3.157  0.6736  0.3156  0.5293
  123SAPC  H12Y13085   4.354   2.105   3.048 -0.0161  0.6697  0.3460
  123SAPC  C31313086   4.395   2.049   3.247  0.4300 -0.3911  0.3807
  123SAPC  H13X13087   4.441   1.959   3.200 -0.4402 -0.7557  0.1901
  123SAPC  H13Y13088   4.337   2.024   3.339 -0.6431 -1.2913 -0.5078
  123SAPC  C31413089   4.499   2.150   3.287  0.2834  0.3426  0.0465
  123SAPC  H14X13090   4.437   2.241   3.296  0.8117  1.0509 -2.5094
  123SAPC  H14Y13091   4.564   2.163   3.197 -2.0698  0.2457 -1.7504
  123SAPC  C31513092   4.589   2.124   3.405 -0.2112 -0.8229  0.9907
  123SAPC  H15X13093   4.659   2.210   3.408  0.4375 -1.2614 -0.5060
  123SAPC  H15Y13094   4.654   2.035   3.393  1.6988  0.6058  0.3000
  123SAPC  C31613095   4.511   2.111   3.536  0.4963 -0.1541 -0.6161
  123SAPC  H16X13096   4.463   2.011   3.539  0.0350  0.0097 -1.8796
  123SAPC  H16Y13097   4.436   2.192   3.522  2.1141  1.3892 -0.7304
  123SAPC  C31713098   4.597   2.131   3.660 -0.2044  0.3808 -0.0537
  123SAPC  H17X13099   4.668   2.212   3.632  2.4975 -2.4071 -1.9892
  123SAPC  H17Y13100   4.674   2.056   3.689 -0.0727  0.4755 -0.1488
  123SAPC  C31813101   4.515   2.165   3.779 -0.8853  0.7301  0.5325
  123SAPC  H18X13102   4.437   2.087   3.795 -0.4804  0.3247  0.5267
  123SAPC  H18Y13103   4.469   2.264   3.760 -1.2850  0.8099  1.8446
  123SAPC  H18Z13104   4.590   2.181   3.859  0.6897 -0.3800 -0.6483
  124SAPC     N13105   5.145   0.644   2.471  0.0290  0.7489 -0.1844
  124SAPC   C1213106   5.038   0.682   2.378  0.6332  0.6624 -0.1512
  124SAPC  H12A13107   5.058   0.781   2.339 -1.4423  0.5534 -1.6690
  124SAPC  H12B13108   4.937   0.684   2.415 -0.5906  1.9366 -3.1999
  124SAPC   C1313109   5.134   0.504   2.520  0.1491 -0.4439  0.3375
  124SAPC  H13A13110   5.055   0.495   2.593 -0.1279  4.0196  0.8449
  124SAPC  H13B13111   5.115   0.435   2.439  0.3548  0.4115 -0.4554
  124SAPC  H13C13112   5.228   0.468   2.558 -0.3040 -0.7194  1.2207
  124SAPC   C1413113   5.278   0.658   2.402 -0.6356  0.1495 -0.1967
  124SAPC  H14A13114   5.360   0.634   2.469 -1.1107  0.2434  0.4231
  124SAPC  H14B13115   5.279   0.588   2.320  1.7203 -1.3644  0.9928
  124SAPC  H14C13116   5.303   0.753   2.357 -0.1052 -1.1971 -2.9528
  124SAPC   C1513117   5.129   0.735   2.592  0.1752 -0.3499  0.1440
  124SAPC  H15A13118   5.220   0.727   2.649 -1.1548 -0.0779  2.4283
  124SAPC  H15B13119   5.116   0.833   2.548  1.7777 -0.8666 -1.6145
  124SAPC  H15C13120   5.049   0.708   2.659  2.7192  0.3474  3.7659
  124SAPC   C1113121   5.026   0.604   2.250  0.4352 -0.0286 -0.1019
  124SAPC  H11A13122   5.043   0.495   2.264  0.0786 -0.2060 -0.9969
  124SAPC  H11B13123   5.104   0.643   2.181 -2.0007  1.8159 -2.0248
  124SAPC     P13124   4.769   0.550   2.223 -0.1464  0.2352  0.4303
  124SAPC   O1313125   4.661   0.602   2.138  0.2431  0.2110  0.4640
  124SAPC   O1413126   4.793   0.401   2.209  0.0473 -0.6782 -1.1292
  124SAPC   O1213127   4.903   0.634   2.190 -0.5273 -0.1046  0.4927
  124SAPC   O1113128   4.744   0.590   2.380 -0.3847  0.6149 -0.6057
  124SAPC    C113129   4.772   0.495   2.488 -0.1091  0.4419  0.2756
  124SAPC    HA13130   4.731   0.397   2.455  0.8594  0.9888 -2.8610
  124SAPC    HB13131   4.883   0.493   2.496  0.1266  0.8757 -2.3073
  124SAPC    C213132   4.719   0.538   2.630  0.3298  0.2971 -0.1419
  124SAPC    HS13133   4.611   0.512   2.624  0.1413  0.8202  0.8100
  124SAPC   O2113134   4.741   0.683   2.654  0.4184 -0.0539  0.1641
  124SAPC   C2113135   4.669   0.774   2.608  0.3891  0.3816  1.1983
  124SAPC   O2213136   4.575   0.768   2.531 -0.4561  0.0201  0.7877
  124SAPC   C2213137   4.736   0.906   2.653  0.3698 -0.3658 -0.1129
  124SAPC   H2R13138   4.837   0.909   2.607  0.9196 -1.9121  0.9091
  124SAPC   H2S13139   4.674   0.993   2.623  0.3178 -0.1904  0.4856
  124SAPC    C313140   4.782   0.453   2.740 -0.9174  0.1200  0.0170
  124SAPC    HX13141   4.770   0.347   2.710  0.8175 -0.3982  1.0201
  124SAPC    HY13142   4.725   0.477   2.832 -0.6040  3.3676 -0.5111
  124SAPC   O3113143   4.923   0.485   2.749 -0.2964  0.7297  0.5928
  124SAPC   C3113144   4.975   0.455   2.870 -0.3953 -0.2839 -0.1233
  124SAPC   O3213145   4.925   0.380   2.954 -0.3591 -0.5249 -0.2234
  124SAPC   C3213146   5.113   0.528   2.888  0.5222  1.2315  0.6729
  124SAPC   H2X13147   5.127   0.625   2.835  1.2804  1.0756  0.5720
  124SAPC   H2Y13148   5.189   0.454   2.856  0.9196  2.4379 -1.3784
  124SAPC   C2313149   4.739   0.915   2.812  0.4931 -0.6973 -0.5257
  124SAPC   H3R13150   4.823   0.856   2.855 -0.6713 -1.0915  1.3285
  124SAPC   H3S13151   4.645   0.882   2.860 -0.2035 -0.4141 -1.6515
  124SAPC   C2413152   4.752   1.058   2.863 -0.1566  0.4519  0.3785
  124SAPC   H4R13153   4.659   1.102   2.821  0.1969  1.8424  0.9833
  124SAPC   H4S13154   4.831   1.107   2.803  1.5134 -0.7839  1.4786
  124SAPC   C2513155   4.772   1.082   3.010  0.4183  0.6094  0.1049
  124SAPC   H5R13156   4.866   1.057   3.063 -0.6354  1.7694  2.6797
  124SAPC   C2613157   4.681   1.146   3.089 -0.3413 -0.4298  0.0676
  124SAPC   H6R13158   4.706   1.165   3.195 -1.8813  0.2448  0.3320
  124SAPC   C2713159   4.547   1.201   3.057  0.0913 -0.4441  0.8532
  124SAPC   H7R13160   4.470   1.141   3.110 -1.8897  0.9291 -0.3472
  124SAPC   H7S13161   4.525   1.190   2.948  0.6667 -2.4502  0.8852
  124SAPC   C2813162   4.531   1.343   3.108 -0.3445  0.0726  0.1541
  124SAPC   H8R13163   4.611   1.380   3.174  0.7723  0.3412 -1.3080
  124SAPC   C2913164   4.424   1.420   3.080 -0.7736  0.0443 -0.1091
  124SAPC   H9R13165   4.424   1.519   3.128  3.2121 -1.1003  2.8465
  124SAPC  C21013166   4.302   1.380   2.998 -0.7987 -0.0989  0.2902
  124SAPC  H10R13167   4.220   1.346   3.066 -2.5831  0.3500 -1.5400
  124SAPC  H10S13168   4.324   1.285   2.946  0.1482  0.0070  0.4854
  124SAPC  C21113169   4.262   1.482   2.898 -0.0199 -0.3385  0.1339
  124SAPC  H11R13170   4.305   1.473   2.797  1.1725  1.6983  0.4009
  124SAPC  C21213171   4.173   1.582   2.914  0.1924 -0.0338 -0.4665
  124SAPC  H12R13172   4.137   1.633   2.824  0.5473 -0.7185 -1.0098
  124SAPC  C21313173   4.104   1.614   3.042 -0.4697  0.0057  0.1079
  124SAPC  H13R13174   4.095   1.725   3.042 -2.1400 -0.0545 -2.4337
  124SAPC  H13S13175   4.150   1.579   3.137  0.3087  0.6928  0.0009
  124SAPC  C21413176   3.960   1.569   3.033 -0.0658  0.2609  0.4716
  124SAPC  H14R13177   3.919   1.577   2.931 -0.2369 -1.1182  0.4238
  124SAPC  C21513178   3.866   1.554   3.132  0.1785  0.3323  1.0108
  124SAPC  H15R13179   3.764   1.526   3.103  0.8060 -0.3042 -0.7007
  124SAPC  C21613180   3.897   1.553   3.282 -0.7553 -0.3917 -0.2980
  124SAPC  H16R13181   3.807   1.584   3.339 -1.1610  0.9097 -1.5822
  124SAPC  H16S13182   3.970   1.635   3.296  0.4004 -1.5365  0.6171
  124SAPC  C21713183   3.936   1.414   3.322 -0.0733 -1.1662 -0.2702
  124SAPC  H17R13184   4.008   1.375   3.247  0.5745 -2.4869  0.9719
  124SAPC  H17S13185   3.857   1.337   3.316  1.4827 -2.8092 -0.3699
  124SAPC  C21813186   3.998   1.401   3.462 -0.5740  0.1063  0.4908
  124SAPC  H18R13187   4.040   1.298   3.469  1.7398  0.8669 -0.9251
  124SAPC  H18S13188   3.911   1.398   3.530 -1.4785 -0.7036 -0.6622
  124SAPC  C21913189   4.115   1.497   3.503 -0.8653 -0.6761 -0.8066
  124SAPC  H19R13190   4.089   1.603   3.485  1.3940 -0.0711 -0.8326
  124SAPC  H19S13191   4.197   1.478   3.431 -0.0726  1.2292 -0.4619
  124SAPC  C22013192   4.164   1.484   3.651 -0.4550  0.0159  0.6524
  124SAPC  H20R13193   4.257   1.540   3.672 -0.8201  0.7661  0.3072
  124SAPC  H20S13194   4.176   1.377   3.679  0.8743  0.3189  1.3110
  124SAPC  H20T13195   4.083   1.533   3.710  1.3969  1.2368  2.3306
  124SAPC   C3313196   5.148   0.566   3.028 -0.0617 -0.0690 -0.8979
  124SAPC   H3X13197   5.121   0.483   3.096 -0.5130 -0.0361 -1.0312
  124SAPC   H3Y13198   5.108   0.663   3.065 -0.6100 -0.1205 -1.3411
  124SAPC   C3413199   5.302   0.563   3.042 -0.6248  0.4065  0.5434
  124SAPC   H4X13200   5.347   0.603   2.949  1.8845 -1.2817  0.9327
  124SAPC   H4Y13201   5.336   0.457   3.040 -1.8019 -0.0056 -2.2798
  124SAPC   C3513202   5.364   0.645   3.155 -0.1323  0.2600 -0.6481
  124SAPC   H5X13203   5.338   0.590   3.249  0.5000  0.5575 -0.2926
  124SAPC   H5Y13204   5.302   0.737   3.153 -4.1135 -2.1275  0.3859
  124SAPC   C3613205   5.505   0.684   3.143 -0.4127 -0.1265 -0.4063
  124SAPC   H6X13206   5.522   0.725   3.042  1.4234  1.1955  0.3830
  124SAPC   H6Y13207   5.564   0.590   3.139  1.6864  1.0357  1.0943
  124SAPC   C3713208   5.564   0.775   3.256  0.1188  0.3610 -0.1719
  124SAPC   H7X13209   5.551   0.718   3.351  2.0059  1.0689  0.5456
  124SAPC   H7Y13210   5.505   0.870   3.261  0.9880  0.8481  1.5163
  124SAPC   C3813211   5.711   0.791   3.221 -0.0784  0.1275  0.1552
  124SAPC   H8X13212   5.709   0.826   3.116 -1.6542  1.1156  0.4898
  124SAPC   H8Y13213   5.756   0.690   3.232  0.0731  0.3618  2.0771
  124SAPC   C3913214   5.779   0.903   3.296 -0.5211  0.4421 -0.2000
  124SAPC   H9X13215   5.732   1.003   3.286 -0.3119  0.4269 -1.5310
  124SAPC   H9Y13216   5.880   0.931   3.259  0.1026  0.9600  1.7535
  124SAPC  C31013217   5.804   0.865   3.446 -0.1644 -0.1620  0.1382
  124SAPC  H10X13218   5.827   0.757   3.457 -0.2365 -0.2535 -0.5826
  124SAPC  H10Y13219   5.707   0.883   3.498 -0.5904 -1.0330 -0.3349
  124SAPC  C31113220   5.897   0.973   3.503  0.0423 -0.1992  0.9218
  124SAPC  H11X13221   5.857   1.076   3.486  0.1592 -0.5022 -1.5225
  124SAPC  H11Y13222   5.986   0.953   3.440 -0.7432 -0.8161 -0.0230
  124SAPC  C31213223   5.934   0.954   3.646 -1.2690  0.0337  0.1582
  124SAPC  H12X13224   5.987   0.859   3.669  0.4770  1.5226  2.8152
  124SAPC  H12Y13225   5.842   0.944   3.708 -1.0028  3.0339  1.1898
  124SAPC  C31313226   6.023   1.066   3.694 -0.6900 -0.4022 -0.5763
  124SAPC  H13X13227   5.977   1.162   3.661  1.3889  0.4421 -1.1532
  124SAPC  H13Y13228   6.124   1.053   3.651  0.0845  0.7504  0.7964
  124SAPC  C31413229   6.021   1.075   3.849  0.7966 -0.5091  0.1758
  124SAPC  H14X13230   6.108   1.138   3.876 -1.2192  1.4655  2.5571
  124SAPC  H14Y13231   6.031   0.973   3.891 -0.8382 -0.7387  0.0810
  124SAPC  C31513232   5.894   1.127   3.914 -0.2117  0.3073 -0.0325
  124SAPC  H15X13233   5.802   1.074   3.880 -1.0674  0.7221  1.5463
  124SAPC  H15Y13234   5.875   1.232   3.885  0.2393  1.2703  2.8718
  124SAPC  C31613235   5.889   1.122   4.066  0.3240 -0.1050 -0.4580
  124SAPC  H16X13236   5.979   1.165   4.114 -0.3015  0.7568 -0.0371
  124SAPC  H16Y13237   5.896   1.015   4.093 -1.6681  0.0589  0.8989
  124SAPC  C31713238   5.755   1.180   4.120 -0.3167 -0.0257 -0.0097
  124SAPC  H17X13239   5.669   1.147   4.059  0.5833 -3.4109  0.3552
  124SAPC  H17Y13240   5.755   1.291   4.119  0.3784 -0.0238 -0.0683
  124SAPC  C31813241   5.726   1.140   4.265 -0.5461 -0.5249 -0.5348
  124SAPC  H18X13242   5.634   1.190   4.304  0.7526  0.3941  1.5134
  124SAPC  H18Y13243   5.806   1.170   4.337 -2.2064  1.3142  0.6555
  124SAPC  H18Z13244   5.719   1.029   4.259  2.9158 -0.7935 -2.0233
  125SOPE     N13245   2.756   3.712   6.249  0.1669  0.1125 -0.3463
  125SOPE   HN113246   2.843   3.659   6.274 -1.2585 -1.3396  1.9171
  125SOPE   HN213247   2.755   3.711   6.145  1.4846 -0.0340 -0.3773
  125SOPE   HN313248   2.776   3.811   6.272  2.6669 -0.2349 -0.6875
  125SOPE   C1213249   2.630   3.665   6.312  0.4493 -0.4936 -0.2308
  125SOPE  H12A13250   2.637   3.707   6.415  0.9928 -0.9781 -0.0641
  125SOPE  H12B13251   2.627   3.554   6.317  2.8493 -0.5733  0.4857
  125SOPE   C1113252   2.510   3.718   6.234  0.5129  0.4755 -0.5471
  125SOPE  H11A13253   2.492   3.657   6.143  0.2795  0.0819 -0.2403
  125SOPE  H11B13254   2.530   3.821   6.199  2.2608  0.2392 -0.3201
  125SOPE     P13255   2.285   3.603   6.331 -0.1768 -0.0777  0.2261
  125SOPE   O1313256   2.155   3.666   6.376 -0.3940 -0.1303  0.0049
  125SOPE   O1413257   2.334   3.484   6.403 -0.6621  0.3787 -0.6378
  125SOPE   O1213258   2.392   3.711   6.323  0.8362 -0.2864 -0.2616
  125SOPE   O1113259   2.255   3.572   6.178  0.6860  0.4003 -0.2960
  125SOPE    C113260   2.257   3.434   6.130 -0.7130 -0.2488  0.2540
  125SOPE    HA13261   2.175   3.429   6.055  1.0687  0.4724 -1.8598
  125SOPE    HB13262   2.237   3.364   6.214 -2.4639  0.5987  0.5989
  125SOPE    C213263   2.401   3.393   6.071  0.2904 -0.0714  0.0570
  125SOPE    HS13264   2.466   3.409   6.160 -0.7394  2.4728  0.4529
  125SOPE   O2113265   2.435   3.492   5.969 -0.2226 -0.3363 -0.1891
  125SOPE   C2113266   2.566   3.502   5.948  0.2612 -0.4654 -0.1709
  125SOPE   O2213267   2.654   3.450   6.019 -0.2704  0.7603  0.3343
  125SOPE   C2213268   2.591   3.598   5.828  0.5902  0.1137 -0.0635
  125SOPE   H2R13269   2.699   3.589   5.806  0.8811  1.9496  0.4363
  125SOPE   H2S13270   2.564   3.702   5.857 -0.4370  0.6557 -2.6398
  125SOPE    C313271   2.405   3.247   6.010  0.2159 -0.2987 -0.3839
  125SOPE    HX13272   2.388   3.176   6.093 -0.0873 -0.8363 -0.9008
  125SOPE    HY13273   2.510   3.223   5.981  0.1117  0.8494 -1.8271
  125SOPE   O3113274   2.297   3.224   5.913 -0.3559 -0.2351  0.2984
  125SOPE   C3113275   2.346   3.230   5.793 -0.1238 -0.2935 -0.4275
  125SOPE   O3213276   2.462   3.251   5.765 -0.4921 -0.5178 -0.5097
  125SOPE   C3213277   2.235   3.219   5.684 -0.1053 -0.0080 -0.1510
  125SOPE   H2X13278   2.264   3.281   5.597 -0.5617  0.9752  0.3825
  125SOPE   H2Y13279   2.147   3.275   5.721  0.1408  1.6464 -1.9473
  125SOPE   C2313280   2.508   3.559   5.707  0.2046 -0.7079 -0.8823
  125SOPE   H3R13281   2.397   3.553   5.715  0.0257  1.4613 -1.2032
  125SOPE   H3S13282   2.547   3.457   5.685  2.0871 -0.0340 -0.8414
  125SOPE   C2413283   2.535   3.646   5.583  0.3876 -0.3533  0.3363
  125SOPE   H4R13284   2.481   3.742   5.594  0.1184 -0.3699 -0.7501
  125SOPE   H4S13285   2.641   3.676   5.569  0.3795 -1.5250 -3.2595
  125SOPE   C2513286   2.497   3.577   5.448 -0.5330  0.5251  0.6424
  125SOPE   H5R13287   2.537   3.473   5.444  1.1259  1.1584 -0.9213
  125SOPE   H5S13288   2.387   3.569   5.433 -0.7044  2.3667  0.7540
  125SOPE   C2613289   2.556   3.643   5.326  0.2668 -0.2663 -0.3039
  125SOPE   H6R13290   2.543   3.753   5.323  0.1768 -0.3050 -2.7594
  125SOPE   H6S13291   2.663   3.613   5.324 -0.0706 -1.8174  1.3917
  125SOPE   C2713292   2.497   3.592   5.188 -0.2745 -0.0858  0.1344
  125SOPE   H7R13293   2.512   3.482   5.185 -1.5813 -0.2578 -2.4658
  125SOPE   H7S13294   2.391   3.624   5.190 -0.2535  0.0854 -1.1159
  125SOPE   C2813295   2.556   3.640   5.058 -0.0872  0.7765  0.2553
  125SOPE   H8R13296   2.663   3.609   5.063  0.4998  2.7218  0.5542
  125SOPE   H8S13297   2.499   3.586   4.979 -1.4730  1.4690  0.7558
  125SOPE   C2913298   2.543   3.784   5.036  0.0788 -1.0284  0.7876
  125SOPE   H9113299   2.536   3.847   5.125 -0.2723  1.6457 -1.0237
  125SOPE  C21013300   2.519   3.850   4.913  0.1004  0.2232  0.4541
  125SOPE  H10113301   2.527   3.960   4.918 -2.4180  0.4657  0.1184
  125SOPE  C21113302   2.521   3.791   4.774 -0.2499  0.8417  0.4329
  125SOPE  H11R13303   2.425   3.796   4.718 -0.5059 -0.9914  0.6203
  125SOPE  H11S13304   2.548   3.684   4.792 -1.1332  0.4228 -0.6473
  125SOPE  C21213305   2.632   3.876   4.704  0.5577  0.1178  0.9046
  125SOPE  H12R13306   2.724   3.876   4.765  0.7955 -0.6811  0.5663
  125SOPE  H12S13307   2.608   3.983   4.687 -2.1601 -0.7889 -1.9113
  125SOPE  C21313308   2.685   3.803   4.581  0.1464  0.3032  0.6932
  125SOPE  H13R13309   2.650   3.698   4.574 -0.2296  0.4718 -0.1083
  125SOPE  H13S13310   2.796   3.796   4.583  0.3838  2.7820 -0.2326
  125SOPE  C21413311   2.643   3.864   4.446 -0.3019  0.6529  0.1281
  125SOPE  H14R13312   2.537   3.898   4.452  0.0787  2.0452 -0.6572
  125SOPE  H14S13313   2.665   3.786   4.371  0.0648  1.0903 -0.2207
  125SOPE  C21513314   2.721   3.990   4.418 -0.9162  0.2818 -0.0268
  125SOPE  H15R13315   2.696   4.056   4.504 -0.0615  0.3966  0.1465
  125SOPE  H15S13316   2.691   4.034   4.321 -0.5292  0.4459 -0.0734
  125SOPE  C21613317   2.870   3.979   4.406 -0.4219  0.5167 -0.1086
  125SOPE  H16R13318   2.910   3.926   4.494  1.6077 -1.3933 -2.0546
  125SOPE  H16S13319   2.922   4.077   4.398  0.7717 -0.0948 -0.0921
  125SOPE  C21713320   2.919   3.897   4.286 -0.6942  0.2671 -0.0942
  125SOPE  H17R13321   2.891   3.942   4.188  3.2486 -1.1991 -2.1108
  125SOPE  H17S13322   2.879   3.794   4.296 -0.0351  0.0507  0.3911
  125SOPE  C21813323   3.078   3.886   4.291  0.2485 -0.2171  0.4260
  125SOPE  H18R13324   3.118   3.898   4.394 -2.2081 -0.4368  1.4650
  125SOPE  H18S13325   3.120   3.964   4.224  0.3064 -0.0261  0.6835
  125SOPE  H18T13326   3.116   3.793   4.242  0.0218  0.3239 -0.8313
  125SOPE   C3313327   2.195   3.082   5.634 -0.0356  0.1249 -0.3215
  125SOPE   H3X13328   2.171   3.025   5.727  0.2091  3.3008  1.8536
  125SOPE   H3Y13329   2.277   3.034   5.576  0.7145  0.4647  0.4415
  125SOPE   C3413330   2.071   3.077   5.547  0.0531 -0.5817  0.0573
  125SOPE   H4X13331   2.113   3.098   5.446  0.2760  0.5162  0.3696
  125SOPE   H4Y13332   2.014   3.163   5.586  1.9353 -0.4053  2.6589
  125SOPE   C3513333   1.992   2.944   5.565 -0.7811 -0.0593  0.3393
  125SOPE   H5X13334   1.888   2.960   5.529 -0.6206  0.9793  0.3171
  125SOPE   H5Y13335   1.986   2.924   5.674 -1.5815  0.2683  0.3561
  125SOPE   C3613336   2.055   2.828   5.500 -0.1091 -0.1444  0.0417
  125SOPE   H6X13337   1.991   2.746   5.539 -1.9256  1.3225  0.2604
  125SOPE   H6Y13338   2.159   2.821   5.537 -0.7625  1.0752  2.2679
  125SOPE   C3713339   2.047   2.826   5.350 -0.6033 -0.5130  0.1859
  125SOPE   H7X13340   2.120   2.900   5.310 -0.6162 -0.7973 -0.3604
  125SOPE   H7Y13341   1.943   2.840   5.316  0.0883  0.0175 -1.8618
  125SOPE   C3813342   2.099   2.693   5.300  0.3003  0.3978  0.0624
  125SOPE   H8X13343   2.055   2.619   5.370  0.4852  1.3093  1.1746
  125SOPE   H8Y13344   2.208   2.686   5.318  0.5455  0.3269 -1.3419
  125SOPE   C3913345   2.072   2.670   5.149 -0.6521  0.9600 -0.8043
  125SOPE   H9X13346   1.966   2.659   5.119 -0.2211 -0.2543 -1.9346
  125SOPE   H9Y13347   2.130   2.576   5.135  1.3230  1.9139  0.4473
  125SOPE  C31013348   2.150   2.757   5.043  0.6406  0.3676 -0.8565
  125SOPE  H10X13349   2.257   2.762   5.075 -0.5848 -1.6400  4.6376
  125SOPE  H10Y13350   2.098   2.855   5.036  0.3852  0.3328  0.3762
  125SOPE  C31113351   2.135   2.692   4.907 -0.0777  0.8833  0.2858
  125SOPE  H11X13352   2.030   2.670   4.877  1.2513 -1.9430 -2.8919
  125SOPE  H11Y13353   2.191   2.597   4.906 -0.0444  0.8766  1.3794
  125SOPE  C31213354   2.184   2.790   4.804  0.0345 -0.1794 -0.2150
  125SOPE  H12X13355   2.288   2.815   4.832 -0.1453 -0.8234  1.0642
  125SOPE  H12Y13356   2.131   2.887   4.790  0.3237  0.0008 -0.0626
  125SOPE  C31313357   2.206   2.729   4.665  0.9630 -0.0311  0.6281
  125SOPE  H13X13358   2.125   2.652   4.657  1.4607 -0.4683 -0.4905
  125SOPE  H13Y13359   2.306   2.681   4.669  1.0051  0.1393  3.8598
  125SOPE  C31413360   2.205   2.835   4.556  0.4436 -0.0977 -0.2585
  125SOPE  H14X13361   2.290   2.902   4.579 -0.8683  1.0779  1.4537
  125SOPE  H14Y13362   2.112   2.895   4.546 -0.0531 -0.9614 -0.9763
  125SOPE  C31513363   2.234   2.775   4.417 -0.1127 -0.8478  0.6868
  125SOPE  H15X13364   2.334   2.728   4.408  0.1841  0.0608 -1.6353
  125SOPE  H15Y13365   2.247   2.857   4.342 -0.5645  1.2949  2.8203
  125SOPE  C31613366   2.138   2.671   4.361 -0.2038 -0.3922  0.3033
  125SOPE  H16X13367   2.034   2.711   4.368  0.0619  0.4065 -0.2825
  125SOPE  H16Y13368   2.126   2.587   4.434 -1.7446 -0.4376  0.0330
  125SOPE  C31713369   2.159   2.622   4.223 -0.7116  0.1697  0.1680
  125SOPE  H17X13370   2.159   2.709   4.153 -4.0128  0.1901  0.0329
  125SOPE  H17Y13371   2.078   2.555   4.189  0.6436 -1.3752 -0.1187
  125SOPE  C31813372   2.284   2.542   4.198 -0.1844  0.5642  0.1672
  125SOPE  H18X13373   2.369   2.611   4.219 -0.2938  0.4672  0.9784
  125SOPE  H18Y13374   2.296   2.522   4.090  2.7059 -1.2018  0.7071
  125SOPE  H18Z13375   2.288   2.446   4.254  1.5199  0.3113 -0.3082
  126SOPE     N13376   0.767   0.591   7.023 -0.4677 -0.1257  0.4511
  126SOPE   HN113377   0.667   0.606   7.049 -0.9129 -0.9079 -0.7275
  126SOPE   HN213378   0.797   0.494   7.042 -3.3293 -1.5442 -1.5585
  126SOPE   HN313379   0.826   0.649   7.086  3.3063 -1.6166 -1.4310
  126SOPE   C1213380   0.794   0.626   6.883 -0.1544 -0.2739 -0.0005
  126SOPE  H12A13381   0.896   0.589   6.859 -0.4849 -1.6005  0.5388
  126SOPE  H12B13382   0.783   0.736   6.868  2.1728  0.1454  0.9371
  126SOPE   C1113383   0.691   0.555   6.802 -0.4782 -0.0149  0.2384
  126SOPE  H11A13384   0.721   0.571   6.697  0.9160  0.4352  0.6930
  126SOPE  H11B13385   0.585   0.588   6.812  0.0521  1.4574  1.2836
  126SOPE     P13386   0.791   0.306   6.791  0.0160 -0.1439 -0.6892
  126SOPE   O1313387   0.722   0.184   6.839 -0.4978 -0.1324 -0.2899
  126SOPE   O1413388   0.930   0.335   6.842  0.3896 -0.4799 -0.4179
  126SOPE   O1213389   0.692   0.417   6.837  0.3985 -0.4217 -0.0720
  126SOPE   O1113390   0.782   0.307   6.633 -0.1876 -0.3347  0.0400
  126SOPE    C113391   0.686   0.215   6.570 -0.7869 -0.0105  0.1471
  126SOPE    HA13392   0.584   0.220   6.613  0.3133  1.4044  2.8278
  126SOPE    HB13393   0.725   0.111   6.560 -0.5635  0.0860 -0.0041
  126SOPE    C213394   0.661   0.270   6.426 -0.5980  0.2066  0.2050
  126SOPE    HS13395   0.611   0.369   6.434  0.2098  0.4887  2.9644
  126SOPE   O2113396   0.600   0.169   6.350  0.2997  0.3686  0.6233
  126SOPE   C2113397   0.463   0.177   6.348  0.0594  0.2177 -0.0171
  126SOPE   O2213398   0.397   0.256   6.408  0.1666  0.0721 -0.7406
  126SOPE   C2213399   0.399   0.082   6.249  0.6103  0.3342  0.1122
  126SOPE   H2R13400   0.293   0.071   6.279  0.6094  1.0244  0.3803
  126SOPE   H2S13401   0.457  -0.013   6.249  1.3492  0.7778 -0.1074
  126SOPE    C313402   0.797   0.294   6.360 -0.9513  0.7968  0.4786
  126SOPE    HX13403   0.854   0.199   6.365  1.6548  2.3378  2.1738
  126SOPE    HY13404   0.843   0.376   6.419  0.7218 -0.4218  0.9298
  126SOPE   O3113405   0.777   0.337   6.221 -0.2938  0.3030  0.1239
  126SOPE   C3113406   0.770   0.250   6.123 -0.5134 -0.0901 -0.8008
  126SOPE   O3213407   0.796   0.130   6.139 -0.4901 -0.4811  0.4917
  126SOPE   C3213408   0.743   0.313   5.983 -1.1162 -0.7333 -0.0143
  126SOPE   H2X13409   0.819   0.391   5.961  1.6682 -2.6215  2.1255
  126SOPE   H2Y13410   0.644   0.360   6.001 -0.4117  0.1133  1.8907
  126SOPE   C2313411   0.396   0.146   6.110  0.3137 -0.0205  0.3763
  126SOPE   H3R13412   0.392   0.067   6.031  1.1401  0.9740 -0.6848
  126SOPE   H3S13413   0.494   0.194   6.094  0.4294 -0.4258 -0.1782
  126SOPE   C2413414   0.281   0.251   6.088  0.3218  0.6037  0.0864
  126SOPE   H4R13415   0.178   0.211   6.093  0.7813 -0.5977  0.2625
  126SOPE   H4S13416   0.288   0.325   6.171  0.3376  1.9696 -1.1005
  126SOPE   C2513417   0.294   0.333   5.960  0.4639  0.2913 -0.1387
  126SOPE   H5R13418   0.402   0.360   5.959  0.2059  1.4229 -1.5525
  126SOPE   H5S13419   0.275   0.263   5.876 -0.4368 -0.4521  0.6611
  126SOPE   C2613420   0.209   0.467   5.951  0.2049  0.1207 -0.0241
  126SOPE   H6R13421   0.105   0.465   5.989  0.0535  0.2175 -0.4281
  126SOPE   H6S13422   0.254   0.546   6.015  1.4969 -0.9253  0.4034
  126SOPE   C2713423   0.200   0.517   5.813  0.2248  0.6003 -0.1266
  126SOPE   H7R13424   0.292   0.479   5.766  0.5825  1.0604  0.1936
  126SOPE   H7S13425   0.115   0.481   5.752  0.0124 -0.9493  1.0154
  126SOPE   C2813426   0.195   0.670   5.807  0.2542 -0.0577 -0.3054
  126SOPE   H8R13427   0.271   0.714   5.876  0.2126  2.2911 -1.6677
  126SOPE   H8S13428   0.216   0.702   5.703  0.5395 -0.0657 -0.2506
  126SOPE   C2913429   0.061   0.722   5.853  0.0559 -0.4303 -0.6344
  126SOPE   H9113430   0.069   0.742   5.961  0.1001 -2.0681 -0.3219
  126SOPE  C21013431  -0.042   0.756   5.776  0.5310  0.4817  1.0858
  126SOPE  H10113432  -0.138   0.794   5.814 -0.0820  0.9807 -0.8133
  126SOPE  C21113433  -0.043   0.749   5.619 -0.6990 -0.0289 -0.1216
  126SOPE  H11R13434   0.054   0.703   5.590 -1.5434 -2.1008  0.1672
  126SOPE  H11S13435  -0.063   0.850   5.578 -1.9220 -0.0406  0.3989
  126SOPE  C21213436  -0.162   0.657   5.577 -0.2788  0.2611 -0.2350
  126SOPE  H12R13437  -0.257   0.703   5.611 -0.1689 -0.3612  0.9484
  126SOPE  H12S13438  -0.151   0.557   5.623 -3.4034  0.1095  0.4621
  126SOPE  C21313439  -0.169   0.643   5.427  0.1475  0.1837  0.1842
  126SOPE  H13R13440  -0.067   0.633   5.385  0.8402 -1.0114  2.0463
  126SOPE  H13S13441  -0.218   0.737   5.394  0.4147  0.3673  0.3031
  126SOPE  C21413442  -0.249   0.523   5.382 -0.6665 -0.5231 -0.1755
  126SOPE  H14R13443  -0.344   0.517   5.438 -2.9843  1.6246 -3.4692
  126SOPE  H14S13444  -0.180   0.437   5.395  1.1514  0.9660  0.5783
  126SOPE  C21513445  -0.281   0.511   5.237 -0.3547  0.2484  0.0691
  126SOPE  H15R13446  -0.370   0.571   5.209 -1.0752 -0.3361  1.0392
  126SOPE  H15S13447  -0.307   0.405   5.217 -0.0917  0.3517 -0.8434
  126SOPE  C21613448  -0.161   0.543   5.144  0.8049  0.0833 -0.3273
  126SOPE  H16R13449  -0.076   0.474   5.163  1.3857  0.5183 -1.2445
  126SOPE  H16S13450  -0.131   0.648   5.163 -0.6351  0.7905 -1.7564
  126SOPE  C21713451  -0.210   0.536   4.996  0.1779 -0.5414 -0.7921
  126SOPE  H17R13452  -0.136   0.599   4.941  0.4206  1.1424  1.3287
  126SOPE  H17S13453  -0.300   0.601   4.996  0.2672 -0.4166 -0.2765
  126SOPE  C21813454  -0.215   0.394   4.934 -0.5376  0.0574  0.8707
  126SOPE  H18R13455  -0.122   0.341   4.962  1.5208  3.3553  0.7956
  126SOPE  H18S13456  -0.223   0.417   4.826  0.4544  2.0909  1.1801
  126SOPE  H18T13457  -0.304   0.342   4.975  0.4834 -1.3535  1.3463
  126SOPE   C3313458   0.736   0.221   5.861 -0.1283 -0.5512 -0.4199
  126SOPE   H3X13459   0.647   0.156   5.865 -2.2578  2.1647 -0.9700
  126SOPE   H3Y13460   0.826   0.156   5.853  0.1004 -0.1607 -1.1514
  126SOPE   C3413461   0.730   0.287   5.719  0.2785  0.1191 -1.1613
  126SOPE   H4X13462   0.812   0.363   5.714 -0.4808  1.2121  1.2706
  126SOPE   H4Y13463   0.638   0.349   5.718 -0.5708 -0.9822  1.2911
  126SOPE   C3513464   0.745   0.183   5.607  0.2833  0.0659  0.0908
  126SOPE   H5X13465   0.673   0.100   5.625  1.9057 -1.8412 -1.6792
  126SOPE   H5Y13466   0.845   0.135   5.610 -1.0788 -3.2064 -1.2495
  126SOPE   C3613467   0.718   0.240   5.464 -0.4300  0.5660  0.0215
  126SOPE   H6X13468   0.618   0.287   5.455 -0.7214 -0.0793 -0.1664
  126SOPE   H6Y13469   0.714   0.159   5.388  0.0863  0.4225  0.1426
  126SOPE   C3713470   0.823   0.341   5.392  0.2932 -0.0551  0.0287
  126SOPE   H7X13471   0.927   0.313   5.417  0.1622 -0.8735 -0.3037
  126SOPE   H7Y13472   0.810   0.442   5.437 -2.3546  0.4090 -1.5501
  126SOPE   C3813473   0.799   0.355   5.246 -0.4364  0.0928  0.1794
  126SOPE   H8X13474   0.701   0.401   5.221 -1.4611 -1.1737  1.6317
  126SOPE   H8Y13475   0.819   0.260   5.191 -0.7746  0.5691 -0.8008
  126SOPE   C3913476   0.890   0.467   5.186 -0.3909 -0.5081  0.4543
  126SOPE   H9X13477   0.997   0.439   5.200 -0.2682 -1.0324 -1.3621
  126SOPE   H9Y13478   0.876   0.560   5.246  0.9876  1.2300 -1.7359
  126SOPE  C31013479   0.871   0.508   5.037  0.6710 -0.1013 -0.2268
  126SOPE  H10X13480   0.909   0.415   4.991  4.1022  0.8332  0.4807
  126SOPE  H10Y13481   0.937   0.594   5.012  0.0432  0.6548  0.6188
  126SOPE  C31113482   0.724   0.542   5.007 -0.4513  0.2411  0.9166
  126SOPE  H11X13483   0.681   0.614   5.080 -1.8361  0.7370 -0.3279
  126SOPE  H11Y13484   0.668   0.448   5.026 -0.4343 -0.3399 -1.5501
  126SOPE  C31213485   0.707   0.585   4.858  0.0658 -0.3415 -0.2757
  126SOPE  H12X13486   0.774   0.522   4.796  1.4105 -1.2232  1.9551
  126SOPE  H12Y13487   0.747   0.688   4.852  0.4899 -0.5822 -1.7580
  126SOPE  C31313488   0.558   0.576   4.806 -0.5733  0.6931 -0.2301
  126SOPE  H13X13489   0.493   0.638   4.871  0.5464 -1.0391  2.7785
  126SOPE  H13Y13490   0.520   0.475   4.835 -0.0533  1.0658  1.9315
  126SOPE  C31413491   0.556   0.595   4.650  0.1508  0.3452 -0.9103
  126SOPE  H14X13492   0.450   0.573   4.624 -0.0676 -1.5239  1.2013
  126SOPE  H14Y13493   0.613   0.507   4.612  2.9819  0.9194  1.6527
  126SOPE  C31513494   0.599   0.733   4.596 -0.2370 -0.3359 -0.4391
  126SOPE  H15X13495   0.709   0.741   4.612 -0.2767 -1.3582  0.4211
  126SOPE  H15Y13496   0.541   0.816   4.643 -0.7614  0.0617 -1.7529
  126SOPE  C31613497   0.570   0.737   4.448 -0.0205 -0.3872  0.0436
  126SOPE  H16X13498   0.477   0.683   4.420 -0.1963  0.7078 -1.6337
  126SOPE  H16Y13499   0.654   0.705   4.383  3.2368  1.1896  3.1406
  126SOPE  C31713500   0.545   0.888   4.407  0.9659  0.1840  0.9283
  126SOPE  H17X13501   0.565   0.868   4.300  0.6737  1.5134  0.5978
  126SOPE  H17Y13502   0.616   0.967   4.441  0.7679  0.4478  0.7353
  126SOPE  C31813503   0.396   0.929   4.430 -0.5345  0.6889 -0.2499
  126SOPE  H18X13504   0.371   1.027   4.385  0.6346  1.5762  0.9785
  126SOPE  H18Y13505   0.364   0.926   4.536 -0.4587  0.8042 -0.2251
  126SOPE  H18Z13506   0.320   0.865   4.379  0.2621 -1.2251  0.8531
  127SOPE     N13507   4.871   3.935   6.702  0.3109  0.3072 -0.0051
  127SOPE   HN113508   4.931   3.984   6.771  0.8169  1.4048 -1.1849
  127SOPE   HN213509   4.819   4.011   6.654  0.6166  0.4992 -0.0366
  127SOPE   HN313510   4.805   3.872   6.751 -0.2945  0.0419 -1.1138
  127SOPE   C1213511   4.953   3.862   6.596  0.6309 -0.6040 -0.5435
  127SOPE  H12A13512   4.976   3.760   6.634  0.8905  0.0464  1.1283
  127SOPE  H12B13513   5.047   3.920   6.585 -1.0134  2.3050 -0.0765
  127SOPE   C1113514   4.875   3.844   6.468 -1.3821 -0.7336 -0.1491
  127SOPE  H11A13515   4.935   3.819   6.378 -2.2691 -0.6456 -0.7817
  127SOPE  H11B13516   4.841   3.948   6.447 -0.2608 -0.3053  0.1205
  127SOPE     P13517   4.738   3.621   6.427  0.3397 -0.1648 -0.4700
  127SOPE   O1313518   4.602   3.589   6.410  0.3295 -0.1557  0.0073
  127SOPE   O1413519   4.819   3.529   6.508  0.0992  0.5258  0.1273
  127SOPE   O1213520   4.756   3.763   6.489  0.6771  0.1598 -0.1847
  127SOPE   O1113521   4.799   3.632   6.285 -0.0161  0.0108 -0.6706
  127SOPE    C113522   4.753   3.744   6.203  0.5216 -0.3722 -0.0990
  127SOPE    HA13523   4.837   3.794   6.152 -0.1551  2.3671  1.3134
  127SOPE    HB13524   4.707   3.824   6.265 -4.1877 -0.1921 -3.2900
  127SOPE    C213525   4.658   3.702   6.094 -0.5771 -0.2602  0.9835
  127SOPE    HS13526   4.570   3.653   6.141 -0.6967  0.0038  1.0355
  127SOPE   O2113527   4.721   3.601   6.011 -0.2660 -0.5141 -0.0659
  127SOPE   C2113528   4.629   3.537   5.930 -0.8656 -0.4667  0.5093
  127SOPE   O2213529   4.511   3.556   5.922 -0.3109 -0.0469  0.5826
  127SOPE   C2213530   4.702   3.439   5.840 -0.1023  0.5059  0.3761
  127SOPE   H2R13531   4.765   3.377   5.907 -1.3189 -1.0763  0.1169
  127SOPE   H2S13532   4.780   3.497   5.785 -0.5865  0.7091 -0.1054
  127SOPE    C313533   4.621   3.823   5.996 -0.7588  0.3331  1.0734
  127SOPE    HX13534   4.598   3.908   6.064  2.1950  0.8814  1.4825
  127SOPE    HY13535   4.531   3.787   5.940  0.3335 -0.5659 -0.1584
  127SOPE   O3113536   4.733   3.864   5.911  0.3880 -0.3490 -0.1518
  127SOPE   C3113537   4.709   3.851   5.780 -0.6891 -0.0169 -0.7449
  127SOPE   O3213538   4.619   3.790   5.730 -0.1227 -0.1686  0.0628
  127SOPE   C3213539   4.821   3.934   5.707 -0.3623  0.5763  0.1228
  127SOPE   H2X13540   4.922   3.936   5.753 -1.6439 -1.7096  3.4239
  127SOPE   H2Y13541   4.781   4.036   5.691 -2.0082 -0.1383 -0.6633
  127SOPE   C2313542   4.614   3.363   5.752 -0.4611 -0.2669 -0.4394
  127SOPE   H3R13543   4.521   3.330   5.803  0.6795 -4.5798 -0.7688
  127SOPE   H3S13544   4.659   3.262   5.741  0.8965  0.4912 -2.6495
  127SOPE   C2413545   4.606   3.428   5.608  0.2464 -0.0781 -0.5554
  127SOPE   H4R13546   4.579   3.534   5.623  1.4598  0.3580 -1.3219
  127SOPE   H4S13547   4.711   3.427   5.572  0.5300 -0.6034  0.2396
  127SOPE   C2513548   4.529   3.342   5.515  0.2172  0.2305 -0.4812
  127SOPE   H5R13549   4.570   3.239   5.513  1.1042  0.5644  0.1285
  127SOPE   H5S13550   4.421   3.341   5.542  0.1262 -2.4832 -0.6288
  127SOPE   C2613551   4.519   3.408   5.373  0.2154 -0.2124 -0.2408
  127SOPE   H6R13552   4.446   3.356   5.307  0.6432  1.6240 -2.2549
  127SOPE   H6S13553   4.495   3.517   5.374  0.6241 -0.1241  0.1791
  127SOPE   C2713554   4.650   3.399   5.297 -0.0339  0.1534  0.9428
  127SOPE   H7R13555   4.716   3.473   5.346  0.9834 -1.8373  2.7822
  127SOPE   H7S13556   4.696   3.303   5.329  0.6556  1.2737  3.5325
  127SOPE   C2813557   4.647   3.434   5.148 -0.2701  0.8823 -0.1638
  127SOPE   H8R13558   4.611   3.538   5.129  0.7917  0.7901 -3.1217
  127SOPE   H8S13559   4.751   3.447   5.111  0.7816 -0.9648  1.9125
  127SOPE   C2913560   4.568   3.337   5.063  0.4216 -0.1970  0.1165
  127SOPE   H9113561   4.589   3.231   5.081 -2.1771 -0.8359 -0.1924
  127SOPE  C21013562   4.476   3.359   4.961  0.0048  0.4501  0.4473
  127SOPE  H10113563   4.405   3.282   4.927 -0.9055  0.5157  2.1008
  127SOPE  C21113564   4.438   3.498   4.914  0.1664 -0.6874  0.0300
  127SOPE  H11R13565   4.434   3.572   4.997  2.6300  0.0171 -0.3882
  127SOPE  H11S13566   4.338   3.482   4.869 -0.1684 -0.4257  0.6692
  127SOPE  C21213567   4.547   3.539   4.813  0.5701  1.4587  0.0564
  127SOPE  H12R13568   4.554   3.454   4.742  0.8530  2.5591 -1.2718
  127SOPE  H12S13569   4.642   3.540   4.870  0.0559  0.2636  0.9762
  127SOPE  C21313570   4.529   3.675   4.750  0.3907  0.7422  0.2187
  127SOPE  H13R13571   4.508   3.749   4.830 -1.0403  0.2651  0.3043
  127SOPE  H13S13572   4.441   3.675   4.682 -0.5226  2.5238  1.3170
  127SOPE  C21413573   4.657   3.718   4.683 -0.1952 -0.4001  0.3233
  127SOPE  H14R13574   4.693   3.645   4.607 -0.8434 -0.0859 -0.3001
  127SOPE  H14S13575   4.732   3.740   4.762  0.0783  1.3103 -0.3722
  127SOPE  C21513576   4.653   3.855   4.611  0.2780 -0.0354  1.0617
  127SOPE  H15R13577   4.753   3.872   4.565 -0.8799  2.4438 -0.7855
  127SOPE  H15S13578   4.643   3.938   4.684 -1.6334  0.3753  0.3970
  127SOPE  C21613579   4.553   3.857   4.496 -0.2490  1.1488 -0.1816
  127SOPE  H16R13580   4.453   3.880   4.540 -1.4358  0.6473 -2.4766
  127SOPE  H16S13581   4.557   3.764   4.436  3.1485  0.4807  0.8771
  127SOPE  C21713582   4.584   3.967   4.389 -0.0012 -0.4959 -0.3823
  127SOPE  H17R13583   4.667   3.927   4.327  0.2888 -0.9015  0.2540
  127SOPE  H17S13584   4.615   4.055   4.450  0.0658 -0.2098 -0.8296
  127SOPE  C21813585   4.460   4.005   4.308 -0.2018  0.4440  0.1068
  127SOPE  H18R13586   4.364   4.018   4.363 -0.4143  2.2333 -0.6331
  127SOPE  H18S13587   4.445   3.920   4.238 -3.2307  0.0172  1.0962
  127SOPE  H18T13588   4.469   4.096   4.246 -1.6255  0.9415  0.5947
  127SOPE   C3313589   4.835   3.885   5.561  0.8714 -0.3974 -0.6683
  127SOPE   H3X13590   4.728   3.898   5.532  1.4613  1.3644 -2.2516
  127SOPE   H3Y13591   4.877   3.783   5.549 -0.2383 -0.8340 -1.0756
  127SOPE   C3413592   4.908   3.980   5.467  1.0619  1.0611 -0.4155
  127SOPE   H4X13593   5.014   3.980   5.502  0.7506 -3.8401  1.1626
  127SOPE   H4Y13594   4.858   4.080   5.466 -1.1151  0.0265 -0.0911
  127SOPE   C3513595   4.916   3.915   5.330 -0.2022  0.6219  0.6960
  127SOPE   H5X13596   4.949   3.809   5.330 -2.0679 -0.0026 -0.2427
  127SOPE   H5Y13597   4.983   3.977   5.266  0.3944 -1.1241 -0.4232
  127SOPE   C3613598   4.783   3.923   5.249 -0.3232 -0.2241 -0.5680
  127SOPE   H6X13599   4.755   4.028   5.227 -2.5599 -0.4312  0.9441
  127SOPE   H6Y13600   4.702   3.886   5.316 -0.9009 -0.4142 -1.3643
  127SOPE   C3713601   4.787   3.855   5.108  0.2932  0.0602  0.1339
  127SOPE   H7X13602   4.691   3.872   5.055  0.9840 -2.0210 -1.9725
  127SOPE   H7Y13603   4.803   3.745   5.117  1.7853  0.1042 -1.4782
  127SOPE   C3813604   4.897   3.905   5.014 -0.2708 -0.1559  1.1400
  127SOPE   H8X13605   4.890   3.851   4.917  0.1905  1.3492  0.2363
  127SOPE   H8Y13606   4.999   3.878   5.050 -0.0093 -1.2254 -0.3072
  127SOPE   C3913607   4.891   4.051   4.971  0.4135  0.5797 -0.1401
  127SOPE   H9X13608   4.966   4.109   5.029 -0.9998  1.0976  1.2542
  127SOPE   H9Y13609   4.785   4.085   4.980 -0.3789 -1.6436 -0.4669
  127SOPE  C31013610   4.930   4.075   4.827 -0.0821  0.3107  0.1162
  127SOPE  H10X13611   4.859   4.020   4.763 -1.1768  2.5790 -0.7177
  127SOPE  H10Y13612   5.032   4.031   4.827 -0.7958 -1.4224 -0.6837
  127SOPE  C31113613   4.908   4.215   4.764 -0.0447 -0.5880 -0.0948
  127SOPE  H11X13614   4.985   4.284   4.804 -1.6095  1.4856 -0.4359
  127SOPE  H11Y13615   4.811   4.249   4.808  0.7325  1.1538  0.3294
  127SOPE  C31213616   4.906   4.216   4.610  0.7644 -0.0549 -0.3750
  127SOPE  H12X13617   4.904   4.323   4.579  2.7833  0.2576  0.4382
  127SOPE  H12Y13618   4.813   4.168   4.572  1.0394 -2.8464  2.1357
  127SOPE  C31313619   5.035   4.155   4.544 -0.1807 -0.0668  0.6578
  127SOPE  H13X13620   5.056   4.052   4.581  0.5948 -1.5459 -3.4204
  127SOPE  H13Y13621   5.123   4.219   4.568  1.6660 -1.6217 -1.5869
  127SOPE  C31413622   5.030   4.151   4.391  0.3559  0.6861 -0.2198
  127SOPE  H14X13623   5.003   4.251   4.352  0.5116  0.9333  0.3110
  127SOPE  H14Y13624   4.935   4.099   4.365  1.0895 -0.1785 -1.2629
  127SOPE  C31513625   5.142   4.083   4.308  0.9831 -0.3972  0.0849
  127SOPE  H15X13626   5.155   3.982   4.354 -2.2566  0.7166  4.0347
  127SOPE  H15Y13627   5.225   4.154   4.328 -0.0439  0.3526  1.9323
  127SOPE  C31613628   5.102   4.083   4.154 -0.1325  0.5250  0.3108
  127SOPE  H16X13629   5.080   4.187   4.120 -1.0729  0.6452  1.2474
  127SOPE  H16Y13630   5.011   4.019   4.158 -0.3361  0.1352 -4.4187
  127SOPE  C31713631   5.208   4.026   4.064 -0.6406 -0.0940 -0.4084
  127SOPE  H17X13632   5.233   3.921   4.089 -3.6113 -0.9279 -0.5039
  127SOPE  H17Y13633   5.301   4.084   4.082 -0.8615  0.0694  0.2088
  127SOPE  C31813634   5.166   4.025   3.920  0.2917 -0.1843  0.4189
  127SOPE  H18X13635   5.194   3.927   3.876 -1.6107 -0.4013 -0.4403
  127SOPE  H18Y13636   5.202   4.108   3.856  0.0728 -0.7010 -0.3999
  127SOPE  H18Z13637   5.055   4.018   3.908  0.6182 -3.0204 -2.4753
  128SOPE     N13638   5.392   6.285   6.622  0.1482  0.1237 -0.1565
  128SOPE   HN113639   5.366   6.220   6.544 -1.5384 -0.2382  0.6597
  128SOPE   HN213640   5.316   6.356   6.625 -0.6798 -0.7265 -0.3184
  128SOPE   HN313641   5.485   6.328   6.606  0.2530 -0.1697 -0.3395
  128SOPE   C1213642   5.404   6.205   6.748 -0.2397 -0.2756  0.0154
  128SOPE  H12A13643   5.307   6.156   6.767 -1.2797  1.7871  0.3082
  128SOPE  H12B13644   5.420   6.277   6.831 -2.3892  1.4823 -0.9982
  128SOPE   C1113645   5.525   6.113   6.745 -0.3947  0.3044  0.5232
  128SOPE  H11A13646   5.513   6.031   6.670 -0.3957  0.1268  0.7177
  128SOPE  H11B13647   5.531   6.059   6.842  3.3041  0.1992  0.3488
  128SOPE     P13648   5.783   6.125   6.721  0.3319  0.0612 -0.0463
  128SOPE   O1313649   5.785   6.023   6.828 -0.1324 -0.1250  0.6068
  128SOPE   O1413650   5.898   6.218   6.726 -0.4137  0.0635 -0.1130
  128SOPE   O1213651   5.638   6.201   6.725  0.5420  0.5187 -0.0903
  128SOPE   O1113652   5.771   6.049   6.582 -0.1816 -0.4296  0.0415
  128SOPE    C113653   5.727   6.120   6.466 -0.3757 -0.4712 -0.0577
  128SOPE    HA13654   5.763   6.225   6.465 -0.7306 -0.3536 -0.6417
  128SOPE    HB13655   5.615   6.119   6.464 -0.3647 -0.4710 -2.3592
  128SOPE    C213656   5.769   6.065   6.324 -0.0676  0.4319 -0.1206
  128SOPE    HS13657   5.714   6.119   6.244 -2.8397  0.5496  1.7155
  128SOPE   O2113658   5.760   5.919   6.313 -0.2208 -0.1705  0.1744
  128SOPE   C2113659   5.641   5.886   6.287  0.0881 -0.0544  0.7043
  128SOPE   O2213660   5.542   5.962   6.281 -0.2433  0.0162  0.2594
  128SOPE   C2213661   5.627   5.736   6.259 -0.0697 -0.0119  0.0113
  128SOPE   H2R13662   5.601   5.692   6.358  0.8310  1.1061  0.7690
  128SOPE   H2S13663   5.730   5.698   6.238 -0.6867 -1.3678 -0.6787
  128SOPE    C313664   5.921   6.101   6.286  0.0124 -0.5573  0.3496
  128SOPE    HX13665   5.937   6.039   6.194 -0.1783 -1.1857  0.7343
  128SOPE    HY13666   5.985   6.071   6.371  0.7348  0.4794  0.1864
  128SOPE   O3113667   5.933   6.239   6.269 -0.1676  0.0578 -0.1783
  128SOPE   C3113668   6.041   6.278   6.198  0.4263 -0.3788 -0.4751
  128SOPE   O3213669   6.117   6.195   6.155 -0.1474 -0.1497  0.6313
  128SOPE   C3213670   6.047   6.429   6.188  0.1339  0.2024  0.4493
  128SOPE   H2X13671   6.146   6.454   6.232  0.2122  1.4320 -0.3729
  128SOPE   H2Y13672   5.968   6.478   6.249 -1.0604  0.3605 -1.1607
  128SOPE   C2313673   5.520   5.699   6.152  0.0480  0.2341 -0.3549
  128SOPE   H3R13674   5.422   5.747   6.173 -0.1303 -0.2738 -0.0087
  128SOPE   H3S13675   5.493   5.593   6.170 -0.8149  0.8086  2.2220
  128SOPE   C2413676   5.567   5.724   6.009 -0.6256 -0.1884  0.2786
  128SOPE   H4R13677   5.581   5.832   5.989  0.9201 -0.8807 -3.2072
  128SOPE   H4S13678   5.663   5.672   5.989  0.6867  0.8524  3.3551
  128SOPE   C2513679   5.453   5.684   5.911 -0.5210  0.6955  1.2336
  128SOPE   H5R13680   5.440   5.576   5.930 -0.0574  0.0602 -1.5346
  128SOPE   H5S13681   5.361   5.742   5.932 -2.5861 -1.3501 -1.4753
  128SOPE   C2613682   5.496   5.704   5.762  0.0026  0.4416 -0.0130
  128SOPE   H6R13683   5.538   5.806   5.753 -1.8628  1.4403  1.9155
  128SOPE   H6S13684   5.574   5.627   5.741  1.0625  0.6511  2.7206
  128SOPE   C2713685   5.379   5.706   5.660  0.5153 -0.0819  0.0069
  128SOPE   H7R13686   5.316   5.615   5.668 -0.8558  0.9066  0.9799
  128SOPE   H7S13687   5.308   5.782   5.698  0.4479 -0.0882 -0.1091
  128SOPE   C2813688   5.419   5.747   5.518 -0.0420 -0.2199  1.0490
  128SOPE   H8R13689   5.327   5.767   5.459 -0.4325 -1.3230  1.2563
  128SOPE   H8S13690   5.492   5.829   5.502  1.7724 -1.5165  2.3282
  128SOPE   C2913691   5.484   5.620   5.468  0.1005 -0.4796  0.2504
  128SOPE   H9113692   5.582   5.596   5.513  0.9468 -0.1572 -1.3595
  128SOPE  C21013693   5.417   5.524   5.395 -0.1724 -0.7617 -0.1922
  128SOPE  H10113694   5.479   5.447   5.345  0.0466 -0.7354  0.0375
  128SOPE  C21113695   5.280   5.529   5.342  0.1442  0.0730  0.6083
  128SOPE  H11R13696   5.226   5.623   5.368  0.2006 -0.4225  2.7538
  128SOPE  H11S13697   5.214   5.451   5.385  0.2744 -0.4264 -0.0823
  128SOPE  C21213698   5.252   5.532   5.185  0.0276 -0.1159 -0.3822
  128SOPE  H12R13699   5.293   5.634   5.169  0.8960 -0.2789  0.6941
  128SOPE  H12S13700   5.143   5.533   5.164 -1.0442 -0.5944  4.0801
  128SOPE  C21313701   5.328   5.434   5.100 -1.1780 -0.4776  0.2906
  128SOPE  H13R13702   5.270   5.341   5.115 -0.1039 -1.1108  0.6264
  128SOPE  H13S13703   5.430   5.426   5.144 -1.2540  1.8237  1.0148
  128SOPE  C21413704   5.363   5.461   4.954  0.0134 -0.8616  0.2873
  128SOPE  H14R13705   5.265   5.474   4.903  2.1873 -0.3968 -4.2356
  128SOPE  H14S13706   5.417   5.374   4.912 -0.8251 -2.0042  1.5365
  128SOPE  C21513707   5.449   5.590   4.930  0.2455  0.2403 -0.9748
  128SOPE  H15R13708   5.532   5.587   5.004 -1.2865 -0.9780  0.7791
  128SOPE  H15S13709   5.398   5.683   4.963 -0.0103  0.0992 -0.9692
  128SOPE  C21613710   5.513   5.601   4.788  0.2975 -0.2735 -0.2263
  128SOPE  H16R13711   5.445   5.673   4.737  0.3500  0.6187  0.9129
  128SOPE  H16S13712   5.521   5.502   4.738 -2.9132  0.3837 -2.3549
  128SOPE  C21713713   5.641   5.676   4.796 -0.6179  0.0553  0.5359
  128SOPE  H17R13714   5.714   5.620   4.859 -1.3516  0.9349  2.2339
  128SOPE  H17S13715   5.616   5.766   4.856  0.3817  0.3304  0.5580
  128SOPE  C21813716   5.691   5.718   4.656 -0.2978 -0.2406  0.4677
  128SOPE  H18R13717   5.787   5.773   4.661 -0.7796  0.6827 -0.2409
  128SOPE  H18S13718   5.618   5.783   4.603  0.9825 -0.1460 -1.2815
  128SOPE  H18T13719   5.708   5.633   4.586 -2.7737  0.9725 -1.7882
  128SOPE   C3313720   6.041   6.485   6.046  0.5486 -0.4833 -0.3920
  128SOPE   H3X13721   6.108   6.427   5.979 -1.8210 -0.6097 -2.8238
  128SOPE   H3Y13722   6.077   6.589   6.033  0.2961 -0.4093 -0.5091
  128SOPE   C3413723   5.902   6.468   5.977 -0.1381 -0.1648  0.4472
  128SOPE   H4X13724   5.838   6.548   6.021  1.3458  0.1946  2.0959
  128SOPE   H4Y13725   5.856   6.367   5.987  0.5245 -0.5864 -0.5531
  128SOPE   C3513726   5.910   6.506   5.822 -0.1841  0.3280  0.4359
  128SOPE   H5X13727   5.976   6.428   5.779 -0.0598  1.2659 -1.1781
  128SOPE   H5Y13728   5.967   6.599   5.799  1.0049 -0.6934 -0.9636
  128SOPE   C3613729   5.773   6.515   5.754 -0.5580 -0.3774  0.6955
  128SOPE   H6X13730   5.704   6.589   5.800  0.5993  0.6349  0.8447
  128SOPE   H6Y13731   5.730   6.413   5.751  0.0141 -0.5965 -1.5317
  128SOPE   C3713732   5.791   6.570   5.607  0.6703  0.0133  0.0639
  128SOPE   H7X13733   5.847   6.493   5.549  1.5958  0.9531 -0.3252
  128SOPE   H7Y13734   5.854   6.661   5.615 -2.0851  2.0041  0.1381
  128SOPE   C3813735   5.661   6.597   5.523  0.2361 -0.2668 -0.1510
  128SOPE   H8X13736   5.613   6.690   5.559 -1.6583  0.5126 -4.1582
  128SOPE   H8Y13737   5.577   6.526   5.533  0.5772 -0.6827 -0.1873
  128SOPE   C3913738   5.684   6.609   5.367 -0.2916 -0.1026 -0.7186
  128SOPE   H9X13739   5.746   6.699   5.348 -2.5463  1.2198 -2.3633
  128SOPE   H9Y13740   5.584   6.613   5.320 -0.0931  1.5070 -1.0794
  128SOPE  C31013741   5.739   6.485   5.300  0.4073 -0.0447  0.2347
  128SOPE  H10X13742   5.668   6.400   5.313  1.0711 -0.4554  1.2711
  128SOPE  H10Y13743   5.824   6.439   5.355 -1.5548 -4.2278  0.2029
  128SOPE  C31113744   5.777   6.510   5.158 -0.2096  0.4499 -0.5363
  128SOPE  H11X13745   5.790   6.406   5.122  2.7227  0.3116  0.6117
  128SOPE  H11Y13746   5.870   6.571   5.157  1.0294 -1.2945  1.2198
  128SOPE  C31213747   5.669   6.573   5.072 -0.5258 -0.9708  0.8708
  128SOPE  H12X13748   5.694   6.681   5.077  2.1273 -1.2782 -2.0088
  128SOPE  H12Y13749   5.573   6.558   5.125 -1.7026  0.5381 -0.7235
  128SOPE  C31313750   5.660   6.516   4.932  0.5434  0.5661 -0.0788
  128SOPE  H13X13751   5.558   6.535   4.892  0.0731 -1.9668 -0.2445
  128SOPE  H13Y13752   5.669   6.405   4.926  0.4020  0.6194 -1.7687
  128SOPE  C31413753   5.773   6.576   4.849 -0.0141  0.0347  0.2687
  128SOPE  H14X13754   5.864   6.554   4.909 -0.3691  2.4286  1.7765
  128SOPE  H14Y13755   5.747   6.683   4.834 -4.3179 -0.7751  0.6391
  128SOPE  C31513756   5.775   6.510   4.708 -0.0904  0.1272 -0.4723
  128SOPE  H15X13757   5.853   6.565   4.651 -0.0782 -0.7285 -1.3077
  128SOPE  H15Y13758   5.678   6.519   4.654 -1.0409 -2.5202  0.6575
  128SOPE  C31613759   5.819   6.366   4.712  0.3075 -0.4578  0.3157
  128SOPE  H16X13760   5.744   6.305   4.768 -0.5269  0.8692  0.7014
  128SOPE  H16Y13761   5.915   6.356   4.766  0.6635  1.6569  0.1551
  128SOPE  C31713762   5.837   6.306   4.570 -0.4155  0.6766 -0.3647
  128SOPE  H17X13763   5.930   6.333   4.515 -0.2833 -2.6089 -1.9698
  128SOPE  H17Y13764   5.750   6.347   4.514 -2.8754 -2.6635  0.7094
  128SOPE  C31813765   5.838   6.153   4.556  0.1915  0.5211 -0.8067
  128SOPE  H18X13766   5.850   6.139   4.447  1.2336 -0.5827 -0.5876
  128SOPE  H18Y13767   5.746   6.106   4.597  0.5194  3.0643  3.3937
  128SOPE  H18Z13768   5.936   6.112   4.592  0.0346  0.7216 -0.1400
  129SOPE     N13769   6.765   5.317   6.552  0.2548  0.2864 -0.1106
  129SOPE   HN113770   6.800   5.391   6.487  0.5912 -0.3713 -0.6876
  129SOPE   HN213771   6.832   5.291   6.628  0.5004 -0.9521 -0.7264
  129SOPE   HN313772   6.747   5.230   6.499 -0.4474  1.2274 -1.4799
  129SOPE   C1213773   6.638   5.365   6.619 -0.1335  0.1585  0.2174
  129SOPE  H12A13774   6.566   5.395   6.540 -1.0464  1.0259  1.3549
  129SOPE  H12B13775   6.672   5.441   6.693 -0.4943  0.2267  0.3154
  129SOPE   C1113776   6.576   5.257   6.702 -0.6830 -0.4455  0.2010
  129SOPE  H11A13777   6.483   5.309   6.734 -0.3460  0.0069  0.4538
  129SOPE  H11B13778   6.652   5.227   6.778  1.6351  1.7464 -1.1143
  129SOPE     P13779   6.401   5.071   6.643 -0.1195  0.1646 -0.2002
  129SOPE   O1313780   6.331   5.123   6.760 -0.1625 -0.1484 -0.3030
  129SOPE   O1413781   6.418   4.921   6.643  0.5659 -0.3575 -0.0242
  129SOPE   O1213782   6.542   5.143   6.628 -0.4020 -0.3394 -0.5215
  129SOPE   O1113783   6.327   5.106   6.507  0.1760 -0.5154  0.1483
  129SOPE    C113784   6.302   5.244   6.468  0.5010 -0.5065  0.3626
  129SOPE    HA13785   6.392   5.284   6.416  0.6598  1.1634  1.8240
  129SOPE    HB13786   6.276   5.314   6.550 -0.1006  0.6129 -0.7529
  129SOPE    C213787   6.185   5.250   6.365 -0.4444  0.2774  0.1269
  129SOPE    HS13788   6.097   5.226   6.429 -0.0489 -1.1116  0.1928
  129SOPE   O2113789   6.220   5.154   6.262 -0.3034 -0.0270  0.1398
  129SOPE   C2113790   6.131   5.058   6.239  0.2183  0.1116  0.1144
  129SOPE   O2213791   6.027   5.042   6.302  0.3893  0.7196 -0.4463
  129SOPE   C2213792   6.174   4.991   6.114 -0.8497  0.2161  0.8045
  129SOPE   H2R13793   6.281   4.965   6.123 -1.0277 -0.2891  1.5404
  129SOPE   H2S13794   6.159   5.070   6.037  0.4421 -0.0095  0.3025
  129SOPE    C313795   6.173   5.391   6.310 -0.1888  0.1452 -0.0866
  129SOPE    HX13796   6.271   5.433   6.282 -0.7847  0.1812 -2.3565
  129SOPE    HY13797   6.131   5.445   6.397 -2.1341 -1.5086  0.0834
  129SOPE   O3113798   6.085   5.398   6.195 -0.2076 -0.0781 -0.3763
  129SOPE   C3113799   5.957   5.377   6.209  0.4057 -0.3282  0.2467
  129SOPE   O3213800   5.900   5.344   6.314  0.5198 -0.2505 -0.2567
  129SOPE   C3213801   5.892   5.425   6.083  0.2195 -0.2020 -0.2351
  129SOPE   H2X13802   5.938   5.523   6.057 -4.0979  2.0000 -0.3320
  129SOPE   H2Y13803   5.787   5.454   6.104  0.3976  2.6007 -2.5283
  129SOPE   C2313804   6.117   4.855   6.065 -0.4012 -0.4151  0.1980
  129SOPE   H3R13805   6.007   4.866   6.069 -0.3853  0.5725 -1.2501
  129SOPE   H3S13806   6.138   4.772   6.136  0.2359 -0.8975 -0.5385
  129SOPE   C2413807   6.149   4.825   5.917  0.2828  0.0624  0.4810
  129SOPE   H4R13808   6.258   4.810   5.901  0.0307 -1.4638 -0.0672
  129SOPE   H4S13809   6.097   4.731   5.888 -2.5123  0.8799  2.3856
  129SOPE   C2513810   6.120   4.932   5.807 -0.2398  0.5086 -0.1294
  129SOPE   H5R13811   6.011   4.951   5.817 -0.1566 -0.0108  2.5348
  129SOPE   H5S13812   6.175   5.024   5.832 -1.7930  1.3520  0.3213
  129SOPE   C2613813   6.148   4.892   5.664 -0.1564  0.0323 -0.3044
  129SOPE   H6R13814   6.257   4.880   5.650 -0.1163 -0.9641  0.7184
  129SOPE   H6S13815   6.105   4.792   5.641  0.4695 -0.5028  0.7905
  129SOPE   C2713816   6.092   4.982   5.550 -0.4590 -0.1595 -0.0734
  129SOPE   H7R13817   5.981   4.989   5.551 -0.4342  0.6479 -1.1350
  129SOPE   H7S13818   6.134   5.082   5.573 -0.0842 -0.5955  1.1989
  129SOPE   C2813819   6.141   4.936   5.408 -0.0076 -0.0690 -0.8969
  129SOPE   H8R13820   6.159   5.025   5.344  0.2026  0.2168 -0.4443
  129SOPE   H8S13821   6.238   4.882   5.418  0.1267 -0.0080 -1.7639
  129SOPE   C2913822   6.048   4.832   5.344  0.2162  0.5338 -0.7134
  129SOPE   H9113823   6.036   4.739   5.403  1.2019 -0.7798 -2.4742
  129SOPE  C21013824   5.974   4.843   5.231  0.2940 -0.1093  0.9344
  129SOPE  H10113825   5.915   4.755   5.201  0.5785 -1.2594  3.4958
  129SOPE  C21113826   5.967   4.958   5.133  0.3243  0.6123 -0.7860
  129SOPE  H11R13827   6.007   5.055   5.169 -1.5212  0.9312  0.5739
  129SOPE  H11S13828   5.859   4.981   5.117 -0.8566 -2.1510  2.1882
  129SOPE  C21213829   6.045   4.929   5.004  0.8018  0.0467 -1.1040
  129SOPE  H12R13830   5.988   4.858   4.940 -2.5121  0.7541  0.8044
  129SOPE  H12S13831   6.149   4.896   5.026  0.4970 -0.5377 -0.5249
  129SOPE  C21313832   6.064   5.059   4.924 -0.0425  0.4549 -0.6934
  129SOPE  H13R13833   6.136   5.128   4.973 -1.3953  1.8345 -0.5683
  129SOPE  H13S13834   5.970   5.114   4.902  1.3266  1.4180 -5.0404
  129SOPE  C21413835   6.121   5.015   4.784 -0.0099 -0.1863 -0.3279
  129SOPE  H14R13836   6.032   4.971   4.733  0.2403 -2.7816  1.2881
  129SOPE  H14S13837   6.201   4.938   4.796  0.4658  0.2794 -0.4934
  129SOPE  C21513838   6.172   5.136   4.707  0.1399  0.1379  0.6028
  129SOPE  H15R13839   6.250   5.183   4.771 -0.9053  1.2677  1.0852
  129SOPE  H15S13840   6.104   5.223   4.689  0.2955  0.3848  1.1863
  129SOPE  C21613841   6.242   5.087   4.581 -0.6017 -0.4362  0.2273
  129SOPE  H16R13842   6.293   4.992   4.604 -0.3461 -0.1307  0.9297
  129SOPE  H16S13843   6.325   5.157   4.559  0.7517 -2.0148  0.1320
  129SOPE  C21713844   6.169   5.078   4.451  0.7610  0.4117 -0.7046
  129SOPE  H17R13845   6.155   5.182   4.415  0.4104  0.4799 -0.3776
  129SOPE  H17S13846   6.069   5.033   4.470  2.3785 -2.5723  1.8668
  129SOPE  C21813847   6.245   4.996   4.341 -0.4615  0.3414  0.0818
  129SOPE  H18R13848   6.223   5.043   4.243 -1.0277 -0.2290 -0.0703
  129SOPE  H18S13849   6.225   4.887   4.333 -0.6101  0.4811 -2.1205
  129SOPE  H18T13850   6.351   5.013   4.370 -0.7085 -1.1613  2.1072
  129SOPE   C3313851   5.906   5.334   5.966 -0.5128 -0.1397  0.1403
  129SOPE   H3X13852   5.817   5.268   5.969  0.0635 -1.0153 -1.0362
  129SOPE   H3Y13853   6.002   5.278   5.971 -0.8744 -0.8010 -0.2635
  129SOPE   C3413854   5.896   5.412   5.835  0.5145  0.7698  0.4891
  129SOPE   H4X13855   5.985   5.477   5.824 -0.1871  1.6809  0.0696
  129SOPE   H4Y13856   5.798   5.465   5.836 -0.4344 -0.9147  1.8707
  129SOPE   C3513857   5.899   5.315   5.714 -0.3638 -0.3394  0.2281
  129SOPE   H5X13858   5.850   5.218   5.738  0.2915 -1.0862 -1.3478
  129SOPE   H5Y13859   6.003   5.288   5.684 -0.8545 -0.6377 -1.2598
  129SOPE   C3613860   5.823   5.383   5.595  0.6981  1.4968 -0.0776
  129SOPE   H6X13861   5.893   5.460   5.555  1.7597  0.1104 -0.9867
  129SOPE   H6Y13862   5.726   5.430   5.622 -0.1794 -1.6407  3.0325
  129SOPE   C3713863   5.787   5.280   5.487 -0.0372  0.4474  0.5595
  129SOPE   H7X13864   5.694   5.226   5.515 -0.0734 -0.5034 -1.2916
  129SOPE   H7Y13865   5.872   5.209   5.477 -2.3975 -2.2671 -2.1362
  129SOPE   C3813866   5.775   5.359   5.355  0.3260 -1.0329  0.0676
  129SOPE   H8X13867   5.878   5.386   5.327  0.1571 -1.3188 -0.8514
  129SOPE   H8Y13868   5.713   5.448   5.381  0.0108 -1.0480 -0.6179
  129SOPE   C3913869   5.709   5.275   5.248  0.1822  0.0862  0.6875
  129SOPE   H9X13870   5.601   5.268   5.270  0.0815  3.2552  1.6701
  129SOPE   H9Y13871   5.758   5.176   5.241 -0.6989 -0.3652  0.8133
  129SOPE  C31013872   5.727   5.335   5.113  0.1870 -0.3168 -0.3766
  129SOPE  H10X13873   5.835   5.348   5.090 -0.4910  1.6768 -2.9035
  129SOPE  H10Y13874   5.687   5.439   5.115 -0.3678 -0.4232  4.0987
  129SOPE  C31113875   5.681   5.249   4.999 -0.5928  0.3922  0.2662
  129SOPE  H11X13876   5.573   5.225   5.006 -0.8025  1.7517  3.1607
  129SOPE  H11Y13877   5.728   5.152   5.028  1.9178  1.7907  1.2033
  129SOPE  C31213878   5.737   5.295   4.863  0.4668 -0.1455  0.7940
  129SOPE  H12X13879   5.846   5.312   4.872  0.4840  0.7181 -0.7244
  129SOPE  H12Y13880   5.694   5.392   4.829  1.1136 -0.3925 -0.8465
  129SOPE  C31313881   5.711   5.192   4.752  0.4484 -0.2512  0.3914
  129SOPE  H13X13882   5.600   5.184   4.740  0.4963 -2.0990  0.8766
  129SOPE  H13Y13883   5.747   5.096   4.795  0.8374  0.2076  1.1185
  129SOPE  C31413884   5.786   5.240   4.629 -0.4353 -0.2566 -0.0122
  129SOPE  H14X13885   5.896   5.225   4.637 -0.1431  0.6320 -1.8425
  129SOPE  H14Y13886   5.761   5.348   4.621 -0.7730 -0.4346 -1.6771
  129SOPE  C31513887   5.742   5.178   4.496 -0.4485  0.0101  0.3435
  129SOPE  H15X13888   5.637   5.211   4.485 -0.1323  0.9612  0.0442
  129SOPE  H15Y13889   5.747   5.068   4.509 -0.8812  0.1501  1.8762
  129SOPE  C31613890   5.821   5.240   4.375 -0.2879 -0.1583  0.1138
  129SOPE  H16X13891   5.926   5.207   4.386 -0.8017 -1.1498  2.5279
  129SOPE  H16Y13892   5.814   5.351   4.386 -0.4595  0.0408 -1.6121
  129SOPE  C31713893   5.749   5.193   4.250 -0.2913 -0.6864  0.1662
  129SOPE  H17X13894   5.779   5.263   4.169 -0.5088 -1.7472 -0.8701
  129SOPE  H17Y13895   5.641   5.219   4.254 -0.4874 -1.3816 -0.3636
  129SOPE  C31813896   5.769   5.049   4.193 -0.2550 -0.0635  0.3532
  129SOPE  H18X13897   5.727   4.972   4.262 -2.7119 -0.4618 -1.4749
  129SOPE  H18Y13898   5.876   5.030   4.170 -0.4830  0.5178 -1.2678
  129SOPE  H18Z13899   5.717   5.030   4.097 -1.6313  2.4404  0.5356
  130SOPE     N13900   3.394   5.240   6.547  0.9968 -0.1257  0.0107
  130SOPE   HN113901   3.291   5.242   6.557  0.8554 -1.1182 -1.0569
  130SOPE   HN213902   3.420   5.141   6.565 -1.4675 -1.0865 -1.2302
  130SOPE   HN313903   3.420   5.305   6.624 -2.1544  1.5934 -0.2238
  130SOPE   C1213904   3.424   5.283   6.405  0.2604  0.7886 -0.4193
  130SOPE  H12A13905   3.521   5.337   6.404 -0.6394  2.4700 -1.7050
  130SOPE  H12B13906   3.341   5.352   6.379 -0.0749  0.4660 -0.2160
  130SOPE   C1113907   3.439   5.159   6.308 -0.7617 -0.2520  0.0637
  130SOPE  H11A13908   3.460   5.202   6.207  0.9460 -2.3854 -0.5672
  130SOPE  H11B13909   3.349   5.096   6.322 -1.3634  0.5939  0.0599
  130SOPE     P13910   3.702   5.128   6.374 -0.0360 -0.1327  0.0112
  130SOPE   O1313911   3.773   4.996   6.365  0.0730 -0.4027  0.2451
  130SOPE   O1413912   3.730   5.205   6.497  0.2092  0.0928 -0.2005
  130SOPE   O1213913   3.551   5.087   6.357  0.1950  0.0179  0.2652
  130SOPE   O1113914   3.727   5.220   6.249 -0.7845 -0.0840  0.1764
  130SOPE    C113915   3.826   5.192   6.154 -0.1164  0.5349  0.0735
  130SOPE    HA13916   3.892   5.106   6.177  2.1397  2.0982 -0.1223
  130SOPE    HB13917   3.898   5.277   6.152  1.3729 -0.6932  0.1025
  130SOPE    C213918   3.762   5.161   6.022  0.2745 -0.3332  0.6419
  130SOPE    HS13919   3.843   5.142   5.948 -0.3514  0.9098 -0.4124
  130SOPE   O2113920   3.679   5.270   5.973 -0.1254 -0.2212  0.1050
  130SOPE   C2113921   3.743   5.375   5.925 -0.2100  0.0350  0.5215
  130SOPE   O2213922   3.866   5.384   5.927  0.0975 -0.0779 -0.0673
  130SOPE   C2213923   3.642   5.492   5.924 -0.2117  0.3367 -0.2447
  130SOPE   H2R13924   3.679   5.579   5.983 -0.9108  0.2801  0.2927
  130SOPE   H2S13925   3.548   5.461   5.974  1.1323 -0.0666  2.2147
  130SOPE    C313926   3.692   5.023   6.017  1.2664 -0.0725  0.3585
  130SOPE    HX13927   3.614   5.018   6.096 -0.0691  0.3831 -0.8777
  130SOPE    HY13928   3.771   4.947   6.031  0.4828 -0.9915 -0.0707
  130SOPE   O3113929   3.626   5.000   5.889  0.7987 -0.4527 -0.2091
  130SOPE   C3113930   3.494   5.028   5.881  0.1731  0.4412 -0.4185
  130SOPE   O3213931   3.423   5.049   5.975  0.2898  0.1810 -0.1786
  130SOPE   C3213932   3.454   5.021   5.731 -0.5218  0.3782  0.0624
  130SOPE   H2X13933   3.348   5.051   5.724 -0.7556 -0.3298  0.5123
  130SOPE   H2Y13934   3.469   4.915   5.703  0.4750  0.7732 -1.0170
  130SOPE   C2313935   3.595   5.531   5.783  0.3649  0.1055 -0.0136
  130SOPE   H3R13936   3.506   5.594   5.766  1.1079  1.5619  1.3115
  130SOPE   H3S13937   3.566   5.433   5.738 -0.3335  0.5675 -0.5957
  130SOPE   C2413938   3.706   5.601   5.709  0.1870 -1.0579  0.3718
  130SOPE   H4R13939   3.739   5.680   5.780 -1.0182  1.9160 -2.1663
  130SOPE   H4S13940   3.794   5.534   5.694  1.2055  0.7723 -2.8105
  130SOPE   C2513941   3.661   5.660   5.577  0.1590  0.4792  0.4044
  130SOPE   H5R13942   3.558   5.700   5.591 -0.5310 -0.8324 -0.7576
  130SOPE   H5S13943   3.720   5.749   5.546 -0.1488  0.0886 -1.3770
  130SOPE   C2613944   3.660   5.562   5.455  0.2295  0.4656  0.5115
  130SOPE   H6R13945   3.759   5.518   5.434 -0.0023  0.2323 -0.1302
  130SOPE   H6S13946   3.610   5.466   5.480 -0.7597  1.2031  1.4337
  130SOPE   C2713947   3.593   5.615   5.318 -0.3906 -0.6402  0.6659
  130SOPE   H7R13948   3.483   5.607   5.313 -0.5923  1.0772  1.5034
  130SOPE   H7S13949   3.621   5.723   5.322 -0.2550 -0.6722  0.5894
  130SOPE   C2813950   3.666   5.546   5.199 -0.2300 -0.3607  0.1058
  130SOPE   H8R13951   3.767   5.587   5.175 -0.8256 -0.4526 -2.9202
  130SOPE   H8S13952   3.670   5.439   5.229  0.1946 -0.3791 -0.0083
  130SOPE   C2913953   3.593   5.537   5.071  0.1282  0.4927 -0.4345
  130SOPE   H9113954   3.523   5.453   5.056  2.8674 -1.5006 -3.1931
  130SOPE  C21013955   3.614   5.613   4.961 -0.1962 -0.2569  0.1064
  130SOPE  H10113956   3.551   5.606   4.871 -0.0656 -1.2550  0.0718
  130SOPE  C21113957   3.701   5.742   4.955  0.0586  0.1662  0.0030
  130SOPE  H11R13958   3.787   5.717   4.889 -0.4784  0.4671 -0.8291
  130SOPE  H11S13959   3.740   5.780   5.052 -2.2564  1.1228  0.6346
  130SOPE  C21213960   3.632   5.864   4.887  0.1255  0.1974 -1.0059
  130SOPE  H12R13961   3.555   5.896   4.962  0.3364  0.4900 -0.9103
  130SOPE  H12S13962   3.582   5.838   4.791  0.3106 -2.8374 -0.3637
  130SOPE  C21313963   3.731   5.977   4.858 -0.0760  0.1483 -0.1102
  130SOPE  H13R13964   3.794   5.947   4.772  1.1430  0.2840  0.7034
  130SOPE  H13S13965   3.802   5.969   4.943  1.0896 -1.3823 -1.1741
  130SOPE  C21413966   3.678   6.121   4.850  0.9782  0.1991  0.6478
  130SOPE  H14R13967   3.633   6.153   4.947 -0.0134 -0.6996  0.4943
  130SOPE  H14S13968   3.600   6.119   4.772 -0.5298 -0.3707  2.1084
  130SOPE  C21513969   3.780   6.230   4.811  0.4427  0.3520  0.5738
  130SOPE  H15R13970   3.831   6.185   4.724  2.7379  0.9987  1.5134
  130SOPE  H15S13971   3.863   6.236   4.884  1.8537 -0.6901 -0.8816
  130SOPE  C21613972   3.705   6.363   4.779  0.5533  0.0675 -0.3125
  130SOPE  H16R13973   3.739   6.441   4.851  0.3987  1.2261 -1.4571
  130SOPE  H16S13974   3.597   6.355   4.804  0.4723 -1.3667 -1.0139
  130SOPE  C21713975   3.713   6.411   4.633  0.0298  0.4709  0.3275
  130SOPE  H17R13976   3.654   6.504   4.623  0.1823  0.5536  0.1801
  130SOPE  H17S13977   3.663   6.346   4.558  0.3778  0.1378  0.3787
  130SOPE  C21813978   3.858   6.433   4.589 -0.4465 -0.3186  0.5910
  130SOPE  H18R13979   3.868   6.487   4.493  3.1224  2.0079  2.0624
  130SOPE  H18S13980   3.914   6.339   4.565 -0.1316  0.2852 -1.1884
  130SOPE  H18T13981   3.912   6.489   4.668 -2.6361  0.5484  1.5377
  130SOPE   C3313982   3.538   5.120   5.637  0.1600 -0.7232  0.4597
  130SOPE   H3X13983   3.645   5.093   5.642  1.0616  2.2764 -0.4975
  130SOPE   H3Y13984   3.518   5.222   5.674  0.4632 -0.5757  0.2205
  130SOPE   C3413985   3.515   5.097   5.489 -0.4435 -0.3033 -0.1386
  130SOPE   H4X13986   3.565   5.002   5.463 -1.5782 -0.7653 -0.7231
  130SOPE   H4Y13987   3.568   5.179   5.436 -0.1406  0.0801  0.7346
  130SOPE   C3513988   3.369   5.108   5.448  0.6870  0.2290  0.7452
  130SOPE   H5X13989   3.332   5.212   5.464  1.2022  0.1730  2.5764
  130SOPE   H5Y13990   3.303   5.043   5.510  0.4911 -0.4794 -0.1857
  130SOPE   C3613991   3.345   5.075   5.304  0.4608  0.2430  0.4032
  130SOPE   H6X13992   3.235   5.067   5.285  0.5102  3.2207 -1.9061
  130SOPE   H6Y13993   3.391   4.977   5.282  1.3659  0.3344  1.8023
  130SOPE   C3713994   3.404   5.169   5.201 -0.5877 -0.3097 -0.8741
  130SOPE   H7X13995   3.515   5.159   5.209 -0.6210  0.9024  1.9511
  130SOPE   H7Y13996   3.374   5.274   5.221  1.7691  0.1137  0.9821
  130SOPE   C3813997   3.361   5.121   5.061 -0.1463 -0.2497  0.7361
  130SOPE   H8X13998   3.250   5.125   5.069 -0.1574  4.5977  1.3537
  130SOPE   H8Y13999   3.387   5.015   5.038 -3.3783 -1.3438  1.5949
  130SOPE   C3914000   3.429   5.194   4.942 -0.1029  0.0041  0.2084
  130SOPE   H9X14001   3.539   5.195   4.958 -0.0908  1.1848  0.1434
  130SOPE   H9Y14002   3.392   5.299   4.947 -1.5895 -0.5432  1.6761
  130SOPE  C31014003   3.371   5.146   4.811  0.2076  0.0068  0.4806
  130SOPE  H10X14004   3.265   5.175   4.800  0.6519  2.4736  1.8954
  130SOPE  H10Y14005   3.377   5.035   4.805  1.9956  0.0094  1.4331
  130SOPE  C31114006   3.456   5.207   4.695  0.2141  0.4307  0.0714
  130SOPE  H11X14007   3.560   5.182   4.725 -0.1483  0.8153  1.7251
  130SOPE  H11Y14008   3.440   5.317   4.701 -2.7034  0.1924 -1.3856
  130SOPE  C31214009   3.447   5.159   4.550 -0.2932 -0.6110  0.0711
  130SOPE  H12X14010   3.418   5.052   4.542 -0.8998 -0.6784  2.4983
  130SOPE  H12Y14011   3.549   5.166   4.506 -0.7107  1.4389 -0.7095
  130SOPE  C31314012   3.367   5.246   4.460 -0.3541 -1.0110  0.2124
  130SOPE  H13X14013   3.364   5.351   4.497 -2.4329 -1.4106  1.2976
  130SOPE  H13Y14014   3.262   5.214   4.476 -0.3060 -0.5283  1.6584
  130SOPE  C31414015   3.418   5.241   4.317 -0.1294  0.1143 -0.4240
  130SOPE  H14X14016   3.444   5.136   4.292  0.8893 -0.3521  2.2745
  130SOPE  H14Y14017   3.512   5.300   4.318  1.0571 -1.7282 -0.0417
  130SOPE  C31514018   3.319   5.294   4.214  0.6206  1.2896 -0.0603
  130SOPE  H15X14019   3.283   5.382   4.271  1.6369  0.4820  1.9341
  130SOPE  H15Y14020   3.234   5.224   4.196  1.6891  0.1004 -0.7231
  130SOPE  C31614021   3.387   5.334   4.090 -0.1023  0.8179 -0.0662
  130SOPE  H16X14022   3.476   5.395   4.116  1.0289 -1.0388  0.6869
  130SOPE  H16Y14023   3.323   5.396   4.024 -2.7538 -1.3844  0.2675
  130SOPE  C31714024   3.433   5.218   4.001 -0.9972  0.0497 -0.3508
  130SOPE  H17X14025   3.351   5.152   3.964 -1.5266 -0.9643  2.4006
  130SOPE  H17Y14026   3.489   5.149   4.069 -0.8028  0.1944 -0.3630
  130SOPE  C31814027   3.529   5.271   3.895 -0.7985 -0.1716 -0.3309
  130SOPE  H18X14028   3.598   5.350   3.931 -2.8631  2.1486 -1.1757
  130SOPE  H18Y14029   3.476   5.316   3.808  0.1584  1.7617  0.0538
  130SOPE  H18Z14030   3.578   5.178   3.858  1.0251  0.5340  0.2202
  131SOPE     N14031   1.858   6.743   2.202  0.3341  0.6344  0.0441
  131SOPE   HN114032   1.848   6.845   2.218  0.0391  0.5219  0.5766
  131SOPE   HN214033   1.766   6.709   2.169 -0.2454  0.5786  1.6531
  131SOPE   HN314034   1.892   6.696   2.288 -1.5535  1.6794  1.4129
  131SOPE   C1214035   1.963   6.732   2.097 -0.0276 -0.5503 -0.2365
  131SOPE  H12A14036   1.936   6.790   2.006  1.9888 -1.5263 -1.5278
  131SOPE  H12B14037   1.958   6.622   2.084  0.2367 -0.8817  2.0392
  131SOPE   C1114038   2.101   6.773   2.149 -0.0303 -0.0055 -0.7990
  131SOPE  H11A14039   2.172   6.760   2.065  0.6180  0.0728 -0.2759
  131SOPE  H11B14040   2.118   6.706   2.236 -3.2484 -2.3239 -1.7447
  131SOPE     P14041   2.215   6.998   2.226  0.3205 -0.2706  0.2286
  131SOPE   O1314042   2.175   7.137   2.246 -0.1358  0.0462 -0.3854
  131SOPE   O1414043   2.326   6.970   2.129  0.2190 -0.3951 -0.0710
  131SOPE   O1214044   2.089   6.909   2.185  0.0069  0.1014  0.1416
  131SOPE   O1114045   2.251   6.937   2.366  0.1298  0.5843 -0.3371
  131SOPE    C114046   2.185   6.971   2.489  0.0754 -0.3382  1.0773
  131SOPE    HA14047   2.181   6.882   2.555  1.0471 -0.5962  0.8166
  131SOPE    HB14048   2.078   6.996   2.473  0.2838  1.1563  1.8609
  131SOPE    C214049   2.248   7.097   2.559 -0.1301  0.3370 -0.7391
  131SOPE    HS14050   2.246   7.180   2.485 -2.2479  2.4601  1.5134
  131SOPE   O2114051   2.380   7.062   2.603 -0.2168  0.5161 -0.0440
  131SOPE   C2114052   2.460   7.167   2.620 -0.3784  0.3465 -1.1446
  131SOPE   O2214053   2.427   7.282   2.604  0.1799 -0.0107 -0.8218
  131SOPE   C2214054   2.596   7.125   2.676  0.5285  0.0096  0.1864
  131SOPE   H2R14055   2.627   7.196   2.756 -1.5168 -0.8078  1.8234
  131SOPE   H2S14056   2.676   7.142   2.601  1.3262  0.0347  1.0221
  131SOPE    C314057   2.165   7.134   2.683 -0.4632 -0.5387  0.4222
  131SOPE    HX14058   2.061   7.157   2.650 -0.6899 -2.0144  0.0129
  131SOPE    HY14059   2.207   7.229   2.720  0.1635 -0.4711 -0.4280
  131SOPE   O3114060   2.155   7.020   2.772  0.5901  0.4425  0.3984
  131SOPE   C3114061   2.244   7.032   2.874 -0.0738  1.2005 -0.0928
  131SOPE   O3214062   2.316   7.132   2.888  0.3047 -0.8435  0.4452
  131SOPE   C3214063   2.250   6.910   2.960 -0.2200  1.0242 -0.2036
  131SOPE   H2X14064   2.326   6.840   2.918 -1.8991  0.8962 -3.3131
  131SOPE   H2Y14065   2.149   6.864   2.961 -0.7567  2.0920  2.2447
  131SOPE   C2314066   2.605   6.982   2.732  0.3456  0.3925 -0.0468
  131SOPE   H3R14067   2.592   6.927   2.636 -1.3859  1.1863 -0.3114
  131SOPE   H3S14068   2.522   6.967   2.805 -1.3039  0.2268 -1.8681
  131SOPE   C2414069   2.742   6.947   2.786 -0.4197 -0.4092 -0.0188
  131SOPE   H4R14070   2.756   6.841   2.815  0.0834 -0.0187  1.2261
  131SOPE   H4S14071   2.809   6.972   2.701  0.9469 -0.1569  1.1046
  131SOPE   C2514072   2.789   7.036   2.906 -0.1622 -0.5893  0.5390
  131SOPE   H5R14073   2.898   7.021   2.919  0.2163  1.0723 -0.3583
  131SOPE   H5S14074   2.772   7.141   2.875 -0.6322 -1.2080 -1.4565
  131SOPE   C2614075   2.719   7.009   3.036  0.7038 -0.1197  0.1174
  131SOPE   H6R14076   2.614   7.043   3.019  0.2198 -0.2128  2.5644
  131SOPE   H6S14077   2.711   6.899   3.045 -2.2232 -0.1255 -1.2099
  131SOPE   C2714078   2.762   7.072   3.173  0.5521  0.6600  0.3505
  131SOPE   H7R14079   2.872   7.054   3.184  0.4116  0.3395  1.4254
  131SOPE   H7S14080   2.751   7.182   3.169  0.0185  0.6257  0.7517
  131SOPE   C2814081   2.688   7.022   3.293 -0.2970  0.0052 -0.0079
  131SOPE   H8R14082   2.703   7.095   3.376  0.5018  0.3029 -0.4078
  131SOPE   H8S14083   2.578   7.014   3.276 -0.0384 -1.4695 -1.1423
  131SOPE   C2914084   2.747   6.887   3.339  0.1797 -0.2442  0.8368
  131SOPE   H9114085   2.738   6.811   3.260 -0.1029  0.7251 -0.0918
  131SOPE  C21014086   2.811   6.858   3.451  0.2059 -0.2076 -0.2298
  131SOPE  H10114087   2.858   6.760   3.467 -1.7661 -1.5267 -1.9165
  131SOPE  C21114088   2.834   6.952   3.559 -0.4950 -0.1697  0.2676
  131SOPE  H11R14089   2.859   7.050   3.514  0.0748 -0.4263  0.0139
  131SOPE  H11S14090   2.930   6.917   3.603  1.1320 -0.5246 -3.1923
  131SOPE  C21214091   2.723   6.964   3.665 -0.3324 -0.3803  0.0650
  131SOPE  H12R14092   2.674   6.866   3.687 -2.0455  0.2296 -0.8549
  131SOPE  H12S14093   2.639   7.028   3.631 -1.2365 -1.2487  0.5741
  131SOPE  C21314094   2.785   7.023   3.792 -0.1748 -0.0940  0.2397
  131SOPE  H13R14095   2.704   7.071   3.852  0.1479  1.8095 -0.8033
  131SOPE  H13S14096   2.863   7.098   3.770 -0.5235  0.6691  1.4803
  131SOPE  C21414097   2.840   6.917   3.879 -0.1096  0.5730  0.5089
  131SOPE  H14R14098   2.911   6.852   3.822  1.8547  0.5548  2.8324
  131SOPE  H14S14099   2.765   6.849   3.925  0.9537 -1.3499 -0.4604
  131SOPE  C21514100   2.921   6.972   4.003  0.3335 -0.6496  0.0861
  131SOPE  H15R14101   3.011   7.020   3.960 -0.6779  0.3924 -0.9098
  131SOPE  H15S14102   2.955   6.885   4.064 -1.0118 -0.6396  0.9003
  131SOPE  C21614103   2.838   7.064   4.094 -0.4436  0.0865 -0.2707
  131SOPE  H16R14104   2.799   7.145   4.030  2.1745  0.1441 -1.9381
  131SOPE  H16S14105   2.904   7.096   4.177  0.2991 -0.1588 -0.7508
  131SOPE  C21714106   2.724   6.984   4.168 -0.1509  0.6906 -0.5753
  131SOPE  H17R14107   2.643   6.947   4.101 -0.1277 -2.8698  1.1218
  131SOPE  H17S14108   2.675   7.055   4.237  0.9710 -1.3625  2.5420
  131SOPE  C21814109   2.765   6.860   4.260 -0.5322 -0.1836 -0.0593
  131SOPE  H18R14110   2.796   6.780   4.190 -2.2665  1.1037 -2.4266
  131SOPE  H18S14111   2.670   6.826   4.308 -0.7210  1.1370  0.5571
  131SOPE  H18T14112   2.845   6.888   4.332  0.9245  0.3128 -1.8024
  131SOPE   C3314113   2.298   6.942   3.106  0.3515  0.9551 -0.3010
  131SOPE   H3X14114   2.381   7.016   3.100 -1.0390  2.7988  1.5467
  131SOPE   H3Y14115   2.347   6.849   3.141 -1.3068 -0.4271 -1.4829
  131SOPE   C3414116   2.199   6.994   3.207 -0.3514 -0.2824  0.2257
  131SOPE   H4X14117   2.120   6.919   3.227  0.3604 -1.3819 -0.9112
  131SOPE   H4Y14118   2.141   7.075   3.158  1.9325  2.5698  1.8477
  131SOPE   C3514119   2.264   7.049   3.330 -0.7523  0.2257 -0.2269
  131SOPE   H5X14120   2.204   7.133   3.370 -0.7973  2.1749 -3.9365
  131SOPE   H5Y14121   2.353   7.096   3.283 -1.6046 -0.3028 -2.4535
  131SOPE   C3614122   2.300   6.948   3.446  0.2220 -0.3858  0.5030
  131SOPE   H6X14123   2.352   6.857   3.409  0.8167  0.3662 -0.5749
  131SOPE   H6Y14124   2.206   6.908   3.490  0.0790 -0.6826 -0.0529
  131SOPE   C3714125   2.383   7.002   3.563 -0.6831  0.0867  1.0774
  131SOPE   H7X14126   2.471   7.054   3.520 -0.0431 -1.1824  0.7968
  131SOPE   H7Y14127   2.424   6.910   3.612  0.8064 -0.4321 -1.0068
  131SOPE   C3814128   2.306   7.094   3.666  0.0862  0.6234  0.1777
  131SOPE   H8X14129   2.200   7.062   3.676  0.0157  0.2575 -1.5057
  131SOPE   H8Y14130   2.291   7.190   3.612 -1.6283  0.1621 -0.1986
  131SOPE   C3914131   2.384   7.102   3.795  0.5408  0.0855 -0.3461
  131SOPE   H9X14132   2.483   7.141   3.762  1.0044 -0.3116  0.5415
  131SOPE   H9Y14133   2.401   7.001   3.837 -0.3573  0.3485  0.7057
  131SOPE  C31014134   2.322   7.200   3.902  0.2168  0.1531  0.7762
  131SOPE  H10X14135   2.222   7.157   3.925 -0.1668 -0.2070 -1.3101
  131SOPE  H10Y14136   2.318   7.304   3.864 -0.0608 -0.1636 -0.0845
  131SOPE  C31114137   2.405   7.198   4.023  0.0066  0.0148 -0.1174
  131SOPE  H11X14138   2.510   7.221   3.993  0.5403  0.4782  1.9300
  131SOPE  H11Y14139   2.397   7.106   4.085  0.7359  0.1380  0.1799
  131SOPE  C31214140   2.371   7.312   4.120  0.0498 -0.8813  0.0630
  131SOPE  H12X14141   2.264   7.340   4.132  1.2903  4.4894  1.3833
  131SOPE  H12Y14142   2.405   7.400   4.061  0.6083 -0.3986  1.0847
  131SOPE  C31314143   2.447   7.305   4.250  0.3410 -0.4438  0.3265
  131SOPE  H13X14144   2.431   7.405   4.296  2.1555  0.5078 -1.0066
  131SOPE  H13Y14145   2.556   7.292   4.237  0.2423  0.4125 -1.9686
  131SOPE  C31414146   2.389   7.199   4.349  0.7207  0.3492 -0.1358
  131SOPE  H14X14147   2.410   7.097   4.310 -0.3929  0.5936 -1.4596
  131SOPE  H14Y14148   2.284   7.233   4.339  1.5727  2.5558 -2.8211
  131SOPE  C31514149   2.433   7.208   4.491 -0.8011  0.4499 -0.6682
  131SOPE  H15X14150   2.375   7.147   4.564 -0.9453  0.4203 -0.8062
  131SOPE  H15Y14151   2.433   7.317   4.512 -2.1355  0.0255  2.1023
  131SOPE  C31614152   2.574   7.154   4.512 -0.0844 -0.1412  0.5196
  131SOPE  H16X14153   2.631   7.184   4.421 -1.5594 -2.3796 -1.2632
  131SOPE  H16Y14154   2.568   7.045   4.530 -0.9709 -0.0564  0.7694
  131SOPE  C31714155   2.640   7.228   4.633  0.1471 -0.5653  0.3838
  131SOPE  H17X14156   2.578   7.206   4.723 -1.4167 -1.0078 -0.7583
  131SOPE  H17Y14157   2.644   7.338   4.623 -2.1754 -0.4497  0.3772
  131SOPE  C31814158   2.788   7.177   4.638  0.8093 -0.4102 -0.2575
  131SOPE  H18X14159   2.833   7.213   4.734 -0.5767  1.6025 -0.3020
  131SOPE  H18Y14160   2.848   7.220   4.555  0.1491 -1.7706 -1.4727
  131SOPE  H18Z14161   2.791   7.066   4.637 -2.2690 -0.5627 -0.8565
  132SOPE     N14162   0.784   1.369   2.301 -0.0345 -0.1879 -0.0343
  132SOPE   HN114163   0.761   1.343   2.203 -0.6144  0.8819 -0.2072
  132SOPE   HN214164   0.867   1.311   2.324 -1.1205 -0.5263  3.7049
  132SOPE   HN314165   0.711   1.337   2.367 -1.1331  3.4104  0.7602
  132SOPE   C1214166   0.807   1.517   2.325 -0.5059  0.0646  0.4903
  132SOPE  H12A14167   0.761   1.539   2.424 -1.3706  0.3976  0.0218
  132SOPE  H12B14168   0.747   1.575   2.252 -1.7062  1.3029  2.3700
  132SOPE   C1114169   0.959   1.546   2.306  0.3344 -0.1890 -0.1598
  132SOPE  H11A14170   1.014   1.519   2.399 -2.9857 -1.0015  1.7471
  132SOPE  H11B14171   0.986   1.653   2.289 -1.1791  0.3880  0.8661
  132SOPE     P14172   1.160   1.492   2.138  0.0828  0.1253 -0.0260
  132SOPE   O1314173   1.170   1.633   2.094  0.1086 -0.1803 -0.0835
  132SOPE   O1414174   1.185   1.390   2.034  0.0404  0.1332 -0.1852
  132SOPE   O1214175   1.016   1.470   2.201 -0.7199  0.5746 -0.6857
  132SOPE   O1114176   1.261   1.466   2.258  0.1638 -0.7249 -0.4200
  132SOPE    C114177   1.266   1.350   2.338 -0.2489 -0.1736 -0.1045
  132SOPE    HA14178   1.334   1.273   2.296 -0.0422  0.5810 -1.2197
  132SOPE    HB14179   1.166   1.303   2.340 -0.8691  1.1050 -0.1584
  132SOPE    C214180   1.312   1.368   2.482 -0.3990  0.1196  0.0477
  132SOPE    HS14181   1.254   1.452   2.526 -0.3982  1.2063 -1.9123
  132SOPE   O2114182   1.455   1.374   2.476 -0.8224  0.4201  0.1538
  132SOPE   C2114183   1.500   1.444   2.583 -0.5723 -0.1775  0.3924
  132SOPE   O2214184   1.441   1.523   2.646  0.2142 -0.4767  0.0299
  132SOPE   C2214185   1.647   1.410   2.601  0.2971 -0.3543 -0.6536
  132SOPE   H2R14186   1.709   1.453   2.520 -0.2718 -0.0295 -0.9281
  132SOPE   H2S14187   1.645   1.299   2.592  0.3808 -0.7073  2.7351
  132SOPE    C314188   1.265   1.245   2.570  0.8379  0.0676  0.7077
  132SOPE    HX14189   1.316   1.158   2.525 -0.3580  1.1115 -3.0219
  132SOPE    HY14190   1.155   1.238   2.558  0.6692  1.1891  1.4350
  132SOPE   O3114191   1.311   1.264   2.710  0.0471  0.9323 -0.0586
  132SOPE   C3114192   1.223   1.326   2.781  0.4172  0.2358  0.6197
  132SOPE   O3214193   1.115   1.373   2.742 -0.3453  0.1062  0.1783
  132SOPE   C3214194   1.276   1.350   2.919  1.2921 -0.0712  0.4410
  132SOPE   H2X14195   1.321   1.452   2.919  1.0746  0.0239  0.4201
  132SOPE   H2Y14196   1.356   1.276   2.945  0.3346 -0.8603  1.2132
  132SOPE   C2314197   1.714   1.429   2.746 -0.6328  0.1567 -0.7097
  132SOPE   H3R14198   1.723   1.538   2.765  0.2750  0.1751 -1.1885
  132SOPE   H3S14199   1.815   1.381   2.746 -0.4734  0.2407  2.8844
  132SOPE   C2414200   1.622   1.360   2.857  0.2109 -0.2072  0.0639
  132SOPE   H4R14201   1.534   1.424   2.877 -0.4778 -1.2818  0.5541
  132SOPE   H4S14202   1.588   1.259   2.827 -1.4671  0.6038 -0.9019
  132SOPE   C2514203   1.699   1.336   2.985 -0.4351 -0.2975  0.1132
  132SOPE   H5R14204   1.778   1.259   2.972 -0.3321 -1.3790  5.1721
  132SOPE   H5S14205   1.743   1.435   3.009  0.6014 -0.9090  0.8158
  132SOPE   C2614206   1.618   1.287   3.101 -0.4592  0.2431 -0.6010
  132SOPE   H6R14207   1.534   1.354   3.133 -1.4757 -0.7047 -1.2155
  132SOPE   H6S14208   1.570   1.190   3.079 -0.6868  0.2021  0.0552
  132SOPE   C2714209   1.711   1.270   3.227  0.3120  0.3253 -0.6856
  132SOPE   H7R14210   1.780   1.186   3.204 -0.5445 -0.3285 -0.8838
  132SOPE   H7S14211   1.767   1.366   3.235 -0.2929  0.8633 -2.4822
  132SOPE   C2814212   1.618   1.249   3.351 -0.4975  0.1810 -0.1336
  132SOPE   H8R14213   1.573   1.348   3.373 -1.0106 -0.5204  2.2798
  132SOPE   H8S14214   1.544   1.174   3.318  0.1086 -0.2089 -0.6419
  132SOPE   C2914215   1.700   1.202   3.470  0.1225 -0.0334  0.3938
  132SOPE   H9114216   1.800   1.164   3.446  0.2456  0.8265 -0.5625
  132SOPE  C21014217   1.656   1.204   3.595  0.3103 -0.0076  0.0400
  132SOPE  H10114218   1.717   1.152   3.671  0.4871 -0.5272 -0.4472
  132SOPE  C21114219   1.531   1.259   3.659 -0.3099  0.1401 -0.7419
  132SOPE  H11R14220   1.471   1.179   3.708  1.3621 -0.6413  0.1388
  132SOPE  H11S14221   1.475   1.317   3.583  1.2821  2.8572  0.0205
  132SOPE  C21214222   1.555   1.352   3.780  0.3830 -0.3812 -0.6104
  132SOPE  H12R14223   1.452   1.374   3.816 -0.0749 -0.7464 -1.6350
  132SOPE  H12S14224   1.597   1.444   3.733  1.5737 -1.1740 -1.1370
  132SOPE  C21314225   1.638   1.304   3.897  0.1002 -1.0113 -0.3433
  132SOPE  H13R14226   1.745   1.322   3.874  0.3998 -1.2549  0.7903
  132SOPE  H13S14227   1.624   1.194   3.907 -1.9496 -0.7362  0.4256
  132SOPE  C21414228   1.612   1.388   4.021 -0.0157  0.4949 -0.5899
  132SOPE  H14R14229   1.516   1.357   4.069  0.3050  1.6404  0.8759
  132SOPE  H14S14230   1.584   1.492   3.993  0.6905  0.8680  0.0453
  132SOPE  C21514231   1.734   1.378   4.117  0.5483  0.6047  0.0936
  132SOPE  H15R14232   1.817   1.420   4.055 -0.9770 -0.1276 -2.5935
  132SOPE  H15S14233   1.755   1.272   4.143 -1.6114 -0.0015 -0.4620
  132SOPE  C21614234   1.716   1.472   4.230  0.2414 -0.5607 -0.0479
  132SOPE  H16R14235   1.636   1.448   4.303 -0.6434  0.9656 -0.4824
  132SOPE  H16S14236   1.700   1.576   4.195 -0.7182 -0.8210 -0.4046
  132SOPE  C21714237   1.845   1.481   4.320 -0.5224  0.1228 -0.1458
  132SOPE  H17R14238   1.884   1.584   4.302 -0.5292  0.0812 -0.4020
  132SOPE  H17S14239   1.922   1.419   4.271  0.0661  2.2660 -2.1151
  132SOPE  C21814240   1.822   1.424   4.465  0.2486 -0.4769  0.3122
  132SOPE  H18R14241   1.760   1.332   4.463 -0.2403 -0.1831  1.3379
  132SOPE  H18S14242   1.775   1.505   4.524 -0.8397 -0.1696 -0.9488
  132SOPE  H18T14243   1.916   1.389   4.514  0.9686 -1.0800 -1.3992
  132SOPE   C3314244   1.157   1.337   3.021 -0.1752  0.1888  0.8187
  132SOPE   H3X14245   1.117   1.234   3.009  1.3658 -0.2697 -0.7876
  132SOPE   H3Y14246   1.085   1.421   3.009 -0.4997 -0.3378 -1.3092
  132SOPE   C3414247   1.212   1.338   3.169  0.0490  0.3228 -0.1451
  132SOPE   H4X14248   1.242   1.441   3.197 -2.1630  0.9677 -0.0052
  132SOPE   H4Y14249   1.313   1.291   3.164  0.4557  1.0720  0.8431
  132SOPE   C3514250   1.130   1.284   3.281 -0.1961 -0.0770  0.1309
  132SOPE   H5X14251   1.112   1.174   3.286 -1.1821  0.1085  1.3088
  132SOPE   H5Y14252   1.028   1.325   3.263  0.4756  0.8165 -1.9443
  132SOPE   C3614253   1.189   1.323   3.418 -0.4038 -0.3924  0.0885
  132SOPE   H6X14254   1.199   1.433   3.417  1.2895 -0.4671  2.6199
  132SOPE   H6Y14255   1.278   1.263   3.444 -1.2874 -0.7465  2.6251
  132SOPE   C3714256   1.091   1.294   3.538 -0.1592  0.9985  0.2467
  132SOPE   H7X14257   1.036   1.200   3.516 -1.0829  1.1280  1.8784
  132SOPE   H7Y14258   1.019   1.378   3.538 -0.9441  0.4597 -2.8372
  132SOPE   C3814259   1.161   1.283   3.674 -1.0301  0.2881 -0.6157
  132SOPE   H8X14260   1.210   1.373   3.717  1.1615 -2.2486  2.6560
  132SOPE   H8Y14261   1.242   1.209   3.658 -0.7404 -0.1772  2.4982
  132SOPE   C3914262   1.071   1.247   3.791 -0.1233  0.2478 -0.1122
  132SOPE   H9X14263   1.036   1.142   3.778  0.5171  0.1055 -0.7863
  132SOPE   H9Y14264   0.985   1.317   3.788 -2.0308 -1.9259  0.7389
  132SOPE  C31014265   1.139   1.260   3.924 -0.4314 -1.1108  0.1497
  132SOPE  H10X14266   1.179   1.362   3.941 -1.2838 -0.7556  0.0510
  132SOPE  H10Y14267   1.223   1.189   3.938  0.7930  0.5920  2.1140
  132SOPE  C31114268   1.047   1.228   4.042  1.0889  0.2777  0.1361
  132SOPE  H11X14269   1.005   1.126   4.025 -0.3266  1.1126 -1.7823
  132SOPE  H11Y14270   0.964   1.301   4.044 -0.2877 -1.2298  2.3698
  132SOPE  C31214271   1.118   1.234   4.175 -1.1340  0.1309 -0.4003
  132SOPE  H12X14272   1.224   1.262   4.158 -1.2929  1.2251  0.3541
  132SOPE  H12Y14273   1.112   1.138   4.232  2.0596  0.4646  0.6951
  132SOPE  C31314274   1.065   1.338   4.275 -0.4902  0.1844 -0.3634
  132SOPE  H13X14275   0.957   1.312   4.284 -0.6259  1.1576  1.0066
  132SOPE  H13Y14276   1.071   1.442   4.236  3.4105  0.3625  0.3277
  132SOPE  C31414277   1.134   1.322   4.414  0.5698 -0.1724 -0.7534
  132SOPE  H14X14278   1.158   1.216   4.436  0.1740  0.0995  1.2082
  132SOPE  H14Y14279   1.058   1.359   4.486  2.7963  1.4698  0.8907
  132SOPE  C31514280   1.268   1.399   4.430  0.0689  0.1560  0.4125
  132SOPE  H15X14281   1.357   1.351   4.382 -0.8953 -0.6743 -0.5946
  132SOPE  H15Y14282   1.294   1.395   4.538  3.7957  0.7120 -0.3137
  132SOPE  C31614283   1.273   1.548   4.390 -0.4874  0.2895  0.0243
  132SOPE  H16X14284   1.172   1.580   4.424 -1.9660 -1.0114 -2.8258
  132SOPE  H16Y14285   1.282   1.559   4.280 -0.1778 -0.2609 -0.0090
  132SOPE  C31714286   1.387   1.634   4.459  0.2323 -1.1955 -0.0882
  132SOPE  H17X14287   1.482   1.603   4.410  0.7451  0.8466 -0.4762
  132SOPE  H17Y14288   1.390   1.600   4.565  0.2670  0.3353  0.4268
  132SOPE  C31814289   1.360   1.779   4.450  0.5188  0.2776 -0.0410
  132SOPE  H18X14290   1.439   1.852   4.479 -0.1008  0.8177  0.3253
  132SOPE  H18Y14291   1.265   1.813   4.496 -0.1923  1.0085 -1.9492
  132SOPE  H18Z14292   1.337   1.811   4.346 -1.5397  0.9577  0.5761
  133SOPE     N14293   1.928   4.404   2.338 -0.2279  0.1634 -0.2697
  133SOPE   HN114294   1.939   4.335   2.415  1.9886  1.1031  0.3435
  133SOPE   HN214295   1.977   4.369   2.253 -0.2038 -0.6832  0.0782
  133SOPE   HN314296   1.978   4.488   2.375 -0.2206  0.3574 -0.7146
  133SOPE   C1214297   1.777   4.425   2.316 -0.1985 -0.0752 -0.7591
  133SOPE  H12A14298   1.757   4.525   2.272  1.5098  2.1191  2.9796
  133SOPE  H12B14299   1.722   4.431   2.412  1.1422 -0.9410  0.0971
  133SOPE   C1114300   1.711   4.313   2.233  0.0146  0.4438  0.3983
  133SOPE  H11A14301   1.747   4.292   2.130 -4.2629  1.0218 -1.4417
  133SOPE  H11B14302   1.605   4.342   2.217 -0.4741 -1.5009 -0.1431
  133SOPE     P14303   1.661   4.056   2.254  0.0186 -0.0423  0.1846
  133SOPE   O1314304   1.779   3.967   2.236 -0.1187 -0.5333  0.3938
  133SOPE   O1414305   1.574   4.078   2.136 -0.0764 -0.2199  0.1955
  133SOPE   O1214306   1.707   4.197   2.314  0.1507  0.0615 -0.0766
  133SOPE   O1114307   1.574   4.010   2.364  0.5067  0.4935  0.0969
  133SOPE    C114308   1.430   4.036   2.379 -0.8237 -0.1129  0.4221
  133SOPE    HA14309   1.372   3.963   2.319 -1.1117  1.2784 -1.0490
  133SOPE    HB14310   1.395   4.136   2.345 -0.8398 -0.3263 -0.2025
  133SOPE    C214311   1.390   3.990   2.523  0.3781  0.7205 -0.3106
  133SOPE    HS14312   1.279   3.990   2.533  0.1530  0.3794 -2.4364
  133SOPE   O2114313   1.451   4.072   2.619 -0.2764  0.4134 -0.7217
  133SOPE   C2114314   1.449   4.204   2.592  0.8301  0.2223 -0.5920
  133SOPE   O2214315   1.360   4.258   2.525  0.5653  0.0871  0.0366
  133SOPE   C2214316   1.578   4.268   2.627  0.1770 -0.4437  0.3287
  133SOPE   H2R14317   1.563   4.377   2.614 -2.2401 -0.8459 -0.9924
  133SOPE   H2S14318   1.657   4.224   2.563  1.4616 -1.1760  2.3267
  133SOPE    C314319   1.425   3.841   2.552  0.3113 -0.1591  0.4656
  133SOPE    HX14320   1.534   3.827   2.537  0.3963  1.8989 -1.3894
  133SOPE    HY14321   1.386   3.763   2.484 -3.2810  0.4299  1.6230
  133SOPE   O3114322   1.387   3.813   2.684 -0.1127 -0.6635 -0.2146
  133SOPE   C3114323   1.476   3.843   2.782  0.6650 -0.0366  0.0920
  133SOPE   O3214324   1.591   3.881   2.772  0.1662 -0.1787 -0.0418
  133SOPE   C3214325   1.410   3.815   2.913 -0.0632 -0.5416  0.0063
  133SOPE   H2X14326   1.337   3.732   2.902  0.0328 -0.5126 -0.8916
  133SOPE   H2Y14327   1.354   3.908   2.940  0.2568  0.0475 -1.2926
  133SOPE   C2314328   1.609   4.249   2.774  0.2878 -0.8270 -0.5554
  133SOPE   H3R14329   1.717   4.259   2.795  0.1526 -0.2277 -0.1397
  133SOPE   H3S14330   1.584   4.154   2.825  1.6056  0.4624  2.7143
  133SOPE   C2414331   1.535   4.351   2.864 -0.2421  0.1204  0.0234
  133SOPE   H4R14332   1.531   4.450   2.813  0.3783 -0.0945 -0.4581
  133SOPE   H4S14333   1.428   4.319   2.862  0.0854 -1.0048 -1.4169
  133SOPE   C2514334   1.599   4.377   2.999  0.1664  0.5747  0.1611
  133SOPE   H5R14335   1.708   4.400   2.993  0.7031 -0.7784  2.9919
  133SOPE   H5S14336   1.550   4.471   3.032 -1.3273 -0.7767  1.9676
  133SOPE   C2614337   1.576   4.281   3.111 -0.1617 -0.1441 -0.2549
  133SOPE   H6R14338   1.625   4.182   3.099 -1.0997 -0.5721 -0.6510
  133SOPE   H6S14339   1.610   4.329   3.205 -0.5470  1.7555 -1.0491
  133SOPE   C2714340   1.423   4.253   3.145  0.4006 -0.1674 -0.7113
  133SOPE   H7R14341   1.375   4.353   3.148 -1.2686 -0.9324  2.4584
  133SOPE   H7S14342   1.387   4.197   3.056 -0.3251 -0.7291 -0.0717
  133SOPE   C2814343   1.403   4.179   3.277  0.0400  0.7201 -0.1463
  133SOPE   H8R14344   1.303   4.133   3.286 -1.2026  3.0654 -1.0706
  133SOPE   H8S14345   1.477   4.096   3.268 -1.2125 -0.3867 -0.5530
  133SOPE   C2914346   1.424   4.274   3.390  0.8919 -0.1292  0.2220
  133SOPE   H9114347   1.333   4.335   3.399 -1.7229 -3.8653  1.5174
  133SOPE  C21014348   1.531   4.287   3.471  0.1971  0.6590  0.3885
  133SOPE  H10114349   1.534   4.371   3.543 -0.6083  0.5526  0.5509
  133SOPE  C21114350   1.658   4.201   3.468  0.0413 -0.6810 -0.0881
  133SOPE  H11R14351   1.654   4.114   3.399  1.1557 -1.9342  1.3663
  133SOPE  H11S14352   1.649   4.164   3.572 -3.1756  2.8283  1.0918
  133SOPE  C21214353   1.797   4.275   3.450  0.4407 -0.4485  0.5351
  133SOPE  H12R14354   1.796   4.361   3.521 -1.4580  0.3906 -0.4111
  133SOPE  H12S14355   1.797   4.333   3.355 -3.0741  0.0255  0.6965
  133SOPE  C21314356   1.932   4.192   3.470  0.5769 -0.4062 -0.2398
  133SOPE  H13R14357   1.942   4.168   3.578  0.3624  1.2747  0.1730
  133SOPE  H13S14358   2.016   4.256   3.435  2.1217 -1.1036  1.9834
  133SOPE  C21414359   1.932   4.064   3.377 -0.2941  0.0294 -0.3512
  133SOPE  H14R14360   1.847   4.000   3.409 -0.3037  1.1845  2.1415
  133SOPE  H14S14361   2.029   4.013   3.395 -0.3464 -0.0458 -0.2828
  133SOPE  C21514362   1.909   4.101   3.230 -0.4678 -0.0972  0.2077
  133SOPE  H15R14363   1.997   4.161   3.196 -0.9997 -1.2103 -3.6794
  133SOPE  H15S14364   1.807   4.143   3.213  0.1090  1.4361  0.3351
  133SOPE  C21614365   1.928   3.979   3.142  0.3913 -0.1271  0.3330
  133SOPE  H16R14366   1.831   3.932   3.118  0.3795  0.1762 -0.2319
  133SOPE  H16S14367   1.996   3.912   3.199 -0.7280 -1.0744  0.5868
  133SOPE  C21714368   1.961   4.006   2.993 -0.4846 -0.0160  1.0371
  133SOPE  H17R14369   2.055   4.066   2.986  0.6200 -1.6460  1.2576
  133SOPE  H17S14370   1.883   4.071   2.950  0.5638  1.1118  0.7667
  133SOPE  C21814371   1.985   3.877   2.919 -0.3631  0.5381 -0.0670
  133SOPE  H18R14372   1.981   3.787   2.984 -1.1447  0.0362 -0.7801
  133SOPE  H18S14373   2.079   3.869   2.859  0.1454  1.2881  0.6199
  133SOPE  H18T14374   1.907   3.857   2.842 -1.0422 -0.7187  0.9137
  133SOPE   C3314375   1.507   3.795   3.033 -0.2774 -0.1431  0.2350
  133SOPE   H3X14376   1.583   3.876   3.043  0.8962 -1.2992  1.0286
  133SOPE   H3Y14377   1.560   3.700   3.012 -0.0651 -0.1913  0.9460
  133SOPE   C3414378   1.440   3.792   3.173  0.7119  0.5001  0.9109
  133SOPE   H4X14379   1.362   3.714   3.178  0.5869  0.5350 -0.3107
  133SOPE   H4Y14380   1.381   3.885   3.189 -2.9335 -1.4622 -0.0036
  133SOPE   C3514381   1.538   3.771   3.289  0.5649  0.3821 -0.2511
  133SOPE   H5X14382   1.626   3.837   3.274  0.6024  1.0481  2.3552
  133SOPE   H5Y14383   1.563   3.663   3.288  1.0566  0.4986 -0.7229
  133SOPE   C3614384   1.480   3.815   3.425  0.1128  0.1200 -0.4793
  133SOPE   H6X14385   1.395   3.749   3.453  0.6514 -0.1244  0.6535
  133SOPE   H6Y14386   1.434   3.914   3.405 -1.3111 -0.5426 -0.6040
  133SOPE   C3714387   1.572   3.800   3.550 -0.2373  0.4153  0.9151
  133SOPE   H7X14388   1.673   3.843   3.534  0.5618 -2.0667 -1.7436
  133SOPE   H7Y14389   1.597   3.693   3.562 -3.2925 -0.3463  1.3453
  133SOPE   C3814390   1.504   3.833   3.684 -0.1575 -0.7574 -0.2088
  133SOPE   H8X14391   1.409   3.778   3.703 -0.5842  0.4564  1.4636
  133SOPE   H8Y14392   1.470   3.939   3.681 -1.2738 -1.0845  0.2790
  133SOPE   C3914393   1.595   3.798   3.807 -0.2013  0.3599  0.0307
  133SOPE   H9X14394   1.695   3.846   3.805 -0.3451  0.7759  1.8288
  133SOPE   H9Y14395   1.609   3.689   3.824  0.4028  0.6790  1.7857
  133SOPE  C31014396   1.532   3.867   3.930 -0.0369 -0.3052  0.1370
  133SOPE  H10X14397   1.433   3.826   3.959 -0.3723  0.2789 -0.1784
  133SOPE  H10Y14398   1.523   3.972   3.896  4.2510 -0.2532 -1.4341
  133SOPE  C31114399   1.622   3.875   4.056 -0.2654  0.9742  0.3784
  133SOPE  H11X14400   1.594   3.964   4.116 -0.2352  1.1286  0.1666
  133SOPE  H11Y14401   1.728   3.890   4.027 -0.3826 -0.3821 -0.8858
  133SOPE  C31214402   1.616   3.746   4.147 -0.1788  1.7168 -0.0112
  133SOPE  H12X14403   1.636   3.656   4.083 -0.4851  2.6571 -1.4889
  133SOPE  H12Y14404   1.510   3.748   4.182 -0.7693 -0.2194 -1.4515
  133SOPE  C31314405   1.718   3.773   4.254 -0.4660 -0.0779  0.0415
  133SOPE  H13X14406   1.672   3.755   4.353  0.9506 -1.9463  0.4282
  133SOPE  H13Y14407   1.752   3.879   4.246 -0.7750  0.0097 -0.1275
  133SOPE  C31414408   1.839   3.671   4.247  0.3185 -0.7939 -0.3707
  133SOPE  H14X14409   1.815   3.608   4.158  0.0704 -0.2983 -0.6589
  133SOPE  H14Y14410   1.844   3.618   4.344 -1.0631  2.0974  1.3873
  133SOPE  C31514411   1.974   3.742   4.224  1.0440  0.7225 -0.3537
  133SOPE  H15X14412   2.002   3.806   4.311  2.7868 -1.7281  1.0239
  133SOPE  H15Y14413   1.966   3.801   4.131 -2.3854  1.6806  0.4093
  133SOPE  C31614414   2.092   3.643   4.202  0.8002  0.0696  1.0046
  133SOPE  H16X14415   2.107   3.591   4.298 -1.9299  0.8734  1.9465
  133SOPE  H16Y14416   2.180   3.708   4.181 -0.3440  1.5229  0.4966
  133SOPE  C31714417   2.065   3.563   4.076  0.2439  0.2012  0.5885
  133SOPE  H17X14418   2.010   3.629   4.005 -0.0182 -0.5580  0.0652
  133SOPE  H17Y14419   2.004   3.471   4.086  1.4292 -1.0906 -2.5693
  133SOPE  C31814420   2.199   3.515   4.017  0.4797 -0.2957 -0.7107
  133SOPE  H18X14421   2.178   3.453   3.927 -0.3214 -4.2014  1.8924
  133SOPE  H18Y14422   2.246   3.454   4.097 -3.8429 -1.6002  1.1638
  133SOPE  H18Z14423   2.256   3.601   3.978 -0.8407  0.6942 -0.5364
  134SOPE     N14424   6.450   4.812   2.132  0.2404  0.1649 -1.0823
  134SOPE   HN114425   6.417   4.905   2.166  2.8553  0.4888  0.9137
  134SOPE   HN214426   6.364   4.758   2.109  0.6814 -0.4709 -1.2723
  134SOPE   HN314427   6.508   4.768   2.206  2.2576  0.8395 -2.1750
  134SOPE   C1214428   6.543   4.830   2.014 -0.2171  0.0993  0.2629
  134SOPE  H12A14429   6.495   4.902   1.945 -2.3173 -2.1157 -0.7629
  134SOPE  H12B14430   6.550   4.730   1.966  0.7419  0.2948 -0.0226
  134SOPE   C1114431   6.688   4.875   2.065  0.3012 -0.2223 -0.1591
  134SOPE  H11A14432   6.675   4.957   2.139  0.9628  0.9194 -1.2712
  134SOPE  H11B14433   6.748   4.919   1.983 -0.5561  1.2492 -0.0310
  134SOPE     P14434   6.846   4.668   2.055  0.6926  0.3100 -0.3538
  134SOPE   O1314435   6.986   4.697   2.091  0.8216  0.5953 -0.4813
  134SOPE   O1414436   6.809   4.658   1.913 -0.6136 -0.2560  0.0652
  134SOPE   O1214437   6.754   4.768   2.132 -0.8704 -0.0657 -0.3846
  134SOPE   O1114438   6.814   4.531   2.124 -0.1777 -0.2098 -0.4908
  134SOPE    C114439   6.683   4.494   2.179 -0.9576  0.1009 -0.0208
  134SOPE    HA14440   6.643   4.408   2.121 -1.9851  1.1205 -0.8727
  134SOPE    HB14441   6.601   4.567   2.162  1.2669  2.1193 -3.3094
  134SOPE    C214442   6.701   4.462   2.327  0.0974 -0.1046  0.3559
  134SOPE    HS14443   6.604   4.431   2.372 -0.0807 -0.9886 -0.6125
  134SOPE   O2114444   6.742   4.574   2.408 -0.7805  0.1324  0.0742
  134SOPE   C2114445   6.663   4.680   2.415 -0.2879  0.0845 -0.0770
  134SOPE   O2214446   6.551   4.692   2.369  0.2750  0.1420 -0.1793
  134SOPE   C2214447   6.740   4.793   2.481  0.2968  0.2854 -0.2669
  134SOPE   H2R14448   6.784   4.856   2.401 -0.3283 -0.1002 -0.9247
  134SOPE   H2S14449   6.833   4.756   2.531  0.2476  0.9112  0.2959
  134SOPE    C314450   6.799   4.353   2.341  0.0775  0.1483 -0.6584
  134SOPE    HX14451   6.898   4.390   2.308  0.9174  0.9886  2.5204
  134SOPE    HY14452   6.774   4.277   2.263 -1.9144 -0.0862  0.1493
  134SOPE   O3114453   6.809   4.296   2.473 -0.2552 -0.1243 -0.0892
  134SOPE   C3114454   6.728   4.199   2.502  0.3746 -0.8876  0.3597
  134SOPE   O3214455   6.621   4.177   2.453 -0.8607  0.5940  0.0852
  134SOPE   C3214456   6.770   4.139   2.641 -0.4648  0.2241  0.0199
  134SOPE   H2X14457   6.855   4.196   2.682 -0.4157 -0.5694  1.0584
  134SOPE   H2Y14458   6.790   4.032   2.616  0.2026  0.2769  0.3227
  134SOPE   C2314459   6.651   4.866   2.585 -0.3504  0.0573  0.7504
  134SOPE   H3R14460   6.560   4.906   2.535 -0.4348  0.2007  1.0179
  134SOPE   H3S14461   6.701   4.959   2.619 -0.9995  1.1387 -1.0915
  134SOPE   C2414462   6.605   4.785   2.710 -0.5729  0.0417 -0.2507
  134SOPE   H4R14463   6.557   4.848   2.788  4.2193  1.7052  1.7388
  134SOPE   H4S14464   6.521   4.716   2.686  1.2988 -2.2761 -0.4619
  134SOPE   C2514465   6.719   4.703   2.775 -0.0739 -0.1555 -0.2614
  134SOPE   H5R14466   6.761   4.629   2.704  0.7931 -1.2660  1.3581
  134SOPE   H5S14467   6.803   4.771   2.802 -0.2701  0.0160 -0.0845
  134SOPE   C2614468   6.682   4.622   2.895  0.3278 -0.0687  0.3112
  134SOPE   H6R14469   6.635   4.692   2.966  0.0264  0.3472 -0.2922
  134SOPE   H6S14470   6.612   4.538   2.876  1.9728 -1.6455  0.8955
  134SOPE   C2714471   6.801   4.545   2.955 -0.1884  0.3940 -1.0695
  134SOPE   H7R14472   6.832   4.477   2.873 -0.5887 -1.2218  0.0722
  134SOPE   H7S14473   6.888   4.611   2.976 -0.2750  0.2007 -0.0530
  134SOPE   C2814474   6.763   4.466   3.081 -0.0097  0.7077 -0.5203
  134SOPE   H8R14475   6.665   4.418   3.059  0.6849 -0.3540 -1.3498
  134SOPE   H8S14476   6.831   4.379   3.094 -0.9861 -0.3048 -1.8762
  134SOPE   C2914477   6.751   4.564   3.191 -0.4765 -0.1429  0.3148
  134SOPE   H9114478   6.686   4.648   3.161 -1.2674 -1.2426 -1.2364
  134SOPE  C21014479   6.788   4.550   3.323 -0.2445 -0.2912  0.3023
  134SOPE  H10114480   6.760   4.632   3.391  1.4929  0.4910  0.1257
  134SOPE  C21114481   6.867   4.439   3.382  0.0171 -0.1165  0.5880
  134SOPE  H11R14482   6.941   4.389   3.316 -0.2658 -1.7401  1.4419
  134SOPE  H11S14483   6.800   4.357   3.415  0.8485 -2.0210 -2.1294
  134SOPE  C21214484   6.945   4.489   3.506  0.4007  0.4131 -0.3559
  134SOPE  H12R14485   6.878   4.544   3.576  1.5234 -0.0355  1.1195
  134SOPE  H12S14486   7.020   4.566   3.477  1.5561 -0.4578  0.2752
  134SOPE  C21314487   7.003   4.373   3.599  0.4545 -0.0229 -0.2533
  134SOPE  H13R14488   7.077   4.319   3.537  0.2106  0.0724 -0.6329
  134SOPE  H13S14489   6.929   4.292   3.615 -0.2133  1.0428  2.7561
  134SOPE  C21414490   7.066   4.411   3.731 -0.3698  0.2057  0.5601
  134SOPE  H14R14491   6.996   4.475   3.789 -0.4687  1.2618 -0.6842
  134SOPE  H14S14492   7.150   4.479   3.704  1.1307 -1.0104  1.9918
  134SOPE  C21514493   7.138   4.292   3.794  0.0761 -0.6696  0.6533
  134SOPE  H15R14494   7.226   4.259   3.736 -0.1284 -0.1495  0.0278
  134SOPE  H15S14495   7.071   4.203   3.791 -0.4362 -0.2742 -0.1981
  134SOPE  C21614496   7.178   4.312   3.939  0.3090 -0.3164  0.1476
  134SOPE  H16R14497   7.156   4.416   3.974 -1.1111 -0.4048 -0.4335
  134SOPE  H16S14498   7.287   4.293   3.949  0.3874  0.0042 -0.0864
  134SOPE  C21714499   7.093   4.226   4.037 -0.2672  0.5074  0.0494
  134SOPE  H17R14500   7.130   4.123   4.016  0.0000  0.6544 -0.2112
  134SOPE  H17S14501   6.982   4.226   4.033 -0.3686  1.1082  2.1089
  134SOPE  C21814502   7.127   4.261   4.177 -0.0957  0.3152 -0.2597
  134SOPE  H18R14503   7.087   4.181   4.244 -2.1359  1.3329 -0.1940
  134SOPE  H18S14504   7.081   4.358   4.203 -1.6714 -0.4988  0.1382
  134SOPE  H18T14505   7.236   4.258   4.199 -0.4989 -0.3579  1.9991
  134SOPE   C3314506   6.652   4.137   2.746  0.1341  0.6299  0.8648
  134SOPE   H3X14507   6.570   4.085   2.692  0.5323 -0.3921  1.2233
  134SOPE   H3Y14508   6.606   4.238   2.761  1.1160  1.4135 -1.0420
  134SOPE   C3414509   6.688   4.080   2.880 -0.6700  0.2889  0.5942
  134SOPE   H4X14510   6.776   4.133   2.922 -2.4885  2.7581  1.4986
  134SOPE   H4Y14511   6.705   3.970   2.880 -0.0723  0.3578  2.0628
  134SOPE   C3514512   6.579   4.102   2.982  0.6489  0.4263 -0.2951
  134SOPE   H5X14513   6.489   4.048   2.943  1.5035  0.3276 -2.2293
  134SOPE   H5Y14514   6.552   4.210   2.986 -0.1939  0.2759 -1.2766
  134SOPE   C3614515   6.600   4.028   3.113  0.1674  0.5817  0.7304
  134SOPE   H6X14516   6.700   4.060   3.147  0.6188  0.9097 -0.8552
  134SOPE   H6Y14517   6.598   3.917   3.106  0.5009  0.4215  2.6408
  134SOPE   C3714518   6.494   4.081   3.214  0.3363 -0.1537  0.1952
  134SOPE   H7X14519   6.400   4.029   3.186  0.5024  0.1542 -0.9789
  134SOPE   H7Y14520   6.468   4.188   3.199  0.5085 -0.0797  0.4203
  134SOPE   C3814521   6.536   4.054   3.353  0.1299 -0.2513 -0.1805
  134SOPE   H8X14522   6.606   4.134   3.384 -0.3793  0.3617 -0.6063
  134SOPE   H8Y14523   6.591   3.958   3.368  0.1581  0.0555  1.9766
  134SOPE   C3914524   6.412   4.048   3.449 -0.5292  0.6760 -0.2624
  134SOPE   H9X14525   6.357   3.952   3.436  0.8132 -0.3826  1.4085
  134SOPE   H9Y14526   6.342   4.134   3.440 -0.5580  0.5094 -1.8766
  134SOPE  C31014527   6.464   4.057   3.596 -0.1738  1.0391 -0.5990
  134SOPE  H10X14528   6.530   4.145   3.611  1.1407 -0.2763  2.0836
  134SOPE  H10Y14529   6.523   3.967   3.624  0.8097  1.6292 -0.7401
  134SOPE  C31114530   6.351   4.073   3.698  0.2880  0.0133 -1.0506
  134SOPE  H11X14531   6.280   3.988   3.694 -1.7399  1.4306  1.1189
  134SOPE  H11Y14532   6.291   4.163   3.672 -1.1427 -0.8595 -0.8874
  134SOPE  C31214533   6.405   4.073   3.846  0.6188 -0.2550  0.2632
  134SOPE  H12X14534   6.469   4.163   3.842  0.5195 -0.2030 -0.3543
  134SOPE  H12Y14535   6.460   3.979   3.869 -0.3593 -0.1442  3.5983
  134SOPE  C31314536   6.293   4.087   3.951  0.4339 -0.5153  0.3251
  134SOPE  H13X14537   6.232   3.995   3.940 -0.2180  0.0077 -0.5910
  134SOPE  H13Y14538   6.233   4.180   3.942  0.5091 -0.5593 -0.8111
  134SOPE  C31414539   6.344   4.088   4.094  0.1396  0.6408  0.2041
  134SOPE  H14X14540   6.429   4.159   4.102 -0.9559  2.8375 -4.3658
  134SOPE  H14Y14541   6.378   3.989   4.130  1.9433  1.3846  0.6956
  134SOPE  C31514542   6.232   4.132   4.198  0.1831  0.1578 -0.0164
  134SOPE  H15X14543   6.187   4.229   4.168  0.0557  0.1211  0.0515
  134SOPE  H15Y14544   6.277   4.164   4.295 -0.1406  0.4611  0.0383
  134SOPE  C31614545   6.126   4.022   4.218 -0.3890 -0.3955 -0.5311
  134SOPE  H16X14546   6.168   3.951   4.292  3.3767  0.6703 -1.4234
  134SOPE  H16Y14547   6.099   3.971   4.123  0.8246 -1.2369 -0.4483
  134SOPE  C31714548   5.989   4.075   4.269 -0.9926  0.2799 -0.0781
  134SOPE  H17X14549   5.954   4.160   4.206 -3.2872 -1.0288 -0.6860
  134SOPE  H17Y14550   5.992   4.120   4.371  3.1254 -2.2535  1.1682
  134SOPE  C31814551   5.876   3.964   4.271  0.1936 -0.1499  0.0351
  134SOPE  H18X14552   5.840   3.948   4.167 -0.0131 -1.1578  0.2500
  134SOPE  H18Y14553   5.791   4.005   4.330  0.3009 -1.6093  1.2441
  134SOPE  H18Z14554   5.919   3.875   4.322  1.4404  0.7955  0.6812
  135SOPE     N14555   5.474   4.669   1.726 -0.1287 -0.9553  0.2507
  135SOPE   HN114556   5.565   4.683   1.774  0.4560 -3.6231  0.0801
  135SOPE   HN214557   5.496   4.598   1.653  2.2366 -0.8852  0.8181
  135SOPE   HN314558   5.442   4.759   1.687  0.1136 -0.6070  0.8469
  135SOPE   C1214559   5.380   4.608   1.825 -0.1721  0.4187  0.1781
  135SOPE  H12A14560   5.290   4.572   1.771  0.2256  0.1745 -0.3312
  135SOPE  H12B14561   5.351   4.683   1.902 -0.3582 -0.4254  0.9456
  135SOPE   C1114562   5.453   4.491   1.894  0.0259 -0.4501 -0.4364
  135SOPE  H11A14563   5.384   4.431   1.957  1.4230  0.0423  1.6892
  135SOPE  H11B14564   5.519   4.531   1.974  1.3660 -1.9822 -0.7337
  135SOPE     P14565   5.563   4.275   1.811  0.3976  0.5663  0.1438
  135SOPE   O1314566   5.693   4.240   1.753 -0.6208  0.4669 -0.1067
  135SOPE   O1414567   5.445   4.205   1.757  0.2695 -0.1429  0.4046
  135SOPE   O1214568   5.541   4.431   1.802  0.3211  0.2762  0.4578
  135SOPE   O1114569   5.568   4.249   1.964  0.4044  0.2453  0.2688
  135SOPE    C114570   5.581   4.115   2.011  0.6061  0.1587  0.7322
  135SOPE    HA14571   5.689   4.088   2.003  0.4777 -0.1791  0.0586
  135SOPE    HB14572   5.522   4.041   1.953  0.0964  1.8579 -1.0112
  135SOPE    C214573   5.517   4.093   2.151 -0.3586  0.2463  0.2842
  135SOPE    HS14574   5.408   4.077   2.143 -0.3489  0.4145 -0.2470
  135SOPE   O2114575   5.549   4.191   2.248 -0.1010  0.6742 -0.1574
  135SOPE   C2114576   5.458   4.286   2.265  0.3008 -0.0062  0.1893
  135SOPE   O2214577   5.355   4.291   2.198 -0.8211 -0.0610 -0.6104
  135SOPE   C2214578   5.505   4.392   2.370  0.0411 -0.2299  0.0578
  135SOPE   H2R14579   5.412   4.448   2.391  0.4567  0.8752 -0.9261
  135SOPE   H2S14580   5.580   4.464   2.332 -2.1441  3.1113  1.6373
  135SOPE    C314581   5.582   3.964   2.206 -0.8585 -0.0174  0.1039
  135SOPE    HX14582   5.689   3.980   2.183 -0.8108 -0.4891 -0.0129
  135SOPE    HY14583   5.558   3.885   2.131  1.3714  0.2772 -0.9827
  135SOPE   O3114584   5.543   3.935   2.346  0.0695  0.3230  0.4631
  135SOPE   C3114585   5.423   3.885   2.356 -0.0671  0.0435 -0.4082
  135SOPE   O3214586   5.341   3.874   2.266 -0.1694  0.3654  0.0773
  135SOPE   C3214587   5.390   3.841   2.506 -0.6345  0.1191 -0.6225
  135SOPE   H2X14588   5.491   3.805   2.537  0.6762  0.8300 -3.6870
  135SOPE   H2Y14589   5.324   3.752   2.495  0.1834 -0.7328  1.0167
  135SOPE   C2314590   5.542   4.328   2.501 -0.5376 -0.8938 -0.1030
  135SOPE   H3R14591   5.640   4.284   2.473 -0.3071 -0.7672  0.4993
  135SOPE   H3S14592   5.465   4.251   2.523 -0.6552 -0.6463  0.3732
  135SOPE   C2414593   5.570   4.430   2.609  0.0640 -0.5969  0.4554
  135SOPE   H4R14594   5.472   4.462   2.651  1.6615  1.7292  2.7333
  135SOPE   H4S14595   5.629   4.379   2.688 -2.1707  0.0232  2.6479
  135SOPE   C2514596   5.672   4.537   2.554 -0.7757  0.0257 -0.1479
  135SOPE   H5R14597   5.760   4.495   2.501 -1.9780  0.3451 -2.5500
  135SOPE   H5S14598   5.630   4.608   2.479 -1.0423 -0.6320 -0.6279
  135SOPE   C2614599   5.736   4.628   2.672  0.0106  0.4498  0.2893
  135SOPE   H6R14600   5.810   4.693   2.620  0.4851 -0.3207 -0.0293
  135SOPE   H6S14601   5.653   4.685   2.718 -0.4473  0.7022 -0.8171
  135SOPE   C2714602   5.820   4.557   2.781 -0.4790  0.0276 -0.5171
  135SOPE   H7R14603   5.758   4.491   2.846  0.4562 -2.9557 -2.4353
  135SOPE   H7S14604   5.890   4.491   2.726 -2.0893 -0.2670 -2.3270
  135SOPE   C2814605   5.889   4.661   2.874  0.1137 -0.5822  0.6315
  135SOPE   H8R14606   5.956   4.602   2.940  1.2912 -0.7993 -0.7179
  135SOPE   H8S14607   5.951   4.732   2.816 -0.4378 -2.2777 -2.2114
  135SOPE   C2914608   5.780   4.728   2.953 -0.4474  0.0119 -0.7167
  135SOPE   H9114609   5.696   4.779   2.904  0.2761 -1.7785 -4.1274
  135SOPE  C21014610   5.782   4.726   3.086  0.5559  0.0002 -0.6681
  135SOPE  H10114611   5.702   4.781   3.139  2.2006  1.2611  0.6158
  135SOPE  C21114612   5.875   4.663   3.180 -0.1634  0.7485 -0.0688
  135SOPE  H11R14613   5.982   4.669   3.152 -0.7154  2.9820 -2.0342
  135SOPE  H11S14614   5.843   4.557   3.188 -0.5545  0.8609 -0.1167
  135SOPE  C21214615   5.864   4.736   3.320 -0.3672  0.9048 -0.0058
  135SOPE  H12R14616   5.754   4.734   3.341 -0.5788  1.1377 -1.0300
  135SOPE  H12S14617   5.892   4.843   3.310  4.1306 -0.1708 -0.9231
  135SOPE  C21314618   5.956   4.670   3.419  0.4043  0.1693  0.5291
  135SOPE  H13R14619   6.064   4.673   3.394  0.6771 -2.0137  1.2152
  135SOPE  H13S14620   5.926   4.563   3.428 -1.1581  0.5357  0.1198
  135SOPE  C21414621   5.941   4.737   3.560  0.0369  0.0114 -0.6638
  135SOPE  H14R14622   5.835   4.720   3.587  0.4233 -1.0674  0.2736
  135SOPE  H14S14623   5.964   4.844   3.546  0.6203  0.0700  0.5948
  135SOPE  C21514624   6.037   4.680   3.668 -0.7751  0.8356 -0.3631
  135SOPE  H15R14625   6.144   4.686   3.637 -0.9269  4.2973 -0.5395
  135SOPE  H15S14626   6.014   4.571   3.675 -1.0513  0.7851 -1.6844
  135SOPE  C21614627   6.042   4.748   3.801 -1.2008  0.4937 -0.8991
  135SOPE  H16R14628   6.058   4.856   3.779 -0.2980  0.6288  0.3704
  135SOPE  H16S14629   6.124   4.706   3.863 -0.2702  1.6419 -1.3064
  135SOPE  C21714630   5.918   4.711   3.894  0.6186 -0.1249 -0.4571
  135SOPE  H17R14631   5.925   4.770   3.988  1.1494 -1.4797  0.3814
  135SOPE  H17S14632   5.932   4.602   3.915  1.2228  0.1051  0.3937
  135SOPE  C21814633   5.774   4.735   3.840  0.0797 -0.1844 -0.0231
  135SOPE  H18R14634   5.733   4.647   3.785  0.3271 -1.8871  2.3454
  135SOPE  H18S14635   5.777   4.822   3.771 -1.3388 -1.0968 -1.3142
  135SOPE  H18T14636   5.714   4.748   3.932  3.2227 -2.5739  2.6278
  135SOPE   C3314637   5.326   3.952   2.584 -0.3296  0.6016 -0.7063
  135SOPE   H3X14638   5.221   3.968   2.552 -0.1198  1.5862 -0.9307
  135SOPE   H3Y14639   5.370   4.052   2.564 -1.6036  1.2283 -0.5204
  135SOPE   C3414640   5.326   3.918   2.732 -0.0207  0.0183 -0.0123
  135SOPE   H4X14641   5.289   3.815   2.753 -0.4431  0.2448  0.3728
  135SOPE   H4Y14642   5.255   3.985   2.784  1.4107 -0.0699  2.1723
  135SOPE   C3514643   5.451   3.948   2.808  0.3913  0.8569  0.5584
  135SOPE   H5X14644   5.466   4.055   2.784  0.9987  0.9753  1.4265
  135SOPE   H5Y14645   5.535   3.890   2.763 -1.0349 -1.0799  0.2464
  135SOPE   C3614646   5.434   3.933   2.960  0.6697  0.0811 -0.2491
  135SOPE   H6X14647   5.419   3.824   2.973 -0.1363 -0.1737 -2.7149
  135SOPE   H6Y14648   5.336   3.979   2.987  0.4898 -0.6287  0.3168
  135SOPE   C3714649   5.552   3.997   3.039 -0.5120 -0.1755  0.1645
  135SOPE   H7X14650   5.574   4.101   3.006  1.7201 -0.2550  1.2288
  135SOPE   H7Y14651   5.645   3.938   3.024 -0.1487 -0.2146  2.2874
  135SOPE   C3814652   5.541   4.003   3.192  0.5096  0.5046 -0.0142
  135SOPE   H8X14653   5.463   4.080   3.210 -0.0280 -0.0204 -0.0261
  135SOPE   H8Y14654   5.639   4.033   3.233  1.0025  2.1336 -2.2443
  135SOPE   C3914655   5.494   3.877   3.266 -0.1608 -0.2660  0.1404
  135SOPE   H9X14656   5.558   3.787   3.258  1.0680  0.6271 -0.4348
  135SOPE   H9Y14657   5.395   3.846   3.226 -0.0676  0.0910 -0.3885
  135SOPE  C31014658   5.462   3.891   3.422 -0.1842  0.2259  1.0580
  135SOPE  H10X14659   5.399   3.801   3.439  1.0377 -0.8470  0.1258
  135SOPE  H10Y14660   5.396   3.979   3.433 -0.7303  0.5294 -3.0471
  135SOPE  C31114661   5.590   3.880   3.506 -0.3809  0.4953  0.0926
  135SOPE  H11X14662   5.668   3.949   3.467  1.3195 -1.8585 -0.9477
  135SOPE  H11Y14663   5.643   3.783   3.497  0.0632  0.7090  0.3715
  135SOPE  C31214664   5.580   3.914   3.654  0.3628  0.5391  0.2818
  135SOPE  H12X14665   5.553   4.021   3.644 -1.3710 -0.0163 -1.5213
  135SOPE  H12Y14666   5.683   3.901   3.695  0.7765  0.9088 -0.6231
  135SOPE  C31314667   5.474   3.834   3.722 -0.1784  0.2493 -0.3571
  135SOPE  H13X14668   5.390   3.808   3.655 -1.2191  0.6913  0.7384
  135SOPE  H13Y14669   5.439   3.886   3.814 -1.7533 -1.8489  0.3087
  135SOPE  C31414670   5.528   3.700   3.790 -0.5905 -0.2110  0.4493
  135SOPE  H14X14671   5.572   3.632   3.715 -0.3803  0.4886 -0.0697
  135SOPE  H14Y14672   5.440   3.646   3.833 -0.8810 -2.3901 -2.5676
  135SOPE  C31514673   5.617   3.739   3.908  0.3013 -0.2371 -0.5132
  135SOPE  H15X14674   5.564   3.811   3.974 -2.2537 -1.4131 -1.1456
  135SOPE  H15Y14675   5.710   3.788   3.873  0.5162  0.3987  0.8773
  135SOPE  C31614676   5.661   3.622   3.998 -0.0773  0.2088  0.8023
  135SOPE  H16X14677   5.739   3.569   3.939  1.5475  1.0454  2.1097
  135SOPE  H16Y14678   5.567   3.565   4.013 -1.4197  1.8354 -0.8374
  135SOPE  C31714679   5.724   3.678   4.130  0.0238  0.7001 -0.3777
  135SOPE  H17X14680   5.653   3.744   4.184  0.5510 -0.4381  1.8310
  135SOPE  H17Y14681   5.819   3.734   4.114  0.2774  0.7954  1.2753
  135SOPE  C31814682   5.747   3.565   4.233 -0.2634 -0.2365  0.1626
  135SOPE  H18X14683   5.832   3.502   4.198 -1.5225 -0.8300 -2.0825
  135SOPE  H18Y14684   5.652   3.512   4.252 -0.5734  0.1902 -0.1754
  135SOPE  H18Z14685   5.772   3.610   4.331 -2.3122 -2.8150  1.9971
  136SOPE     N14686   4.338   4.059   1.878  0.5285 -0.1859  0.1827
  136SOPE   HN114687   4.292   4.062   1.785  0.2757  1.4031  0.3326
  136SOPE   HN214688   4.439   4.079   1.866  0.6012 -1.0226 -0.6894
  136SOPE   HN314689   4.322   3.960   1.906  0.5554 -0.0816  0.5720
  136SOPE   C1214690   4.283   4.158   1.975  0.5412  0.4320  0.9792
  136SOPE  H12A14691   4.199   4.111   2.031 -0.8543  0.2066 -1.1773
  136SOPE  H12B14692   4.249   4.249   1.922 -0.5079 -0.0170  0.8399
  136SOPE   C1114693   4.395   4.194   2.081 -0.1223  0.5803  0.1615
  136SOPE  H11A14694   4.447   4.101   2.115  0.0726  1.1845  1.5984
  136SOPE  H11B14695   4.344   4.242   2.167  1.9087  1.3482  0.9983
  136SOPE     P14696   4.628   4.237   1.980  0.4094  0.0999  0.1645
  136SOPE   O1314697   4.720   4.346   1.958  0.4599 -0.3183  0.0385
  136SOPE   O1414698   4.597   4.138   1.870 -0.0738  0.0801  0.1562
  136SOPE   O1214699   4.486   4.293   2.028 -0.6572  0.4374 -0.1034
  136SOPE   O1114700   4.681   4.150   2.098  0.5069 -0.4863 -0.2972
  136SOPE    C114701   4.681   4.213   2.225 -0.3675 -0.8634  0.0850
  136SOPE    HA14702   4.583   4.256   2.256 -0.2169 -0.3893 -0.0924
  136SOPE    HB14703   4.748   4.301   2.219 -0.1058 -1.1202 -0.7872
  136SOPE    C214704   4.731   4.115   2.333  0.1683 -0.5991 -0.7393
  136SOPE    HS14705   4.651   4.038   2.341 -3.8678  3.2420 -0.5940
  136SOPE   O2114706   4.739   4.189   2.459  0.4356  0.0069  0.5024
  136SOPE   C2114707   4.637   4.226   2.519 -0.4275  0.0458 -0.2518
  136SOPE   O2214708   4.523   4.199   2.493  0.2040 -0.3337 -0.1747
  136SOPE   C2214709   4.682   4.321   2.635 -0.5239  0.3822 -0.1205
  136SOPE   H2R14710   4.588   4.338   2.693 -1.6100 -2.3451 -0.9615
  136SOPE   H2S14711   4.717   4.416   2.588 -0.4436 -0.7483 -2.4781
  136SOPE    C314712   4.863   4.050   2.295 -0.0813 -0.7950  0.2207
  136SOPE    HX14713   4.931   4.134   2.268  0.1120 -0.3009  2.0608
  136SOPE    HY14714   4.865   3.989   2.203 -1.1698 -1.5132  0.6527
  136SOPE   O3114715   4.922   3.976   2.408  0.5559  0.1629  0.7660
  136SOPE   C3114716   4.909   3.843   2.413 -0.7155  0.1373  0.4247
  136SOPE   O3214717   4.856   3.769   2.332 -0.1225  0.1013  0.0740
  136SOPE   C3214718   4.998   3.790   2.529 -0.7089  0.5210  0.3789
  136SOPE   H2X14719   5.035   3.887   2.568  0.6546  0.1724  0.0103
  136SOPE   H2Y14720   5.076   3.732   2.473 -1.1222  0.8878 -0.6018
  136SOPE   C2314721   4.795   4.266   2.728 -0.1201  0.0735  0.0096
  136SOPE   H3R14722   4.824   4.337   2.808 -0.6461 -1.1226  1.3072
  136SOPE   H3S14723   4.891   4.255   2.672  0.1825  0.5051  0.4410
  136SOPE   C2414724   4.762   4.134   2.807  0.1931  0.1534  0.1668
  136SOPE   H4R14725   4.762   4.047   2.738  0.6705 -0.4489  0.9180
  136SOPE   H4S14726   4.856   4.112   2.862  2.4572  3.3442 -2.0717
  136SOPE   C2514727   4.637   4.133   2.900 -0.4256 -0.2149 -0.4534
  136SOPE   H5R14728   4.549   4.149   2.834  0.4269 -0.8477 -1.7999
  136SOPE   H5S14729   4.625   4.031   2.943  2.5446  0.1496  1.5011
  136SOPE   C2614730   4.644   4.234   3.016  0.0931  1.2282 -0.1664
  136SOPE   H6R14731   4.656   4.342   2.994  3.1033  0.8431 -0.7878
  136SOPE   H6S14732   4.547   4.229   3.070  0.9805 -0.5556  1.3687
  136SOPE   C2714733   4.757   4.215   3.115  0.3375  0.4254 -0.8708
  136SOPE   H7R14734   4.846   4.186   3.055 -0.6932 -0.4331 -2.0193
  136SOPE   H7S14735   4.781   4.312   3.163  0.1472 -0.2645  0.7161
  136SOPE   C2814736   4.731   4.104   3.221  0.0344 -0.2504  0.2963
  136SOPE   H8R14737   4.698   4.012   3.169  1.4790 -0.2385 -0.7044
  136SOPE   H8S14738   4.831   4.085   3.266  0.5411  1.6777  0.0919
  136SOPE   C2914739   4.630   4.144   3.323 -0.2117 -0.9203 -0.7757
  136SOPE   H9114740   4.527   4.146   3.285 -1.7309 -2.7283  2.8314
  136SOPE  C21014741   4.656   4.147   3.456  0.2248  0.5206 -0.3493
  136SOPE  H10114742   4.579   4.182   3.527 -0.5640 -1.7285 -0.0008
  136SOPE  C21114743   4.782   4.120   3.529 -0.1588  0.3492  0.1060
  136SOPE  H11R14744   4.841   4.041   3.478  0.7342  0.6345  0.6638
  136SOPE  H11S14745   4.767   4.090   3.635 -1.9297  2.0190  0.3901
  136SOPE  C21214746   4.855   4.255   3.534  0.0753  0.3759  0.5009
  136SOPE  H12R14747   4.846   4.309   3.437 -0.2710 -1.0585 -0.3011
  136SOPE  H12S14748   4.965   4.239   3.543 -0.0931 -0.8308  0.5283
  136SOPE  C21314749   4.813   4.349   3.650  0.8058 -0.4291  0.1120
  136SOPE  H13R14750   4.712   4.389   3.627  0.3564 -0.6011  1.6680
  136SOPE  H13S14751   4.889   4.431   3.645  0.7428 -0.4308 -2.6650
  136SOPE  C21414752   4.795   4.293   3.789  0.6064  0.2254 -0.4765
  136SOPE  H14R14753   4.891   4.245   3.819  1.0089  1.0215 -0.4644
  136SOPE  H14S14754   4.703   4.231   3.789  0.4277  0.4267 -2.2105
  136SOPE  C21514755   4.773   4.404   3.896 -0.1971  0.1437  0.3542
  136SOPE  H15R14756   4.684   4.463   3.863  0.4986  0.8265 -0.3203
  136SOPE  H15S14757   4.861   4.471   3.910 -0.3192 -0.2777  4.1899
  136SOPE  C21614758   4.744   4.337   4.033 -1.1174  0.1436  0.2075
  136SOPE  H16R14759   4.834   4.287   4.074 -2.0418 -1.2972  0.5634
  136SOPE  H16S14760   4.667   4.257   4.036 -0.1973 -0.7460  0.7066
  136SOPE  C21714761   4.715   4.450   4.140 -0.1768  0.7015 -0.4379
  136SOPE  H17R14762   4.619   4.494   4.105 -0.2408  0.8435 -0.0861
  136SOPE  H17S14763   4.800   4.521   4.136 -0.8141  1.5662  0.7543
  136SOPE  C21814764   4.701   4.398   4.283 -0.2995  0.1130 -0.0701
  136SOPE  H18R14765   4.622   4.320   4.283 -0.1794 -0.0138  0.6002
  136SOPE  H18S14766   4.653   4.481   4.339 -2.1319 -0.4340 -0.7420
  136SOPE  H18T14767   4.797   4.358   4.321 -0.4749 -0.6388 -0.3992
  136SOPE   C3314768   4.918   3.708   2.626  0.0220  0.6517 -0.1934
  136SOPE   H3X14769   4.850   3.631   2.584  1.2639 -1.2405  1.1280
  136SOPE   H3Y14770   4.853   3.782   2.677 -2.5661 -2.6623  1.7179
  136SOPE   C3414771   4.996   3.646   2.750 -0.1710  0.0300  0.0941
  136SOPE   H4X14772   5.082   3.587   2.711 -0.3101  0.6973 -1.2443
  136SOPE   H4Y14773   4.926   3.571   2.793 -1.2928  0.4031 -1.0338
  136SOPE   C3514774   5.020   3.748   2.862  0.5203  0.3234 -0.8209
  136SOPE   H5X14775   5.050   3.843   2.814 -0.3103 -0.0502 -2.1213
  136SOPE   H5Y14776   5.106   3.712   2.922 -0.5259 -0.8747  0.0237
  136SOPE   C3614777   4.904   3.755   2.960  0.2054 -0.5954 -0.1358
  136SOPE   H6X14778   4.868   3.654   2.992  0.5977 -0.9129 -0.6712
  136SOPE   H6Y14779   4.835   3.815   2.897  1.0668  0.7770  0.1983
  136SOPE   C3714780   4.929   3.836   3.090  0.1536 -0.4488  0.1639
  136SOPE   H7X14781   4.841   3.808   3.152  0.5176 -0.7080  0.5716
  136SOPE   H7Y14782   4.933   3.946   3.073 -0.1826 -0.2201  1.4430
  136SOPE   C3814783   5.052   3.789   3.179  0.0675 -0.4166  0.0352
  136SOPE   H8X14784   5.149   3.832   3.145  0.4760 -1.0581  0.3861
  136SOPE   H8Y14785   5.057   3.678   3.176 -1.3893 -0.4736 -1.5589
  136SOPE   C3914786   5.027   3.816   3.333  0.0921  0.0760 -0.5526
  136SOPE   H9X14787   4.979   3.916   3.335  0.2514  0.1579 -0.7497
  136SOPE   H9Y14788   5.117   3.809   3.396 -1.6423  1.4122  2.2668
  136SOPE  C31014789   4.922   3.732   3.404  0.7566  0.3657 -0.0835
  136SOPE  H10X14790   4.949   3.629   3.373 -1.1023 -0.5071  1.0158
  136SOPE  H10Y14791   4.824   3.766   3.363  0.1293  0.2273  1.2358
  136SOPE  C31114792   4.924   3.744   3.552  0.4768 -0.2992 -0.6809
  136SOPE  H11X14793   4.932   3.853   3.575 -1.8904  0.5735 -3.4293
  136SOPE  H11Y14794   5.010   3.697   3.604 -0.6495 -0.6624  0.9498
  136SOPE  C31214795   4.802   3.669   3.613  0.3687  0.1291  0.4912
  136SOPE  H12X14796   4.804   3.565   3.576  0.8282  0.0682  0.6855
  136SOPE  H12Y14797   4.706   3.715   3.580  0.3195  1.0893  1.8564
  136SOPE  C31314798   4.800   3.660   3.771  0.2961 -0.2690 -0.0861
  136SOPE  H13X14799   4.860   3.567   3.783 -0.8364 -1.0771 -0.5501
  136SOPE  H13Y14800   4.695   3.637   3.800  0.2312 -1.6885 -1.3287
  136SOPE  C31414801   4.855   3.783   3.850  0.1363 -0.0520 -0.0577
  136SOPE  H14X14802   4.814   3.882   3.820 -0.7841 -0.7998 -1.3607
  136SOPE  H14Y14803   4.964   3.800   3.837  0.1440  0.8367  1.0000
  136SOPE  C31514804   4.826   3.790   3.998  0.2813 -0.1917  0.0773
  136SOPE  H15X14805   4.717   3.784   4.020  0.1007 -0.6646 -0.8625
  136SOPE  H15Y14806   4.871   3.883   4.037  1.8575 -0.1938 -1.5974
  136SOPE  C31614807   4.882   3.671   4.071  0.4575 -0.5184  0.5339
  136SOPE  H16X14808   4.992   3.672   4.091  0.5514  0.9096  0.0250
  136SOPE  H16Y14809   4.856   3.579   4.014  0.4357 -1.0575  1.3950
  136SOPE  C31714810   4.816   3.663   4.210  0.0164 -0.1721 -0.5822
  136SOPE  H17X14811   4.712   3.628   4.192  0.2102 -1.2467  0.2638
  136SOPE  H17Y14812   4.814   3.758   4.268  0.0291 -0.6508  0.2095
  136SOPE  C31814813   4.891   3.554   4.286  0.0944 -0.4292 -0.1385
  136SOPE  H18X14814   4.892   3.462   4.224 -0.2714 -1.8971  1.9391
  136SOPE  H18Y14815   4.855   3.528   4.388  1.7114 -1.1710  0.2878
  136SOPE  H18Z14816   4.988   3.608   4.295  0.0139 -0.4001  0.6921
  137POPC     N14817   4.728   0.858   6.748 -1.1837  0.0589 -0.1244
  137POPC   C1214818   4.676   0.903   6.611 -0.0115 -0.5305  0.1218
  137POPC  H12A14819   4.645   0.819   6.551  0.0735 -0.9125  0.6043
  137POPC  H12B14820   4.751   0.953   6.551 -2.9839  3.7553 -0.5042
  137POPC   C1314821   4.852   0.773   6.724  0.3061  0.6614 -0.0483
  137POPC  H13A14822   4.884   0.742   6.822  0.3927  0.0410 -0.2657
  137POPC  H13B14823   4.836   0.678   6.675 -0.9606  1.5857 -1.5385
  137POPC  H13C14824   4.932   0.825   6.674  1.7633 -1.7869 -0.4219
  137POPC   C1414825   4.767   0.977   6.834 -0.2951 -0.6351 -1.0112
  137POPC  H14A14826   4.683   1.033   6.870  1.3054  1.0898  0.2383
  137POPC  H14B14827   4.820   0.953   6.925 -1.8447  0.4275  0.2221
  137POPC  H14C14828   4.823   1.048   6.774 -0.0201 -0.1227 -0.1552
  137POPC   C1514829   4.634   0.772   6.815  0.1467 -0.1537  0.2198
  137POPC  H15A14830   4.604   0.683   6.763 -1.8982  0.2306  0.6763
  137POPC  H15B14831   4.545   0.832   6.828  0.0847 -0.1966 -0.0193
  137POPC  H15C14832   4.671   0.745   6.913  2.1408 -2.3015 -1.0147
  137POPC   C1114833   4.555   1.000   6.596  0.9199 -0.5149 -0.8600
  137POPC  H11A14834   4.556   1.036   6.491 -0.7343 -1.2029 -1.1471
  137POPC  H11B14835   4.568   1.072   6.680 -1.7519  0.2275 -0.9884
  137POPC     P14836   4.376   0.816   6.549  0.4611  0.1248 -1.0116
  137POPC   O1314837   4.231   0.795   6.578 -0.2160 -0.2703 -0.0164
  137POPC   O1414838   4.464   0.697   6.556 -0.6966 -0.0706  0.0004
  137POPC   O1214839   4.432   0.940   6.635 -0.4552 -0.0406 -0.0378
  137POPC   O1114840   4.378   0.867   6.402 -0.3100 -0.3127  0.0165
  137POPC    C114841   4.289   0.812   6.303 -0.0140  0.0875  0.3269
  137POPC    HA14842   4.298   0.879   6.215  1.9953 -0.0696  0.3523
  137POPC    HB14843   4.184   0.818   6.340 -0.0863 -1.3617  0.3788
  137POPC    C214844   4.329   0.667   6.248 -0.8108 -0.7936  0.9125
  137POPC    HS14845   4.348   0.603   6.338 -0.8361 -0.5644  1.0813
  137POPC   O2114846   4.447   0.682   6.161 -0.4448 -0.9543  0.0590
  137POPC   C2114847   4.504   0.569   6.137 -0.0620 -0.5830  0.7905
  137POPC   O2214848   4.480   0.463   6.189 -0.1452 -0.2470 -0.1980
  137POPC   C2214849   4.596   0.588   6.016  0.0478  0.6575  0.8611
  137POPC   H2R14850   4.697   0.564   6.054 -0.5031 -1.0024  1.3609
  137POPC   H2S14851   4.582   0.688   5.970  0.2639  1.2387  2.0268
  137POPC    C314852   4.210   0.600   6.174  0.4516 -0.0869  0.2622
  137POPC    HX14853   4.138   0.583   6.257 -2.0763 -0.1633 -1.8263
  137POPC    HY14854   4.239   0.499   6.139  0.7391  0.8583 -2.4844
  137POPC   O3114855   4.153   0.672   6.062 -0.1033  0.1521 -0.0239
  137POPC   C3114856   4.041   0.734   6.072  0.6153 -0.6862  0.6922
  137POPC   O3214857   3.961   0.740   6.163 -0.6397  0.0785  0.3005
  137POPC   C3214858   4.018   0.811   5.943 -0.5841  0.0113  0.0553
  137POPC   H2X14859   4.083   0.902   5.942 -3.1832  1.9844 -1.0661
  137POPC   H2Y14860   3.920   0.864   5.949 -0.9485 -0.6393 -0.0819
  137POPC   C2314861   4.556   0.489   5.903  0.1353 -0.7837  0.5984
  137POPC   H3R14862   4.535   0.393   5.953  1.0154 -0.6807  1.1922
  137POPC   H3S14863   4.639   0.463   5.835  0.6604  1.8773  0.0897
  137POPC   C2414864   4.426   0.530   5.829 -0.7719  0.3440  0.5637
  137POPC   H4R14865   4.356   0.572   5.905 -0.3003 -2.5747  2.7818
  137POPC   H4S14866   4.369   0.443   5.790 -0.0150  0.1316 -0.0801
  137POPC   C2514867   4.447   0.623   5.707  0.5874 -0.7008  0.0077
  137POPC   H5R14868   4.497   0.717   5.737 -0.4549  0.3393 -1.3934
  137POPC   H5S14869   4.351   0.664   5.669  2.1985  2.8844 -0.5743
  137POPC   C2614870   4.514   0.569   5.578  0.1739  0.2442  0.2068
  137POPC   H6R14871   4.585   0.492   5.615  0.5608  0.6460  0.3071
  137POPC   H6S14872   4.563   0.651   5.521 -0.8681  0.4316 -0.4608
  137POPC   C2714873   4.412   0.490   5.488  0.1882  0.2953  0.1523
  137POPC   H7R14874   4.330   0.557   5.454 -1.0017 -0.0966  2.1537
  137POPC   H7S14875   4.362   0.416   5.553 -0.5133  1.4680  0.9967
  137POPC   C2814876   4.486   0.418   5.377 -0.1850 -0.6810  0.1585
  137POPC   H8R14877   4.405   0.360   5.329  2.3736 -2.5795 -2.1689
  137POPC   H8S14878   4.560   0.345   5.417  0.5377 -0.2157 -0.3025
  137POPC   C2914879   4.542   0.515   5.269 -0.7352 -0.0169  0.2275
  137POPC   H9114880   4.466   0.556   5.201 -2.6188 -1.4160  1.3937
  137POPC  C21014881   4.673   0.528   5.237  0.4960 -0.0071  0.5820
  137POPC  H10114882   4.700   0.595   5.154  1.6147  0.9799  1.7017
  137POPC  C21114883   4.788   0.475   5.314  0.0252 -0.0576 -0.3386
  137POPC  H11R14884   4.763   0.422   5.408  1.8007  0.2401  0.3378
  137POPC  H11S14885   4.841   0.559   5.364  0.2587 -0.8841  0.8434
  137POPC  C21214886   4.879   0.386   5.231  0.2564  0.2630  0.0467
  137POPC  H12R14887   4.968   0.363   5.294 -0.7064  0.0580  1.3872
  137POPC  H12S14888   4.908   0.429   5.133  4.3559 -0.0501  0.9558
  137POPC  C21314889   4.803   0.251   5.192 -0.7029 -0.0280 -0.4806
  137POPC  H13R14890   4.706   0.280   5.147 -0.9733  0.5113  0.4336
  137POPC  H13S14891   4.782   0.188   5.281  0.5377  2.8449  2.0197
  137POPC  C21414892   4.880   0.166   5.094 -0.6632  0.8167  0.9804
  137POPC  H14R14893   4.847   0.060   5.085  0.0317  0.5883  1.0419
  137POPC  H14S14894   4.981   0.146   5.136 -0.6577  0.7936  0.9563
  137POPC  C21514895   4.881   0.213   4.951 -0.1964 -0.0582 -0.1566
  137POPC  H15R14896   4.949   0.301   4.946  0.6828 -0.5631  1.9848
  137POPC  H15S14897   4.780   0.245   4.915  0.1816  0.4804 -0.7629
  137POPC  C21614898   4.932   0.104   4.853  0.5950 -0.2516  1.0174
  137POPC  H16R14899   4.867   0.014   4.865 -0.7808  0.8096  1.8140
  137POPC  H16S14900   5.035   0.075   4.883  0.7774  1.2325  1.9210
  137POPC  C21714901   4.926   0.141   4.704  0.7189 -0.9654 -0.0473
  137POPC  H17R14902   4.818   0.155   4.681  0.4848 -0.7345  1.1263
  137POPC  H17S14903   4.955   0.061   4.632 -0.0845  2.3004 -4.4358
  137POPC  C21814904   4.995   0.278   4.673 -0.2054 -0.1502  0.3996
  137POPC  H18R14905   5.106   0.280   4.668 -0.2464 -0.2110 -0.9190
  137POPC  H18S14906   4.972   0.370   4.731  1.1421  0.2599  0.3288
  137POPC  H18T14907   4.976   0.313   4.569  2.8958 -1.1026 -0.5975
  137POPC   C3314908   4.032   0.736   5.811 -0.3931 -0.2197 -0.1242
  137POPC   H3X14909   4.017   0.627   5.826  0.7421 -0.1664  1.7672
  137POPC   H3Y14910   4.124   0.755   5.752 -0.7180  0.3724 -0.4507
  137POPC   C3414911   3.912   0.774   5.718 -0.2886  0.6899  0.3726
  137POPC   H4X14912   3.931   0.877   5.681  0.0058  1.0715  1.5416
  137POPC   H4Y14913   3.815   0.770   5.772 -0.1839 -1.4710  0.4523
  137POPC   C3514914   3.884   0.659   5.608  0.2470 -0.8099  0.0856
  137POPC   H5X14915   3.789   0.691   5.559  0.2192 -1.2691 -0.1643
  137POPC   H5Y14916   3.856   0.570   5.667  0.9013 -0.0123  1.6612
  137POPC   C3614917   3.993   0.619   5.504 -0.3449 -0.4885 -0.0994
  137POPC   H6X14918   4.076   0.557   5.544 -0.4289 -0.9210 -0.5964
  137POPC   H6Y14919   4.038   0.715   5.472 -0.6128 -1.2653 -3.0984
  137POPC   C3714920   3.927   0.577   5.371 -0.0152 -0.5498 -0.6767
  137POPC   H7X14921   3.860   0.660   5.337 -1.5621 -1.4527  0.0751
  137POPC   H7Y14922   3.857   0.495   5.395 -0.9957  0.5175  0.2028
  137POPC   C3814923   4.039   0.542   5.274  0.6591  0.1043  0.0297
  137POPC   H8X14924   4.132   0.502   5.320  2.2291  0.3376 -2.7442
  137POPC   H8Y14925   4.069   0.633   5.218  1.1282 -0.0864 -0.0348
  137POPC   C3914926   3.998   0.438   5.160 -0.4165  0.4570 -0.5077
  137POPC   H9X14927   3.916   0.468   5.091 -0.4419 -2.3229 -1.8546
  137POPC   H9Y14928   3.961   0.347   5.211  1.6693  0.2025  0.6741
  137POPC  C31014929   4.120   0.401   5.076 -0.6714  0.4247  0.1153
  137POPC  H10X14930   4.089   0.326   4.999 -0.4598 -1.3086  1.6494
  137POPC  H10Y14931   4.194   0.354   5.144  0.7809  2.0314 -0.2801
  137POPC  C31114932   4.186   0.520   5.002  0.5069 -0.0678  0.2709
  137POPC  H11X14933   4.228   0.581   5.085 -1.3888  0.1700  1.1035
  137POPC  H11Y14934   4.116   0.575   4.935 -0.9761 -3.2462 -0.9775
  137POPC  C31214935   4.301   0.469   4.909  0.1534  0.0489 -0.5057
  137POPC  H12X14936   4.259   0.399   4.834 -0.0184 -2.3835  1.7321
  137POPC  H12Y14937   4.379   0.421   4.971 -0.6606  0.8700  1.2191
  137POPC  C31314938   4.351   0.584   4.822 -0.4259  0.2620  0.1692
  137POPC  H13X14939   4.261   0.612   4.763  0.1231  2.4945  0.3002
  137POPC  H13Y14940   4.434   0.546   4.758 -1.2800 -2.0728  0.3446
  137POPC  C31414941   4.407   0.704   4.902 -0.1032  0.5421 -0.5294
  137POPC  H14X14942   4.478   0.665   4.978  0.0183 -0.8757 -1.3402
  137POPC  H14Y14943   4.323   0.757   4.952 -0.0681 -1.0291  1.3044
  137POPC  C31514944   4.466   0.814   4.803 -0.1830 -0.8885 -1.0462
  137POPC  H15X14945   4.431   0.908   4.850 -0.4883 -1.5429  0.0851
  137POPC  H15Y14946   4.402   0.798   4.714 -1.8222  2.8608 -0.7504
  137POPC  C31614947   4.611   0.809   4.774  0.4193  0.9076 -1.2099
  137POPC  H16X14948   4.658   0.805   4.874 -0.0291  1.9222 -0.9525
  137POPC  H16Y14949   4.656   0.897   4.723 -0.7838  2.8931  0.9809
  137POPC  H16Z14950   4.647   0.718   4.721 -1.9467  0.4468 -2.1345
  138POPC     N14951   1.248   5.804   6.656  0.0373  0.6232 -0.0709
  138POPC   C1214952   1.167   5.680   6.601 -0.4219  0.3649 -0.0667
  138POPC  H12A14953   1.145   5.614   6.684 -0.9517  1.1041  0.3943
  138POPC  H12B14954   1.224   5.620   6.533 -0.4940  0.6715 -0.3967
  138POPC   C1314955   1.276   5.910   6.550 -0.7915 -0.3129  0.0955
  138POPC  H13A14956   1.326   5.990   6.601 -1.7593  0.1345  0.3539
  138POPC  H13B14957   1.341   5.874   6.471 -0.4810 -1.2796  0.7788
  138POPC  H13C14958   1.186   5.949   6.506 -2.4611  1.0823  4.2932
  138POPC   C1414959   1.178   5.870   6.768 -0.4737 -0.0305  0.5926
  138POPC  H14A14960   1.234   5.961   6.787  1.5674 -1.0306 -0.3915
  138POPC  H14B14961   1.078   5.897   6.737 -0.2065  0.0026 -0.2588
  138POPC  H14C14962   1.180   5.806   6.855 -0.9674 -0.2903  0.4161
  138POPC   C1514963   1.380   5.748   6.704 -0.4434 -0.9521 -0.2045
  138POPC  H15A14964   1.447   5.822   6.746  1.0394 -0.2713 -3.5114
  138POPC  H15B14965   1.443   5.714   6.624  0.6696 -2.2477  1.1610
  138POPC  H15C14966   1.358   5.659   6.761  1.3326 -1.8048 -0.7845
  138POPC   C1114967   1.031   5.700   6.534 -0.0895 -0.3018  0.0977
  138POPC  H11A14968   1.007   5.613   6.469  0.2311  0.2594 -0.7760
  138POPC  H11B14969   1.032   5.787   6.465  0.0064 -0.7048 -0.4125
  138POPC     P14970   0.854   5.612   6.701 -0.2647 -0.2161 -0.0635
  138POPC   O1314971   0.737   5.666   6.778 -0.1412  0.1409  0.2863
  138POPC   O1414972   0.948   5.536   6.784  0.1482  0.6687  0.4942
  138POPC   O1214973   0.938   5.726   6.645 -0.6205  0.1874  0.5332
  138POPC   O1114974   0.805   5.532   6.574 -0.3597 -0.6218 -0.3947
  138POPC    C114975   0.704   5.566   6.481 -0.6948 -0.6423  0.4518
  138POPC    HA14976   0.749   5.643   6.416  0.9208 -2.0418 -0.1435
  138POPC    HB14977   0.615   5.617   6.524 -0.7233 -0.5279  0.2545
  138POPC    C214978   0.661   5.440   6.411  0.5792 -0.3090  0.1490
  138POPC    HS14979   0.635   5.367   6.490  0.2043  2.1499  2.4458
  138POPC   O2114980   0.773   5.388   6.330  0.2705 -0.4085 -0.4325
  138POPC   C2114981   0.754   5.259   6.287  0.1243  0.9114 -0.5036
  138POPC   O2214982   0.677   5.182   6.338 -0.2602 -0.2757 -0.1913
  138POPC   C2214983   0.835   5.240   6.166 -0.5338 -0.4758 -0.5603
  138POPC   H2R14984   0.863   5.133   6.155  0.8941 -0.1721 -0.1950
  138POPC   H2S14985   0.928   5.302   6.166 -0.7241 -0.1827 -0.0175
  138POPC    C314986   0.538   5.472   6.316  0.1954  0.6093 -0.1810
  138POPC    HX14987   0.576   5.536   6.233  3.3470  0.9432  1.3305
  138POPC    HY14988   0.468   5.524   6.385  1.9403 -0.6086  2.7368
  138POPC   O3114989   0.484   5.355   6.264 -0.1580  0.1204 -0.1557
  138POPC   C3114990   0.375   5.306   6.323  0.1147  0.0383 -0.0104
  138POPC   O3214991   0.323   5.343   6.427 -0.2238  0.0949 -0.6792
  138POPC   C3214992   0.328   5.177   6.247 -0.4075 -0.3948  0.2019
  138POPC   H2X14993   0.221   5.185   6.218 -0.1463  2.0289 -0.3895
  138POPC   H2Y14994   0.340   5.092   6.318 -2.2054 -0.5559  0.3687
  138POPC   C2314995   0.773   5.280   6.035  0.7567  0.2718  0.4351
  138POPC   H3R14996   0.666   5.251   6.027  0.8062  0.3542 -0.6536
  138POPC   H3S14997   0.819   5.226   5.950  1.2603 -0.0901  0.9355
  138POPC   C2414998   0.788   5.432   6.002 -0.7358  0.6316 -0.0173
  138POPC   H4R14999   0.886   5.449   5.953  0.1315  1.7245  1.9738
  138POPC   H4S15000   0.817   5.474   6.101  1.4864  1.1772 -0.8337
  138POPC   C2515001   0.679   5.489   5.916 -0.2897 -0.8878 -0.0087
  138POPC   H5R15002   0.691   5.597   5.898 -0.1230 -1.3174 -2.9919
  138POPC   H5S15003   0.581   5.476   5.967  0.5300  0.5157  2.0284
  138POPC   C2615004   0.678   5.428   5.778  0.3141  0.2188 -0.8083
  138POPC   H6R15005   0.582   5.436   5.723  0.6202 -1.0326 -1.5561
  138POPC   H6S15006   0.699   5.320   5.791 -1.2174 -0.1446 -1.2377
  138POPC   C2715007   0.780   5.496   5.682 -0.1747  0.3146  0.0309
  138POPC   H7R15008   0.879   5.449   5.698 -0.4420 -0.3851 -0.3306
  138POPC   H7S15009   0.785   5.606   5.701  3.4289  0.0209  1.5749
  138POPC   C2815010   0.748   5.458   5.538 -0.2394  0.1856  0.1788
  138POPC   H8R15011   0.710   5.353   5.537 -0.5730  0.3034 -1.1347
  138POPC   H8S15012   0.832   5.464   5.466 -1.0974  0.0446 -0.8533
  138POPC   C2915013   0.647   5.560   5.480  0.5026 -0.2518  0.1029
  138POPC   H9115014   0.641   5.653   5.539  0.9970 -1.7349  2.6100
  138POPC  C21015015   0.579   5.547   5.366  0.3530 -1.0505 -0.3587
  138POPC  H10115016   0.509   5.623   5.328 -2.6344 -2.6440  1.5357
  138POPC  C21115017   0.585   5.436   5.268  0.0535 -0.0955  0.5203
  138POPC  H11R15018   0.488   5.417   5.218 -0.6133 -0.8860  2.0466
  138POPC  H11S15019   0.608   5.340   5.317 -0.0452 -0.5767 -0.3592
  138POPC  C21215020   0.701   5.453   5.165  0.2626  0.0484 -0.3979
  138POPC  H12R15021   0.795   5.464   5.225 -0.5321 -0.1809  0.9357
  138POPC  H12S15022   0.690   5.548   5.109 -1.0465  0.3474  0.3338
  138POPC  C21315023   0.710   5.334   5.071  0.3044  0.5080 -0.1077
  138POPC  H13R15024   0.615   5.277   5.070  0.7884 -0.4436 -3.2429
  138POPC  H13S15025   0.784   5.261   5.109 -0.2332 -0.5497 -1.0175
  138POPC  C21415026   0.719   5.378   4.922 -0.1585 -0.3826  0.1069
  138POPC  H14R15027   0.721   5.285   4.862  0.9050  1.3350 -2.7110
  138POPC  H14S15028   0.810   5.437   4.897 -1.1484  0.5154 -1.5779
  138POPC  C21515029   0.609   5.472   4.870  0.5175  0.5038 -0.2881
  138POPC  H15R15030   0.638   5.481   4.763  3.7228 -1.0789  0.3197
  138POPC  H15S15031   0.608   5.570   4.921  2.1696 -0.3783  1.5688
  138POPC  C21615032   0.464   5.410   4.878 -0.2113 -0.1894 -0.2430
  138POPC  H16R15033   0.431   5.403   4.984  1.8654  1.2419  0.5467
  138POPC  H16S15034   0.462   5.311   4.827 -1.2555 -0.0384 -0.5364
  138POPC  C21715035   0.372   5.508   4.806  0.0603  0.3829  0.2499
  138POPC  H17R15036   0.265   5.481   4.800 -0.3320  1.9524 -0.6558
  138POPC  H17S15037   0.417   5.526   4.706 -1.8836 -0.7201 -0.8830
  138POPC  C21815038   0.374   5.649   4.872 -0.0589  0.1040 -0.4355
  138POPC  H18R15039   0.438   5.723   4.820  0.4918  0.3363  0.5541
  138POPC  H18S15040   0.400   5.634   4.979  1.4998  0.4702 -0.7503
  138POPC  H18T15041   0.273   5.694   4.857  0.3770  1.1091 -0.3512
  138POPC   C3315042   0.399   5.145   6.118  0.3507 -0.2826 -0.0246
  138POPC   H3X15043   0.509   5.131   6.125  0.3096 -1.7988 -1.7300
  138POPC   H3Y15044   0.384   5.230   6.047 -0.5904 -0.9254 -0.6269
  138POPC   C3415045   0.363   5.013   6.057 -0.2871  0.1266  0.3502
  138POPC   H4X15046   0.269   5.022   6.000  0.5932  0.5437 -1.0883
  138POPC   H4Y15047   0.349   4.950   6.148  1.1097 -0.3636  0.2587
  138POPC   C3515048   0.471   4.942   5.966  0.5043 -0.9728 -0.6847
  138POPC   H5X15049   0.432   4.843   5.936 -2.1093  0.3849 -2.1306
  138POPC   H5Y15050   0.554   4.916   6.035 -0.7382 -1.0120  0.8765
  138POPC   C3615051   0.511   5.030   5.851 -0.2729  0.3587  0.4636
  138POPC   H6X15052   0.597   4.979   5.803 -1.4464  0.4478 -1.8877
  138POPC   H6Y15053   0.528   5.134   5.884  0.3910  0.0533  1.1129
  138POPC   C3715054   0.419   5.021   5.731  0.5998  0.1519  1.0441
  138POPC   H7X15055   0.322   5.071   5.753  0.1680 -0.9082  1.5989
  138POPC   H7Y15056   0.408   4.918   5.693  2.3012  0.2137  0.3120
  138POPC   C3815057   0.478   5.114   5.621  0.3769  0.1057  0.2756
  138POPC   H8X15058   0.571   5.078   5.573 -0.2413  4.4088 -5.0675
  138POPC   H8Y15059   0.514   5.206   5.671  0.8461 -1.1701  2.4320
  138POPC   C3915060   0.390   5.148   5.507  1.0155  0.1415  0.2015
  138POPC   H9X15061   0.438   5.222   5.439  0.6277  1.1003  0.9493
  138POPC   H9Y15062   0.295   5.190   5.546  0.5261 -1.4553  0.7889
  138POPC  C31015063   0.353   5.021   5.417 -0.3658 -0.0987  0.0834
  138POPC  H10X15064   0.290   4.946   5.468  0.5092 -1.3335 -0.5967
  138POPC  H10Y15065   0.445   4.970   5.380 -0.0955  1.0152 -0.8388
  138POPC  C31115066   0.289   5.069   5.290 -0.5488  0.0837 -0.3502
  138POPC  H11X15067   0.372   5.092   5.220 -0.8296  1.1275 -0.3522
  138POPC  H11Y15068   0.223   5.154   5.316 -1.0393 -0.5506  0.5733
  138POPC  C31215069   0.204   4.956   5.231  0.7782 -0.8198 -0.1188
  138POPC  H12X15070   0.132   4.917   5.307 -0.1467 -1.5477 -1.3363
  138POPC  H12Y15071   0.256   4.866   5.191 -1.1872 -0.3953 -4.0705
  138POPC  C31315072   0.123   5.001   5.115 -0.0148 -0.7076  0.3674
  138POPC  H13X15073   0.069   5.094   5.144 -0.2014 -1.3824  2.3451
  138POPC  H13Y15074   0.048   4.923   5.094 -0.3939 -0.0997 -0.6239
  138POPC  C31415075   0.197   5.024   4.987  0.3111 -0.5143  0.0474
  138POPC  H14X15076   0.255   4.933   4.958 -2.5357 -2.5498  0.2884
  138POPC  H14Y15077   0.256   5.115   5.007 -0.5100  0.5547 -2.1109
  138POPC  C31515078   0.115   5.050   4.866  0.4223 -0.4078  0.9595
  138POPC  H15X15079   0.020   4.992   4.867 -0.1836  0.4159 -1.9902
  138POPC  H15Y15080   0.167   5.018   4.774 -0.5235  0.5672  0.0693
  138POPC  C31615081   0.091   5.201   4.835 -0.1267 -0.1887  0.7975
  138POPC  H16X15082   0.053   5.254   4.924  1.1463  3.4134 -0.6280
  138POPC  H16Y15083   0.012   5.209   4.757  0.5128  0.6389  0.2154
  138POPC  H16Z15084   0.182   5.254   4.799  0.2038 -0.4178  1.2857
  139POPC     N15085   2.570   0.592   2.228 -0.1208 -0.2614  0.3731
  139POPC   C1215086   2.709   0.561   2.270  1.0098  0.6103  0.0134
  139POPC  H12A15087   2.764   0.555   2.178  1.2062  0.6689  0.1260
  139POPC  H12B15088   2.718   0.460   2.308  2.3122  1.1589  1.2626
  139POPC   C1315089   2.560   0.735   2.164  0.0602  0.6340 -0.2996
  139POPC  H13A15090   2.618   0.745   2.074  2.1451 -0.3438  0.8541
  139POPC  H13B15091   2.455   0.758   2.148  0.3210  0.9036 -1.7177
  139POPC  H13C15092   2.606   0.796   2.240 -0.2022  1.4714 -0.7989
  139POPC   C1415093   2.519   0.496   2.126 -0.3945 -0.5750 -0.2621
  139POPC  H14A15094   2.578   0.513   2.037  1.7800  0.0416  1.2301
  139POPC  H14B15095   2.534   0.393   2.153  0.3966 -0.5668 -0.6323
  139POPC  H14C15096   2.416   0.514   2.097  0.5804  2.7874 -2.2835
  139POPC   C1515097   2.471   0.582   2.343  0.5337  0.2116  0.0222
  139POPC  H15A15098   2.370   0.588   2.305  0.6702 -1.6572 -0.7399
  139POPC  H15B15099   2.477   0.672   2.404  0.9765  0.1529  0.0724
  139POPC  H15C15100   2.475   0.489   2.398 -1.0963 -1.6096 -2.7205
  139POPC   C1115101   2.790   0.652   2.367 -0.3182  0.2084 -0.6088
  139POPC  H11A15102   2.887   0.609   2.399 -0.0880  1.1769  0.0367
  139POPC  H11B15103   2.732   0.657   2.462  0.9045 -1.2976  0.2672
  139POPC     P15104   2.940   0.819   2.241 -0.0545  0.3895  0.1736
  139POPC   O1315105   2.940   0.963   2.209 -0.2710  0.0300  0.2056
  139POPC   O1415106   2.952   0.722   2.127 -0.0078  0.4918  0.3892
  139POPC   O1215107   2.805   0.788   2.321 -0.0802 -0.0782 -0.3200
  139POPC   O1115108   3.057   0.790   2.355 -0.0647  0.3152  0.3191
  139POPC    C115109   3.059   0.845   2.483  0.5229 -0.5164  0.0809
  139POPC    HA15110   2.957   0.870   2.520  0.4835 -0.8050  0.1670
  139POPC    HB15111   3.094   0.951   2.476 -1.6438  0.2099 -0.8008
  139POPC    C215112   3.142   0.772   2.585 -1.1936 -0.1109  0.6991
  139POPC    HS15113   3.243   0.765   2.539 -1.2918  1.7110  0.1281
  139POPC   O2115114   3.079   0.641   2.600 -0.4474  0.3139  0.3371
  139POPC   C2115115   3.162   0.540   2.593  0.3151 -0.4861  1.2134
  139POPC   O2215116   3.281   0.540   2.581  0.0376  0.1804  0.3000
  139POPC   C2215117   3.079   0.409   2.592 -0.7528  0.2007 -0.1613
  139POPC   H2R15118   3.067   0.378   2.486  0.3805 -0.2731 -0.1665
  139POPC   H2S15119   2.983   0.426   2.647 -0.2005  1.9961  0.3103
  139POPC    C315120   3.148   0.848   2.717  0.2443 -0.2030  0.1408
  139POPC    HX15121   3.049   0.858   2.767 -0.0247  3.0540 -0.7906
  139POPC    HY15122   3.167   0.953   2.687  0.3585 -0.6816 -1.5780
  139POPC   O3115123   3.244   0.792   2.807  0.1099 -0.8480 -0.6598
  139POPC   C3115124   3.370   0.836   2.797  0.0228 -0.1605  0.4407
  139POPC   O3215125   3.415   0.894   2.698  0.1406 -0.0788 -0.1298
  139POPC   C3215126   3.458   0.807   2.917 -0.3262  0.2552 -0.0824
  139POPC   H2X15127   3.559   0.851   2.904 -0.9760  1.4453 -1.4356
  139POPC   H2Y15128   3.466   0.696   2.915  1.4146  0.3683 -0.6692
  139POPC   C2315129   3.148   0.296   2.674  0.1629 -0.0048  0.2567
  139POPC   H3R15130   3.254   0.280   2.644  0.2628 -0.3566  0.7940
  139POPC   H3S15131   3.093   0.200   2.664 -0.5430  0.2961  1.1850
  139POPC   C2415132   3.152   0.325   2.828 -0.0888 -0.4413  0.0155
  139POPC   H4R15133   3.148   0.233   2.890 -2.4448  0.7274  1.7202
  139POPC   H4S15134   3.057   0.374   2.857 -1.1730 -1.6510 -1.3216
  139POPC   C2515135   3.276   0.396   2.884 -0.0986 -0.3781 -0.6257
  139POPC   H5R15136   3.279   0.506   2.866  2.4770 -0.1773  0.6440
  139POPC   H5S15137   3.370   0.357   2.841  2.0940  0.6117  2.8612
  139POPC   C2615138   3.276   0.381   3.034  0.0522  0.2994 -0.5828
  139POPC   H6R15139   3.298   0.276   3.062  0.8237  0.9217  1.3183
  139POPC   H6S15140   3.180   0.411   3.080 -0.0027 -0.3941 -0.2240
  139POPC   C2715141   3.390   0.457   3.105 -0.4277  0.5424  0.3272
  139POPC   H7R15142   3.388   0.563   3.073  1.6318  0.8736  1.0876
  139POPC   H7S15143   3.495   0.431   3.077  0.0756  0.9908  1.7106
  139POPC   C2815144   3.394   0.444   3.259  0.6860  0.1448  0.5783
  139POPC   H8R15145   3.290   0.464   3.294 -0.5076  1.1879 -3.0784
  139POPC   H8S15146   3.451   0.531   3.298  1.6168 -0.6813  1.1171
  139POPC   C2915147   3.433   0.311   3.323 -0.7119  0.0855  1.3919
  139POPC   H9115148   3.356   0.232   3.316 -0.6839 -0.0381  2.4020
  139POPC  C21015149   3.551   0.283   3.376 -0.2585  0.3598  0.7268
  139POPC  H10115150   3.574   0.177   3.397 -0.4993  0.0856 -0.3385
  139POPC  C21115151   3.667   0.367   3.402  0.6281 -0.4326 -0.7522
  139POPC  H11R15152   3.639   0.474   3.390  1.8898  0.3708  2.5070
  139POPC  H11S15153   3.747   0.339   3.330  0.0284  1.0350 -2.0653
  139POPC  C21215154   3.722   0.357   3.548  0.7421  0.8747  1.1801
  139POPC  H12R15155   3.755   0.251   3.550  1.9770  1.2010 -0.3855
  139POPC  H12S15156   3.643   0.375   3.625  0.1770 -1.2344  1.1777
  139POPC  C21315157   3.845   0.447   3.572 -0.6041 -0.1268  0.4300
  139POPC  H13R15158   3.828   0.550   3.533 -0.7541  1.4594  4.1724
  139POPC  H13S15159   3.926   0.404   3.509 -0.8496 -0.0638  0.0721
  139POPC  C21415160   3.909   0.450   3.713  0.1783  0.1187  0.5528
  139POPC  H14R15161   3.837   0.501   3.781 -1.8109 -0.2109 -1.2017
  139POPC  H14S15162   4.004   0.508   3.710 -0.3288  0.9477 -0.1067
  139POPC  C21515163   3.946   0.315   3.768  0.5470  0.2497 -1.0093
  139POPC  H15R15164   4.006   0.259   3.693  2.3916  0.2060  0.4355
  139POPC  H15S15165   3.854   0.254   3.781  0.6226 -0.1739 -2.2782
  139POPC  C21615166   4.021   0.319   3.900  0.5214  0.0355 -0.3014
  139POPC  H16R15167   4.127   0.354   3.891 -0.3639  2.9065 -0.8034
  139POPC  H16S15168   4.020   0.217   3.943 -1.1775 -0.9423 -2.5113
  139POPC  C21715169   3.953   0.411   4.000 -0.0072  0.1490 -0.7564
  139POPC  H17R15170   3.845   0.392   4.019  0.5569 -1.0308  1.8023
  139POPC  H17S15171   3.957   0.517   3.967 -3.1325  0.8485  0.6791
  139POPC  C21815172   4.029   0.395   4.131  0.5807 -0.3194  0.2296
  139POPC  H18R15173   3.985   0.453   4.214  0.7199  0.2094 -0.0598
  139POPC  H18S15174   4.134   0.426   4.112  0.5336 -0.4640 -0.2905
  139POPC  H18T15175   4.025   0.290   4.167 -2.1774 -0.4257 -0.1924
  139POPC   C3315176   3.402   0.860   3.047  0.2818 -0.0175  0.3335
  139POPC   H3X15177   3.299   0.822   3.060  0.2597 -0.1228 -0.1239
  139POPC   H3Y15178   3.409   0.971   3.040  0.1123  0.0297  0.8773
  139POPC   C3415179   3.495   0.818   3.167  0.1585  0.0752  0.1219
  139POPC   H4X15180   3.595   0.863   3.148 -0.0911  0.8896  0.6932
  139POPC   H4Y15181   3.500   0.707   3.173  0.8566  0.1858  2.3544
  139POPC   C3515182   3.424   0.872   3.293 -0.2069 -0.2086  0.0453
  139POPC   H5X15183   3.325   0.822   3.299  0.0190 -0.7702 -0.7388
  139POPC   H5Y15184   3.400   0.977   3.267  0.7833  0.5023  1.7935
  139POPC   C3615185   3.496   0.855   3.431 -0.8823  0.1967 -0.4304
  139POPC   H6X15186   3.582   0.926   3.437 -1.6405  1.0874  0.2100
  139POPC   H6Y15187   3.531   0.750   3.431 -1.0667  0.1340  0.0349
  139POPC   C3715188   3.413   0.896   3.548  0.5572  0.6592 -0.0855
  139POPC   H7X15189   3.317   0.840   3.549 -0.8459  2.9472  0.2098
  139POPC   H7Y15190   3.383   1.003   3.551  0.5253  0.9398 -4.0068
  139POPC   C3815191   3.477   0.869   3.687  0.2607 -0.0777 -0.1410
  139POPC   H8X15192   3.575   0.922   3.683  0.3127 -0.0140  1.4635
  139POPC   H8Y15193   3.503   0.761   3.691  2.1906  0.3334 -0.3683
  139POPC   C3915194   3.385   0.913   3.802 -0.2866 -0.1923  0.6232
  139POPC   H9X15195   3.309   0.835   3.821  0.8894 -0.9900  2.3630
  139POPC   H9Y15196   3.333   1.009   3.780 -0.8707 -1.1057 -2.3499
  139POPC  C31015197   3.476   0.924   3.925 -0.2201  0.1080  0.1095
  139POPC  H10X15198   3.420   0.951   4.017  1.2423 -0.2936  1.1417
  139POPC  H10Y15199   3.545   1.005   3.895 -0.3817 -0.4942 -2.0557
  139POPC  C31115200   3.549   0.797   3.954  0.3218 -0.2000  0.5046
  139POPC  H11X15201   3.633   0.773   3.885  0.2653 -0.5916  0.5719
  139POPC  H11Y15202   3.489   0.704   3.957  0.0683 -0.0340  0.5578
  139POPC  C31215203   3.617   0.816   4.094 -0.0186  0.1918  0.4635
  139POPC  H12X15204   3.535   0.832   4.167  1.4201  0.4787  2.0695
  139POPC  H12Y15205   3.668   0.915   4.094  1.0606 -0.3348 -1.0545
  139POPC  C31315206   3.701   0.694   4.121 -0.3422  0.5860 -0.4562
  139POPC  H13X15207   3.763   0.666   4.033  0.0016 -0.0002 -0.0370
  139POPC  H13Y15208   3.631   0.613   4.148  0.0439  0.1345 -0.7917
  139POPC  C31415209   3.793   0.709   4.246 -0.2413  0.3247  0.0504
  139POPC  H14X15210   3.826   0.608   4.279 -2.4128 -1.6714 -3.2760
  139POPC  H14Y15211   3.721   0.751   4.320  0.1525  1.0979  0.0024
  139POPC  C31515212   3.915   0.811   4.229  0.0328 -0.7124 -0.1771
  139POPC  H15X15213   3.949   0.838   4.332  0.8439 -1.4090 -0.2495
  139POPC  H15Y15214   3.873   0.902   4.183  0.4801 -0.3744  0.0726
  139POPC  C31615215   4.037   0.755   4.157  0.5350 -0.2063  0.4116
  139POPC  H16X15216   4.119   0.823   4.191 -0.9393  1.7359  0.2902
  139POPC  H16Y15217   4.022   0.761   4.047  1.0015  4.0327  0.4127
  139POPC  H16Z15218   4.058   0.654   4.197 -1.4629 -0.0190  2.0814
  140POPC     N15219   1.067   2.467   1.885  0.1599  0.6095 -0.6888
  140POPC   C1215220   1.098   2.618   1.883  0.1481  0.3430 -0.0652
  140POPC  H12A15221   1.011   2.670   1.844 -0.6041 -0.7616  0.1060
  140POPC  H12B15222   1.175   2.642   1.812 -1.3948  2.2223 -1.2231
  140POPC   C1315223   0.921   2.439   1.931 -0.2711  0.2619  0.3187
  140POPC  H13A15224   0.914   2.471   2.034  0.4096 -0.3828  0.5766
  140POPC  H13B15225   0.852   2.497   1.871  1.2326  0.1134 -1.6294
  140POPC  H13C15226   0.899   2.334   1.915 -2.9175  0.7267  0.3563
  140POPC   C1415227   1.090   2.408   1.750 -0.2373 -0.0484  0.1823
  140POPC  H14A15228   1.195   2.414   1.726 -0.2734  2.1984  0.3236
  140POPC  H14B15229   1.046   2.310   1.747 -2.0853  0.7494 -0.3439
  140POPC  H14C15230   1.045   2.473   1.676  0.3897  0.9786  0.6720
  140POPC   C1515231   1.166   2.401   1.980  0.7555  0.7196 -0.2832
  140POPC  H15A15232   1.267   2.418   1.946  1.8686 -0.1853  2.2559
  140POPC  H15B15233   1.150   2.294   1.977  0.2519  0.8004 -3.1046
  140POPC  H15C15234   1.157   2.438   2.081 -2.2796 -2.1451  0.6987
  140POPC   C1115235   1.126   2.689   2.021 -0.2491 -0.3522 -0.1975
  140POPC  H11A15236   1.142   2.797   2.002 -0.6865  0.1136  1.8848
  140POPC  H11B15237   1.225   2.651   2.055  0.6645  1.7681 -0.3695
  140POPC     P15238   0.882   2.731   2.128  0.0859 -0.0451 -0.1812
  140POPC   O1315239   0.790   2.651   2.210 -0.1575 -0.4684 -0.0005
  140POPC   O1415240   0.840   2.763   1.994  0.2798  0.2760 -0.3343
  140POPC   O1215241   1.027   2.666   2.123 -0.4113  0.5633 -0.4335
  140POPC   O1115242   0.915   2.870   2.193  0.6184  0.0382  0.2485
  140POPC    C115243   1.032   2.902   2.272  0.0975 -0.4328  0.2706
  140POPC    HA15244   1.087   2.981   2.217  0.2957 -1.0531 -0.4471
  140POPC    HB15245   1.090   2.813   2.302  0.7664  0.1074  0.5965
  140POPC    C215246   0.973   2.970   2.394  0.9757  0.1972  0.5678
  140POPC    HS15247   0.890   3.038   2.365  0.1336 -1.3537 -0.8295
  140POPC   O2115248   1.076   3.043   2.448 -0.0075 -0.0169 -0.2187
  140POPC   C2115249   1.053   3.124   2.540 -0.6219 -0.8852  0.2949
  140POPC   O2215250   0.942   3.149   2.580  0.6449 -0.0073 -0.2575
  140POPC   C2215251   1.183   3.182   2.593 -0.3423  0.3765  0.2753
  140POPC   H2R15252   1.198   3.291   2.576 -0.0254  0.6510  2.0972
  140POPC   H2S15253   1.264   3.131   2.537 -0.1817 -0.4785  1.2713
  140POPC    C315254   0.919   2.864   2.497  0.0729  0.8217  0.3266
  140POPC    HX15255   0.851   2.797   2.440 -1.4974  2.1614  0.5482
  140POPC    HY15256   0.863   2.899   2.586  0.9567  2.5476  0.2514
  140POPC   O3115257   1.035   2.796   2.545 -0.4207  0.3768  0.2862
  140POPC   C3115258   1.018   2.674   2.596 -0.3419 -0.2189  0.1932
  140POPC   O3215259   0.909   2.625   2.608 -0.3994 -0.1512 -0.1193
  140POPC   C3215260   1.156   2.624   2.643 -0.0897 -0.6499  0.0549
  140POPC   H2X15261   1.223   2.708   2.671 -0.3765  0.3200 -1.9934
  140POPC   H2Y15262   1.203   2.584   2.551 -2.1315 -1.7847 -0.5639
  140POPC   C2315263   1.186   3.156   2.742 -0.3613  0.3547 -0.0373
  140POPC   H3R15264   1.095   3.192   2.794  0.3542 -0.5868  1.9829
  140POPC   H3S15265   1.267   3.219   2.784  0.7130 -0.8991 -0.1488
  140POPC   C2415266   1.211   3.013   2.787 -0.3753  0.0431 -0.6270
  140POPC   H4R15267   1.274   2.961   2.711 -1.3106 -3.0691  0.5773
  140POPC   H4S15268   1.116   2.956   2.798 -0.3050 -0.1444 -0.9833
  140POPC   C2515269   1.287   3.010   2.925  0.3296 -0.3541 -0.5277
  140POPC   H5R15270   1.230   3.075   2.994 -0.5717 -2.0619  0.4160
  140POPC   H5S15271   1.388   3.046   2.896  0.7972 -0.8599  0.4001
  140POPC   C2615272   1.293   2.867   2.986 -0.7766  0.0533 -0.4651
  140POPC   H6R15273   1.340   2.805   2.906 -1.6322  0.5901 -1.4107
  140POPC   H6S15274   1.191   2.832   3.012 -0.8979  0.1416 -0.8088
  140POPC   C2715275   1.386   2.858   3.109 -0.4411 -0.2112 -0.0353
  140POPC   H7R15276   1.349   2.915   3.197 -1.8223 -0.8472 -0.1778
  140POPC   H7S15277   1.485   2.903   3.085 -1.5867  1.7881 -1.3651
  140POPC   C2815278   1.402   2.712   3.164  0.2305 -0.7412  0.5730
  140POPC   H8R15279   1.485   2.710   3.238  1.4485 -0.1072 -0.7211
  140POPC   H8S15280   1.423   2.649   3.075 -0.9452  0.7213 -0.8191
  140POPC   C2915281   1.271   2.678   3.220  0.3539  0.7069  0.2549
  140POPC   H9115282   1.227   2.585   3.180 -1.1041  0.7694  1.5949
  140POPC  C21015283   1.223   2.727   3.336  0.9439 -0.3150  0.6342
  140POPC  H10115284   1.128   2.686   3.373  0.7845 -1.2436 -0.7325
  140POPC  C21115285   1.289   2.826   3.430 -0.5942  0.0112 -0.1079
  140POPC  H11R15286   1.225   2.915   3.450  1.0098  0.9853  0.9640
  140POPC  H11S15287   1.385   2.869   3.395  0.7617 -0.3322  2.8678
  140POPC  C21215288   1.323   2.742   3.559 -0.3613 -0.0664 -0.2257
  140POPC  H12R15289   1.393   2.661   3.535  0.0621  0.3322 -0.3484
  140POPC  H12S15290   1.232   2.701   3.609 -0.3691 -0.8557 -0.8821
  140POPC  C21315291   1.369   2.835   3.681 -0.6644 -0.1262  0.1835
  140POPC  H13R15292   1.308   2.927   3.690 -0.4025  0.0663 -0.0114
  140POPC  H13S15293   1.467   2.878   3.651 -0.7225  0.2719  0.5618
  140POPC  C21415294   1.389   2.766   3.810  0.4213 -0.7173  0.3445
  140POPC  H14R15295   1.469   2.689   3.803 -0.7162 -2.0906  1.5589
  140POPC  H14S15296   1.293   2.715   3.832 -0.9190  1.9928  1.2501
  140POPC  C21515297   1.419   2.860   3.924 -0.6711 -0.0656 -0.2210
  140POPC  H15R15298   1.349   2.946   3.913  0.1669  0.5418 -1.0389
  140POPC  H15S15299   1.526   2.889   3.914  0.4517 -3.6433  0.1748
  140POPC  C21615300   1.411   2.788   4.060 -0.0116  0.2840  0.6346
  140POPC  H16R15301   1.490   2.710   4.066  1.0463  1.2431 -0.2694
  140POPC  H16S15302   1.318   2.728   4.052  1.0341 -1.3364  0.2653
  140POPC  C21715303   1.415   2.885   4.179  0.3712 -0.2967 -0.2183
  140POPC  H17R15304   1.331   2.955   4.157 -0.4267 -0.9242  0.7703
  140POPC  H17S15305   1.505   2.950   4.181  0.1924  0.0392  3.9200
  140POPC  C21815306   1.395   2.820   4.318 -0.4247 -0.2477  0.0115
  140POPC  H18R15307   1.293   2.779   4.332 -0.2074 -0.4245  1.1921
  140POPC  H18S15308   1.412   2.883   4.408  0.4527 -2.7561  1.7050
  140POPC  H18T15309   1.471   2.740   4.325  0.4663  0.5396 -0.4151
  140POPC   C3315310   1.141   2.506   2.732  0.6657  0.8092  0.1077
  140POPC   H3X15311   1.109   2.414   2.680  1.9573 -0.5798  1.6739
  140POPC   H3Y15312   1.059   2.518   2.805  0.6593  1.6611 -0.0213
  140POPC   C3415313   1.265   2.489   2.816  0.3001  0.7991 -0.1022
  140POPC   H4X15314   1.277   2.582   2.875 -0.9091  0.8726  0.0550
  140POPC   H4Y15315   1.359   2.480   2.757 -0.2613  0.9821 -1.0585
  140POPC   C3515316   1.236   2.366   2.908  0.2897 -0.0586 -0.1845
  140POPC   H5X15317   1.227   2.281   2.837 -2.8486  0.8062 -0.9670
  140POPC   H5Y15318   1.146   2.377   2.972 -0.0703  3.1089 -1.0459
  140POPC   C3615319   1.354   2.342   3.007 -0.0025  0.1533  0.2010
  140POPC   H6X15320   1.357   2.435   3.068 -2.4062  0.4756 -0.0737
  140POPC   H6Y15321   1.451   2.321   2.956 -0.3448 -2.9560  0.6470
  140POPC   C3715322   1.316   2.228   3.096  0.5157  0.0380 -0.3575
  140POPC   H7X15323   1.293   2.132   3.045 -1.3279 -0.4927  1.3400
  140POPC   H7Y15324   1.219   2.256   3.143  0.4394  0.3928 -0.7157
  140POPC   C3815325   1.425   2.207   3.197  1.0121  0.3963  0.1407
  140POPC   H8X15326   1.522   2.219   3.143 -0.7741  0.8571 -3.2718
  140POPC   H8Y15327   1.423   2.112   3.255  2.5695  0.6009  0.5889
  140POPC   C3915328   1.399   2.302   3.315 -0.1037  0.1340  0.1086
  140POPC   H9X15329   1.292   2.328   3.331 -0.1388 -0.7313  1.4086
  140POPC   H9Y15330   1.456   2.397   3.306  1.7235 -1.0105 -0.9539
  140POPC  C31015331   1.440   2.238   3.445 -0.5092 -0.0132 -0.7768
  140POPC  H10X15332   1.549   2.220   3.453 -0.4717  0.3256 -0.4699
  140POPC  H10Y15333   1.391   2.141   3.465  0.2685 -0.2468  0.0756
  140POPC  C31115334   1.398   2.331   3.569 -0.0105 -0.2820 -0.5521
  140POPC  H11X15335   1.288   2.319   3.560 -0.0997  1.4496 -2.4286
  140POPC  H11Y15336   1.418   2.439   3.554  0.0950 -0.0323  1.1801
  140POPC  C31215337   1.458   2.283   3.707 -0.1524  0.1083  0.2972
  140POPC  H12X15338   1.562   2.321   3.695 -0.2266  0.3824  0.5191
  140POPC  H12Y15339   1.468   2.173   3.711  0.2349  0.0742 -0.9826
  140POPC  C31315340   1.399   2.353   3.834  0.6957  0.5698  0.4115
  140POPC  H13X15341   1.423   2.462   3.836  1.2039  0.4872 -0.5043
  140POPC  H13Y15342   1.451   2.310   3.922  0.3082  1.1034  0.9100
  140POPC  C31415343   1.248   2.337   3.844  0.0895  0.3100 -0.5795
  140POPC  H14X15344   1.226   2.228   3.842 -1.6528  0.5745  0.9674
  140POPC  H14Y15345   1.190   2.376   3.758  0.7405 -0.8991 -1.5941
  140POPC  C31515346   1.191   2.392   3.976 -0.0558  0.2640  0.1913
  140POPC  H15X15347   1.081   2.382   3.984  0.0374 -2.3067 -0.9923
  140POPC  H15Y15348   1.210   2.502   3.972  0.6931  0.1895  1.2114
  140POPC  C31615349   1.270   2.357   4.104 -0.2828 -0.1898  0.0800
  140POPC  H16X15350   1.196   2.363   4.187  0.2344 -0.5731  0.5769
  140POPC  H16Y15351   1.348   2.436   4.118 -0.9421  0.4048  0.5006
  140POPC  H16Z15352   1.323   2.259   4.104  0.9532  0.4347  1.3062
  141SAPS     N15353   3.953   1.255   6.231 -0.3363 -0.2993 -0.2700
  141SAPS   HN115354   3.979   1.292   6.137 -1.9054  1.2653 -0.1341
  141SAPS   HN215355   3.927   1.155   6.228  0.0296 -0.5250  2.1319
  141SAPS   HN315356   3.871   1.310   6.262 -0.0696  2.5410 -3.8774
  141SAPS   C1215357   4.065   1.245   6.326  0.7815  0.6379 -0.6065
  141SAPS  H12A15358   4.099   1.339   6.368  1.4469 -0.0544  0.4439
  141SAPS   C1315359   4.043   1.168   6.458 -0.5313 -0.7910  0.3871
  141SAPS  O13A15360   3.939   1.099   6.471  0.1287  0.1146  0.0161
  141SAPS  O13B15361   4.120   1.178   6.555  0.6318 -0.2525 -0.4468
  141SAPS   C1115362   4.187   1.190   6.249 -0.1041  0.1320  0.0761
  141SAPS  H11A15363   4.165   1.084   6.224  0.0896  0.0480  0.2583
  141SAPS  H11B15364   4.279   1.171   6.308  1.7079  0.2503 -2.5498
  141SAPS     P15365   4.346   1.361   6.139 -0.4094  0.4993  0.3756
  141SAPS   O1315366   4.339   1.456   6.022 -0.2458  0.2748 -0.6206
  141SAPS   O1415367   4.364   1.420   6.271  0.2884  0.2041  0.1184
  141SAPS   O1215368   4.215   1.279   6.138 -0.3115  0.8534 -0.6382
  141SAPS   O1115369   4.457   1.251   6.109  0.9812  0.3037 -0.0773
  141SAPS    C115370   4.436   1.133   6.029 -0.0658 -0.3575  0.0224
  141SAPS    HA15371   4.484   1.045   6.079 -0.1168  0.2182  1.1302
  141SAPS    HB15372   4.329   1.114   6.010 -0.6005 -2.1658  3.8730
  141SAPS    C215373   4.504   1.143   5.893  0.0584 -0.3518  0.2439
  141SAPS    HS15374   4.610   1.170   5.912  0.1169 -1.1387  1.1041
  141SAPS   O2115375   4.438   1.245   5.816 -0.1111  1.2353 -0.2922
  141SAPS   C2115376   4.507   1.308   5.721 -0.0216 -0.6087  0.5452
  141SAPS   O2215377   4.619   1.278   5.690 -0.1558 -0.4659  0.6117
  141SAPS   C2215378   4.417   1.405   5.654  1.0416  0.0103 -0.3400
  141SAPS   H2R15379   4.314   1.374   5.625  0.5663  0.2569  1.0092
  141SAPS   H2S15380   4.397   1.488   5.725 -0.1574 -0.6104  0.0875
  141SAPS    C315381   4.502   1.004   5.822  0.6920  0.2354  1.3463
  141SAPS    HX15382   4.400   0.996   5.779  0.5530  0.4051  1.6365
  141SAPS    HY15383   4.514   0.926   5.900 -0.1764 -1.9842 -0.6454
  141SAPS   O3115384   4.617   0.987   5.740  0.0569 -0.4594  0.2366
  141SAPS   C3115385   4.590   0.989   5.611 -0.1689  0.5014  0.0761
  141SAPS   O3215386   4.487   1.001   5.550  0.2193 -0.7400  0.4376
  141SAPS   C3215387   4.723   0.984   5.537 -0.2571  0.4992 -0.0058
  141SAPS   H2X15388   4.796   0.928   5.599  0.8738 -0.3630 -2.0265
  141SAPS   H2Y15389   4.762   1.087   5.528  0.9272 -0.0644 -1.7707
  141SAPS   C2315390   4.461   1.470   5.526 -0.1226 -0.4058 -1.1404
  141SAPS   H3R15391   4.552   1.530   5.548 -1.7861  1.8734 -0.0159
  141SAPS   H3S15392   4.383   1.542   5.492 -0.6666 -0.7541 -0.6558
  141SAPS   C2415393   4.490   1.371   5.417 -0.0244 -0.0101  0.1850
  141SAPS   H4R15394   4.549   1.292   5.466 -0.7521 -0.6623  0.0344
  141SAPS   H4S15395   4.561   1.403   5.338  1.2328 -0.1317  1.2309
  141SAPS   C2515396   4.359   1.318   5.360 -0.4198  0.3663 -0.1194
  141SAPS   H5R15397   4.298   1.265   5.434  0.1771  0.7042  0.6298
  141SAPS   C2615398   4.321   1.311   5.235  0.2339 -0.1955 -0.1143
  141SAPS   H6R15399   4.216   1.278   5.230 -0.9292  2.5453  3.0639
  141SAPS   C2715400   4.390   1.358   5.113 -0.3632  0.2453 -0.2165
  141SAPS   H7R15401   4.455   1.438   5.154  0.6175  0.1847 -1.5630
  141SAPS   H7S15402   4.315   1.404   5.045  0.1745 -0.2473 -1.1710
  141SAPS   C2815403   4.488   1.270   5.036  0.5149  0.9889 -0.3195
  141SAPS   H8R15404   4.549   1.197   5.090 -1.7857 -1.2149 -0.5240
  141SAPS   C2915405   4.489   1.248   4.898  0.1412 -0.1474 -0.1058
  141SAPS   H9R15406   4.567   1.177   4.865 -0.7668 -1.4134  0.4145
  141SAPS  C21015407   4.408   1.322   4.788 -0.1557 -0.5801 -0.1008
  141SAPS  H10R15408   4.465   1.345   4.695  0.0456  0.0792  0.1781
  141SAPS  H10S15409   4.368   1.422   4.816 -0.2412 -0.0461 -1.9678
  141SAPS  C21115410   4.290   1.242   4.756  0.2134  0.2774  0.1405
  141SAPS  H11R15411   4.205   1.274   4.818 -0.8156 -1.1226 -0.4647
  141SAPS  C21215412   4.281   1.139   4.668  0.2221  0.5129 -0.0126
  141SAPS  H12R15413   4.187   1.083   4.656 -0.0098  0.0088  3.3523
  141SAPS  C21315414   4.395   1.101   4.574  0.3537 -0.0999 -0.1748
  141SAPS  H13R15415   4.427   1.002   4.614  0.2672 -0.4402 -0.9256
  141SAPS  H13S15416   4.473   1.180   4.575 -0.5547  0.8175 -0.4711
  141SAPS  C21415417   4.365   1.080   4.427 -0.3738 -0.3568  0.0527
  141SAPS  H14R15418   4.278   1.138   4.391  2.3539  3.6250 -0.8751
  141SAPS  C21515419   4.425   0.996   4.340  0.1133 -0.2053  0.0348
  141SAPS  H15R15420   4.388   1.004   4.236 -2.0057  2.0617  0.8773
  141SAPS  C21615421   4.545   0.908   4.368 -0.1117 -0.0057 -0.5568
  141SAPS  H16R15422   4.552   0.871   4.473  0.4927 -0.8358 -0.8777
  141SAPS  H16S15423   4.645   0.949   4.341 -0.7327  1.4397 -0.7345
  141SAPS  C21715424   4.526   0.772   4.302 -0.5344  0.2900  0.3957
  141SAPS  H17R15425   4.607   0.698   4.322 -0.5434  1.0594  3.8675
  141SAPS  H17S15426   4.527   0.796   4.194 -1.3428 -1.3434 -0.0037
  141SAPS  C21815427   4.393   0.707   4.351  0.3672  0.3511  0.1984
  141SAPS  H18R15428   4.312   0.741   4.284  1.5958  0.6814 -1.1850
  141SAPS  H18S15429   4.378   0.743   4.455 -0.9370  2.9139 -0.7920
  141SAPS  C21915430   4.396   0.558   4.354  0.2945  0.3652  0.4881
  141SAPS  H19R15431   4.492   0.528   4.401  0.0401  0.1197  0.8633
  141SAPS  H19S15432   4.384   0.520   4.251 -1.7084 -0.3747  0.9378
  141SAPS  C22015433   4.283   0.486   4.440 -0.7157 -0.7413  0.0648
  141SAPS  H20R15434   4.182   0.508   4.400  0.4837  1.3967 -2.0509
  141SAPS  H20S15435   4.312   0.525   4.541  0.4598 -0.0937 -0.4968
  141SAPS  H20T15436   4.314   0.380   4.449  0.7684 -0.3269  0.2089
  141SAPS   C3315437   4.708   0.925   5.394 -0.6276 -0.3624  0.0748
  141SAPS   H3X15438   4.638   0.986   5.333 -0.3319  2.0075  1.9609
  141SAPS   H3Y15439   4.678   0.818   5.390  1.2715 -0.9118 -0.3552
  141SAPS   C3415440   4.847   0.945   5.317  0.0165  0.1783 -0.6761
  141SAPS   H4X15441   4.912   0.868   5.363 -0.7589 -1.1008 -1.6415
  141SAPS   H4Y15442   4.891   1.046   5.323  0.3701  0.0672 -1.3406
  141SAPS   C3515443   4.844   0.903   5.169 -0.5025 -0.0586 -0.5213
  141SAPS   H5X15444   4.808   0.987   5.106 -0.1742  0.5909  0.1405
  141SAPS   H5Y15445   4.776   0.815   5.166 -1.4293  0.6029  0.5450
  141SAPS   C3615446   4.975   0.847   5.126  0.6496  0.0902 -0.2299
  141SAPS   H6X15447   5.003   0.747   5.166 -0.6469 -0.3315 -0.3350
  141SAPS   H6Y15448   5.070   0.902   5.143  1.2258 -0.7901 -0.5518
  141SAPS   C3715449   4.968   0.825   4.974 -0.4174  0.0508 -0.5144
  141SAPS   H7X15450   4.968   0.924   4.923  0.4730  0.0189 -0.5896
  141SAPS   H7Y15451   4.871   0.779   4.944 -0.6009 -0.8793  1.3282
  141SAPS   C3815452   5.076   0.734   4.920 -0.5185 -0.5840 -0.2279
  141SAPS   H8X15453   5.042   0.630   4.938 -0.9388 -0.2433  1.0377
  141SAPS   H8Y15454   5.170   0.747   4.978 -0.0840 -0.7107 -0.8842
  141SAPS   C3915455   5.108   0.771   4.774 -0.1850 -0.3390  0.4155
  141SAPS   H9X15456   5.179   0.695   4.734  2.8585  2.6065 -0.1439
  141SAPS   H9Y15457   5.159   0.869   4.763  0.6622 -0.7677  0.4331
  141SAPS  C31015458   4.994   0.759   4.681  0.0168 -0.0346  0.1418
  141SAPS  H10X15459   4.923   0.845   4.683 -0.6439 -0.3578 -3.1809
  141SAPS  H10Y15460   4.929   0.670   4.686 -1.0052  0.2514 -3.9788
  141SAPS  C31115461   5.026   0.760   4.525  0.0113  0.1775  0.1843
  141SAPS  H11X15462   5.057   0.656   4.502 -0.1508 -0.3341  2.1043
  141SAPS  H11Y15463   5.111   0.832   4.521  1.1779 -1.1225  0.7674
  141SAPS  C31215464   4.901   0.819   4.442 -0.3405 -0.3184  0.5165
  141SAPS  H12X15465   4.875   0.922   4.473  1.6739  0.9550 -1.7405
  141SAPS  H12Y15466   4.819   0.744   4.453  0.7044 -1.6705 -0.5415
  141SAPS  C31315467   4.924   0.820   4.291  0.5129 -0.0726  0.2492
  141SAPS  H13X15468   4.990   0.908   4.278  0.2959 -0.3084 -3.5379
  141SAPS  H13Y15469   4.823   0.842   4.251 -0.7244 -5.1272 -0.0670
  141SAPS  C31415470   4.973   0.686   4.238 -0.5535 -0.2867 -0.1267
  141SAPS  H14X15471   4.908   0.597   4.252 -1.8428  0.7855  0.9361
  141SAPS  H14Y15472   5.062   0.662   4.300 -0.6484  0.7834  0.4360
  141SAPS  C31515473   5.030   0.687   4.091 -0.6755  0.0814  0.2032
  141SAPS  H15X15474   5.120   0.623   4.082 -0.2534  0.2722  2.5540
  141SAPS  H15Y15475   5.065   0.790   4.065  0.0670  0.0919  1.2097
  141SAPS  C31615476   4.927   0.637   3.994 -0.3842  0.2072  0.4990
  141SAPS  H16X15477   4.913   0.528   4.010  0.2968 -0.1609 -1.2067
  141SAPS  H16Y15478   4.966   0.643   3.890 -0.1664  1.5168  0.6407
  141SAPS  C31715479   4.791   0.704   3.995  0.2617 -0.4234  0.6281
  141SAPS  H17X15480   4.805   0.814   3.990  1.4667 -0.6045 -0.6386
  141SAPS  H17Y15481   4.741   0.669   4.087  0.2693 -0.2124  0.7139
  141SAPS  C31815482   4.694   0.659   3.884  0.4984 -0.2278  0.2102
  141SAPS  H18X15483   4.708   0.551   3.861 -0.9942 -0.7551  1.5583
  141SAPS  H18Y15484   4.698   0.716   3.789 -2.0357 -1.5087 -0.7974
  141SAPS  H18Z15485   4.590   0.665   3.925  0.6600  0.9271  0.4764
  142SAPS     N15486   2.624   4.613   6.673  0.0398 -0.5210 -0.2809
  142SAPS   HN115487   2.702   4.562   6.627 -0.0573 -0.9623  0.0275
  142SAPS   HN215488   2.571   4.538   6.721  0.6024 -1.0380 -0.4475
  142SAPS   HN315489   2.558   4.648   6.602  0.6533  0.1801 -0.5229
  142SAPS   C1215490   2.684   4.709   6.772 -0.0316 -0.3422 -0.1102
  142SAPS  H12A15491   2.601   4.754   6.824  0.8834  1.3105 -0.0067
  142SAPS   C1315492   2.777   4.645   6.877 -0.9857  0.3361 -0.4792
  142SAPS  O13A15493   2.772   4.520   6.890 -0.3128  0.5351  0.1868
  142SAPS  O13B15494   2.835   4.716   6.964 -0.4958  0.0984 -0.1534
  142SAPS   C1115495   2.767   4.810   6.685 -0.0084 -0.7832  0.0169
  142SAPS  H11A15496   2.862   4.763   6.652  0.2589  1.2167 -2.3973
  142SAPS  H11B15497   2.789   4.896   6.752 -0.1350 -0.9601  0.2834
  142SAPS     P15498   2.662   4.998   6.533  0.4232  0.7249  0.3253
  142SAPS   O1315499   2.577   5.049   6.644  0.4894 -0.9591 -0.4433
  142SAPS   O1415500   2.785   5.074   6.506  0.3050  0.1202  0.2103
  142SAPS   O1215501   2.691   4.844   6.572  0.0158 -0.4226 -0.1178
  142SAPS   O1115502   2.565   4.995   6.402 -0.1774  0.4020  0.0428
  142SAPS    C115503   2.623   5.034   6.278 -0.4287  0.3899  0.4094
  142SAPS    HA15504   2.729   5.001   6.270 -0.1585  1.5420 -1.3147
  142SAPS    HB15505   2.567   4.982   6.198  1.1735 -1.4975  0.4302
  142SAPS    C215506   2.614   5.188   6.244 -0.4426  0.2759  0.3155
  142SAPS    HS15507   2.687   5.228   6.318 -0.8477  1.5954  0.0166
  142SAPS   O2115508   2.481   5.236   6.273  0.2551  0.1565 -0.0650
  142SAPS   C2115509   2.472   5.368   6.295  0.6118 -0.5258 -0.1928
  142SAPS   O2215510   2.562   5.445   6.312  0.5276  0.1882 -0.3384
  142SAPS   C2215511   2.326   5.399   6.277 -0.1165 -0.6213 -0.3569
  142SAPS   H2R15512   2.263   5.359   6.359 -3.6545  2.8087 -1.0803
  142SAPS   H2S15513   2.326   5.509   6.292 -0.9708 -0.5594 -0.7595
  142SAPS    C315514   2.660   5.212   6.105 -0.3434 -0.1627  0.7630
  142SAPS    HX15515   2.749   5.147   6.089 -1.1028 -1.0153 -0.1093
  142SAPS    HY15516   2.704   5.314   6.101 -0.2637 -0.2314 -1.0214
  142SAPS   O3115517   2.563   5.192   6.009  0.3680  0.2915 -0.2201
  142SAPS   C3115518   2.571   5.092   5.917 -0.4066 -0.0121 -0.3277
  142SAPS   O3215519   2.665   5.013   5.905 -0.3409  0.2447  0.6715
  142SAPS   C3215520   2.440   5.101   5.844  0.3574  0.4747  0.2188
  142SAPS   H2X15521   2.406   5.206   5.829 -1.0069 -0.0748 -0.7918
  142SAPS   H2Y15522   2.360   5.045   5.897 -1.1557  1.3901 -0.9659
  142SAPS   C2315523   2.276   5.357   6.142  0.4312 -0.1243  0.5844
  142SAPS   H3R15524   2.282   5.246   6.131 -0.8252 -0.0399 -1.4223
  142SAPS   H3S15525   2.334   5.415   6.067 -2.6275  0.7939 -1.2448
  142SAPS   C2415526   2.136   5.418   6.126  0.3682 -0.1304  0.2902
  142SAPS   H4R15527   2.084   5.396   6.222  0.7654  2.0435  1.0445
  142SAPS   H4S15528   2.089   5.354   6.048 -0.1874  0.8909 -0.2295
  142SAPS   C2515529   2.143   5.564   6.078 -0.1011 -0.3654 -0.5326
  142SAPS   H5R15530   2.181   5.639   6.149  0.6887 -0.3023 -1.0087
  142SAPS   C2615531   2.114   5.614   5.958 -0.1350 -0.2000 -0.8146
  142SAPS   H6R15532   2.118   5.724   5.951  1.0045 -0.2608 -1.2815
  142SAPS   C2715533   2.068   5.544   5.834 -0.5795 -0.1693  0.0220
  142SAPS   H7R15534   2.004   5.458   5.863 -0.6798 -0.2553 -0.4464
  142SAPS   H7S15535   2.149   5.490   5.780 -0.0899 -0.8251  1.3763
  142SAPS   C2815536   2.008   5.654   5.742 -0.2687  0.4796 -1.1135
  142SAPS   H8R15537   1.932   5.717   5.790 -0.0087  0.8811 -1.2300
  142SAPS   C2915538   2.013   5.666   5.612  0.0393  0.8174 -0.4056
  142SAPS   H9R15539   1.965   5.756   5.571  0.3597  1.0821 -0.2040
  142SAPS  C21015540   2.104   5.599   5.510  0.2061  0.2823 -0.3690
  142SAPS  H10R15541   2.202   5.607   5.562 -0.1353  0.1642  0.3070
  142SAPS  H10S15542   2.132   5.675   5.434 -0.1618 -0.8265 -1.6573
  142SAPS  C21115543   2.080   5.457   5.466  0.6417 -0.2218 -0.2249
  142SAPS  H11R15544   2.077   5.384   5.548  0.9775 -1.8166 -1.5766
  142SAPS  C21215545   2.079   5.426   5.333  0.2750  0.7852 -0.3326
  142SAPS  H12R15546   2.043   5.327   5.300  3.9113  0.1043 -2.8652
  142SAPS  C21315547   2.096   5.514   5.210  0.2934 -0.9983  0.3449
  142SAPS  H13R15548   2.143   5.610   5.244 -2.2241 -0.1613  1.7697
  142SAPS  H13S15549   1.993   5.542   5.181 -0.6434 -2.5010  2.0816
  142SAPS  C21415550   2.177   5.433   5.116 -0.4158 -0.2385  0.3349
  142SAPS  H14R15551   2.282   5.425   5.146 -0.4527 -3.9399 -0.0282
  142SAPS  C21515552   2.142   5.353   5.012 -0.3769 -0.0224 -0.7782
  142SAPS  H15R15553   2.216   5.290   4.960 -0.5896 -1.9861  1.1441
  142SAPS  C21615554   1.992   5.332   4.960 -0.7219 -0.1936  0.7338
  142SAPS  H16R15555   1.927   5.409   5.006  0.0821 -0.7952  2.9997
  142SAPS  H16S15556   1.950   5.232   4.986  0.0941 -0.3079  1.6634
  142SAPS  C21715557   2.004   5.338   4.804 -0.1721 -0.7152  0.0589
  142SAPS  H17R15558   2.064   5.251   4.772  1.2477  0.7553 -1.4541
  142SAPS  H17S15559   2.051   5.434   4.773 -2.4662  0.7039  0.6910
  142SAPS  C21815560   1.863   5.329   4.745  0.1000  0.5277  0.1543
  142SAPS  H18R15561   1.808   5.413   4.794 -1.2736 -1.2945  1.9195
  142SAPS  H18S15562   1.815   5.235   4.780 -0.0426  0.3268 -0.5574
  142SAPS  C21915563   1.858   5.336   4.590  0.7428 -0.3606 -0.3596
  142SAPS  H19R15564   1.749   5.350   4.573  0.5808  1.5718  1.7301
  142SAPS  H19S15565   1.894   5.241   4.544  2.2725  0.3725 -0.7262
  142SAPS  C22015566   1.942   5.449   4.524 -1.0826  0.5525 -1.0250
  142SAPS  H20R15567   1.929   5.466   4.415 -3.1878 -2.5865 -1.3870
  142SAPS  H20S15568   2.049   5.421   4.525 -1.0863  0.4900  1.0683
  142SAPS  H20T15569   1.937   5.545   4.579  0.2428  0.4741 -0.7356
  142SAPS   C3315570   2.442   5.040   5.702  0.7609  0.2197 -0.4005
  142SAPS   H3X15571   2.471   4.933   5.710 -0.3436 -0.1951 -1.5305
  142SAPS   H3Y15572   2.523   5.088   5.643  0.8660  0.4569 -0.0677
  142SAPS   C3415573   2.315   5.068   5.623  0.4022  0.1764  0.0479
  142SAPS   H4X15574   2.272   5.170   5.638 -1.1621 -0.5687  0.8545
  142SAPS   H4Y15575   2.236   4.999   5.660 -0.7705  0.9746 -0.8538
  142SAPS   C3515576   2.335   5.052   5.470  0.1089  0.5207  0.1567
  142SAPS   H5X15577   2.351   4.945   5.443  0.4312 -0.0112  2.3142
  142SAPS   H5Y15578   2.412   5.124   5.433  0.8896  0.8426  2.2791
  142SAPS   C3615579   2.214   5.095   5.389  1.2041 -0.1062 -0.1250
  142SAPS   H6X15580   2.188   5.199   5.417  0.6098 -0.4472  0.6475
  142SAPS   H6Y15581   2.128   5.025   5.402 -0.1653  1.4951 -0.1325
  142SAPS   C3715582   2.235   5.088   5.234 -0.0678  0.2615 -0.1923
  142SAPS   H7X15583   2.306   5.172   5.215  0.8044 -0.2393  0.7533
  142SAPS   H7Y15584   2.140   5.109   5.181  0.0866  0.7338 -0.2966
  142SAPS   C3815585   2.290   4.965   5.166  0.9291 -0.5086 -0.3747
  142SAPS   H8X15586   2.216   4.885   5.189  0.7508 -0.1609  0.2896
  142SAPS   H8Y15587   2.380   4.925   5.217  0.7534  0.1627  0.4708
  142SAPS   C3915588   2.320   4.992   5.018  0.5044  0.6972  0.2071
  142SAPS   H9X15589   2.383   5.079   4.991  2.1937 -0.0335  1.5951
  142SAPS   H9Y15590   2.222   4.992   4.965  0.6191  0.6044 -0.0071
  142SAPS  C31015591   2.392   4.857   4.963 -0.3247 -0.0619 -0.0368
  142SAPS  H10X15592   2.313   4.779   4.966 -1.1198  0.7041 -0.4580
  142SAPS  H10Y15593   2.477   4.834   5.031  0.1067  0.7152 -0.2943
  142SAPS  C31115594   2.449   4.878   4.825 -0.3690  0.3464 -0.3055
  142SAPS  H11X15595   2.493   4.979   4.818  0.2131  0.0061 -2.1010
  142SAPS  H11Y15596   2.370   4.866   4.748  1.8729  0.6783 -2.7958
  142SAPS  C31215597   2.564   4.773   4.794  0.3158 -0.2489 -0.4465
  142SAPS  H12X15598   2.555   4.746   4.687 -1.9294  0.0946 -0.3896
  142SAPS  H12Y15599   2.549   4.679   4.851  2.8621 -1.5858 -1.7972
  142SAPS  C31315600   2.705   4.838   4.824  0.4639 -0.4635 -0.2315
  142SAPS  H13X15601   2.718   4.866   4.931  0.0123  2.3805 -0.8444
  142SAPS  H13Y15602   2.717   4.930   4.762 -1.9900 -1.0235 -1.6410
  142SAPS  C31415603   2.817   4.737   4.778 -0.2642  0.2595  0.4663
  142SAPS  H14X15604   2.820   4.729   4.667  0.2478 -1.1922  0.5698
  142SAPS  H14Y15605   2.775   4.644   4.821 -1.4946 -0.1492 -1.5006
  142SAPS  C31515606   2.959   4.756   4.829  0.6900 -0.6615 -0.1459
  142SAPS  H15X15607   3.012   4.662   4.857 -0.9760 -1.5430  0.1890
  142SAPS  H15Y15608   2.958   4.817   4.922 -3.3436 -2.1457  1.0295
  142SAPS  C31615609   3.056   4.839   4.746 -0.4219 -1.4469 -0.1109
  142SAPS  H16X15610   3.147   4.872   4.800 -0.9453  0.2150 -0.1684
  142SAPS  H16Y15611   3.006   4.934   4.717  0.8114 -0.7545 -0.0174
  142SAPS  C31715612   3.093   4.779   4.612  0.2095  0.3634 -0.0478
  142SAPS  H17X15613   3.006   4.773   4.543  1.0733  1.9387 -1.3739
  142SAPS  H17Y15614   3.124   4.674   4.631  3.6867  0.6559 -2.9385
  142SAPS  C31815615   3.200   4.850   4.536 -0.5814 -0.1589 -0.5595
  142SAPS  H18X15616   3.239   4.785   4.455 -1.0029 -0.1385 -0.7783
  142SAPS  H18Y15617   3.291   4.860   4.599  0.4359 -1.9801 -1.6495
  142SAPS  H18Z15618   3.169   4.947   4.492  0.4491 -0.1858 -1.4048
  143SAPS     N15619   1.716   2.813   7.003  0.3635 -0.0995 -0.1531
  143SAPS   HN115620   1.707   2.904   7.051 -1.4509 -0.1963 -0.2541
  143SAPS   HN215621   1.810   2.768   7.007  0.2981 -0.3627 -1.2134
  143SAPS   HN315622   1.691   2.807   6.902 -0.1998  2.3516 -0.2119
  143SAPS   C1215623   1.629   2.714   7.079  0.0316 -0.0630 -0.4270
  143SAPS  H12A15624   1.684   2.682   7.166 -2.6867 -1.3754  0.9314
  143SAPS   C1315625   1.502   2.777   7.145  0.8544 -0.1171  0.2418
  143SAPS  O13A15626   1.447   2.884   7.093 -0.5544 -0.5308  0.4133
  143SAPS  O13B15627   1.433   2.699   7.219 -0.0121  0.0337  0.8301
  143SAPS   C1115628   1.591   2.587   6.993  0.4125  0.0508 -0.9720
  143SAPS  H11A15629   1.505   2.617   6.929 -2.3977 -0.1656  2.4397
  143SAPS  H11B15630   1.550   2.511   7.063 -1.4225  0.1065 -1.9308
  143SAPS     P15631   1.740   2.393   6.920  0.4449  0.3978 -0.5856
  143SAPS   O1315632   1.815   2.374   7.046  0.3608 -0.1278  0.1772
  143SAPS   O1415633   1.616   2.320   6.894 -0.5261  0.9146  0.1428
  143SAPS   O1215634   1.698   2.547   6.907 -0.1403  0.1150 -0.1558
  143SAPS   O1115635   1.833   2.361   6.798  0.2179 -0.4718 -0.1968
  143SAPS    C115636   1.821   2.439   6.678 -0.1156  0.8417 -0.6159
  143SAPS    HA15637   1.714   2.453   6.650 -0.6974 -0.9009  0.5251
  143SAPS    HB15638   1.863   2.538   6.705 -1.5944  1.0656  1.0575
  143SAPS    C215639   1.903   2.373   6.568  0.5301  0.5238  0.2664
  143SAPS    HS15640   1.864   2.413   6.472 -1.6627  1.1147  1.3320
  143SAPS   O2115641   1.895   2.228   6.573  0.0604  0.2035  0.2002
  143SAPS   C2115642   1.768   2.189   6.529 -0.2933 -0.1781  0.1920
  143SAPS   O2215643   1.686   2.270   6.477  0.3037  0.0273 -0.5669
  143SAPS   C2215644   1.762   2.037   6.567 -0.1305  0.7747  0.3644
  143SAPS   H2R15645   1.804   2.031   6.670 -0.8032  1.6775  0.7126
  143SAPS   H2S15646   1.656   2.004   6.565  1.1550 -4.0599 -0.7168
  143SAPS    C315647   2.046   2.434   6.576  0.2153 -0.1575 -0.1015
  143SAPS    HX15648   2.106   2.391   6.658  0.3930  2.3805  1.2001
  143SAPS    HY15649   2.034   2.542   6.599  0.5845  0.1838 -1.4262
  143SAPS   O3115650   2.116   2.416   6.456 -0.1277 -0.4434  0.3603
  143SAPS   C3115651   2.179   2.305   6.428  0.6693  0.2474 -0.2940
  143SAPS   O3215652   2.191   2.208   6.499  0.4663  0.7491  0.0926
  143SAPS   C3215653   2.229   2.313   6.285 -0.8569 -0.3689  0.4656
  143SAPS   H2X15654   2.326   2.261   6.290 -0.3042  0.7040  1.3535
  143SAPS   H2Y15655   2.252   2.420   6.268  0.6939 -0.5240  1.4373
  143SAPS   C2315656   1.844   1.953   6.462 -0.0947  0.6118 -0.3299
  143SAPS   H3R15657   1.870   1.856   6.511  0.0029  1.0480  0.5056
  143SAPS   H3S15658   1.944   1.998   6.448  0.4425 -0.5153 -0.2803
  143SAPS   C2415659   1.765   1.927   6.334 -0.6304  0.1124  0.0062
  143SAPS   H4R15660   1.661   1.896   6.357 -0.0802 -1.1823  0.8760
  143SAPS   H4S15661   1.817   1.839   6.290  0.5262 -0.6639  2.7489
  143SAPS   C2515662   1.756   2.035   6.226 -0.3337  1.1211 -0.3891
  143SAPS   H5R15663   1.710   2.127   6.266 -0.0726  1.7810 -1.5449
  143SAPS   C2615664   1.781   2.028   6.097 -0.0320  0.3091  0.1688
  143SAPS   H6R15665   1.794   2.128   6.053 -2.2767  0.1316 -1.1066
  143SAPS   C2715666   1.819   1.908   6.020  0.4986  0.9222 -0.3168
  143SAPS   H7R15667   1.752   1.823   6.048 -0.1209  1.3391 -0.5294
  143SAPS   H7S15668   1.919   1.871   6.049  0.8948  0.4498 -2.2141
  143SAPS   C2815669   1.805   1.943   5.875 -1.0647 -0.2595  0.1947
  143SAPS   H8R15670   1.897   1.986   5.833 -0.4454 -0.1625  1.5694
  143SAPS   C2915671   1.705   1.910   5.796 -0.2315 -0.2879  0.1288
  143SAPS   H9R15672   1.714   1.935   5.689  2.1638 -0.7574  0.1603
  143SAPS  C21015673   1.583   1.835   5.828  0.4032 -0.4905 -0.1623
  143SAPS  H10R15674   1.560   1.854   5.935  1.4929 -0.7943  0.1306
  143SAPS  H10S15675   1.609   1.727   5.818 -1.2427 -1.6682  4.9682
  143SAPS  C21115676   1.457   1.868   5.748  0.0357 -0.6082 -0.5255
  143SAPS  H11R15677   1.374   1.911   5.806 -0.7352  0.4856 -2.3667
  143SAPS  C21215678   1.432   1.873   5.619  0.2868  0.0108 -0.3341
  143SAPS  H12R15679   1.332   1.900   5.582 -0.4936 -1.2855  0.7211
  143SAPS  C21315680   1.515   1.817   5.507 -0.7385  1.0295 -1.5286
  143SAPS  H13R15681   1.455   1.746   5.446  1.7729 -0.4726 -2.4078
  143SAPS  H13S15682   1.586   1.743   5.551 -3.2787  0.4029  1.9835
  143SAPS  C21415683   1.599   1.913   5.424 -0.1814  0.2600 -0.0873
  143SAPS  H14R15684   1.622   2.006   5.479  1.5805 -0.9160  1.2526
  143SAPS  C21515685   1.638   1.889   5.299  0.9487  0.4078  1.1003
  143SAPS  H15R15686   1.690   1.973   5.252 -0.7284  1.0179  0.2533
  143SAPS  C21615687   1.609   1.762   5.217  0.2616  0.2572 -0.0870
  143SAPS  H16R15688   1.544   1.695   5.277  0.5054  1.2979  1.3897
  143SAPS  H16S15689   1.707   1.715   5.192  0.5236  1.0344 -0.5365
  143SAPS  C21715690   1.546   1.794   5.077 -0.5134 -0.0913 -0.2869
  143SAPS  H17R15691   1.446   1.837   5.099 -0.0624  0.9922 -0.2727
  143SAPS  H17S15692   1.537   1.699   5.020 -0.4985  0.4091 -1.1456
  143SAPS  C21815693   1.628   1.891   4.981 -0.0400  0.3410 -0.0271
  143SAPS  H18R15694   1.731   1.848   4.975  0.1063  0.5073  1.1429
  143SAPS  H18S15695   1.629   1.987   5.036 -2.6062  0.0650  0.5989
  143SAPS  C21915696   1.574   1.888   4.837 -0.7072 -0.1856 -0.7835
  143SAPS  H19R15697   1.559   1.779   4.818  1.3014 -0.5662 -0.3701
  143SAPS  H19S15698   1.647   1.936   4.768  0.6864  0.7027  1.2137
  143SAPS  C22015699   1.438   1.971   4.835  0.3584  0.4811  0.0006
  143SAPS  H20R15700   1.358   1.928   4.898 -0.1612 -0.1254 -1.0284
  143SAPS  H20S15701   1.400   1.977   4.730  2.1214 -1.4107 -0.8215
  143SAPS  H20T15702   1.461   2.072   4.875  1.3690  1.8048 -3.5377
  143SAPS   C3315703   2.128   2.267   6.185  0.0245  0.5800  0.0542
  143SAPS   H3X15704   2.029   2.311   6.211 -0.9394 -1.4655 -0.0218
  143SAPS   H3Y15705   2.119   2.157   6.189 -0.3145  0.6066  0.0900
  143SAPS   C3415706   2.152   2.314   6.036  0.1826  0.1554  0.4454
  143SAPS   H4X15707   2.243   2.261   5.999  0.3848  1.3284 -0.8059
  143SAPS   H4Y15708   2.159   2.425   6.032  2.0162  0.0449 -0.4660
  143SAPS   C3515709   2.041   2.282   5.942  0.4900  0.1537  0.0613
  143SAPS   H5X15710   1.947   2.335   5.966 -2.2098 -4.5737  1.2162
  143SAPS   H5Y15711   2.011   2.176   5.953 -2.0992  0.8820  0.8047
  143SAPS   C3615712   2.074   2.310   5.791  0.8326 -0.0789  0.7449
  143SAPS   H6X15713   2.149   2.241   5.749  0.0962  0.2777 -1.2837
  143SAPS   H6Y15714   2.097   2.417   5.773  2.7853 -0.6960 -0.7483
  143SAPS   C3715715   1.949   2.279   5.699  0.1908 -0.4837  0.3458
  143SAPS   H7X15716   1.862   2.338   5.736  0.7517 -0.0107  0.9168
  143SAPS   H7Y15717   1.914   2.174   5.714 -1.1633 -0.1142 -0.0176
  143SAPS   C3815718   1.975   2.300   5.551 -0.3459 -0.4380 -0.4003
  143SAPS   H8X15719   2.064   2.246   5.512  2.1735  4.0289 -1.5225
  143SAPS   H8Y15720   2.002   2.406   5.533 -2.9312  0.3200 -0.2534
  143SAPS   C3915721   1.851   2.271   5.458  0.5557  0.2870  0.1811
  143SAPS   H9X15722   1.766   2.337   5.483  1.0177  1.9532 -2.2522
  143SAPS   H9Y15723   1.817   2.166   5.470  1.4138 -0.1892 -1.2294
  143SAPS  C31015724   1.884   2.291   5.310 -0.5820 -0.7444  0.0366
  143SAPS  H10X15725   1.987   2.252   5.294  0.0139  1.1636 -1.1141
  143SAPS  H10Y15726   1.897   2.398   5.283 -1.3623 -0.5711  0.3052
  143SAPS  C31115727   1.791   2.228   5.211  0.0256 -0.4696  0.3487
  143SAPS  H11X15728   1.689   2.268   5.231 -0.7389 -2.2066  0.0775
  143SAPS  H11Y15729   1.795   2.121   5.240  0.7790 -0.5261  0.0363
  143SAPS  C31215730   1.820   2.249   5.059 -0.2593 -0.6222 -0.0189
  143SAPS  H12X15731   1.745   2.191   5.002  0.0453  1.7230 -3.1003
  143SAPS  H12Y15732   1.911   2.188   5.039 -1.0678 -1.0970 -2.6466
  143SAPS  C31315733   1.835   2.396   5.015 -0.6406  0.0378  0.0231
  143SAPS  H13X15734   1.941   2.422   4.992 -1.4978  2.0982 -1.9952
  143SAPS  H13Y15735   1.796   2.456   5.100 -2.1085 -0.0774 -0.5404
  143SAPS  C31415736   1.779   2.435   4.883  0.1680 -0.2842  0.2707
  143SAPS  H14X15737   1.797   2.545   4.878  3.2769 -0.7447 -0.6778
  143SAPS  H14Y15738   1.668   2.432   4.884  0.1173 -0.4908 -1.5382
  143SAPS  C31515739   1.843   2.369   4.761  0.0401  0.9863 -0.8094
  143SAPS  H15X15740   1.847   2.259   4.751 -1.0193  0.8272  0.2342
  143SAPS  H15Y15741   1.945   2.413   4.764 -0.2512  1.6443 -0.2231
  143SAPS  C31615742   1.775   2.419   4.634 -0.1120  0.1115 -0.0857
  143SAPS  H16X15743   1.828   2.362   4.554  0.9983  0.4764  0.3660
  143SAPS  H16Y15744   1.788   2.529   4.621  1.3441  0.1087  1.0726
  143SAPS  C31715745   1.626   2.387   4.629 -0.2272 -0.1629 -0.5436
  143SAPS  H17X15746   1.580   2.411   4.531 -2.7564  0.4903  0.7178
  143SAPS  H17Y15747   1.566   2.449   4.699 -0.1225  1.3945 -1.7869
  143SAPS  C31815748   1.588   2.240   4.670  0.2772  0.1024  0.5628
  143SAPS  H18X15749   1.490   2.213   4.624  0.9558  0.1321 -0.9578
  143SAPS  H18Y15750   1.607   2.228   4.779  0.9020  2.2661  0.7241
  143SAPS  H18Z15751   1.662   2.171   4.624 -1.4559 -1.8225  0.5041
  144SAPS     N15752   4.619   0.084   6.497 -0.8517  0.6243 -0.0561
  144SAPS   HN115753   4.558   0.166   6.480 -1.8835 -0.1027  0.0743
  144SAPS   HN215754   4.692   0.063   6.426 -2.5686 -2.2723 -1.1149
  144SAPS   HN315755   4.563  -0.000   6.471 -0.2258  0.3174 -0.4340
  144SAPS   C1215756   4.651   0.099   6.644  0.7903  0.1875  0.5450
  144SAPS  H12A15757   4.681   0.202   6.657  1.8196  0.2215 -1.6045
  144SAPS   C1315758   4.529   0.070   6.742  0.5930  0.3977  1.1095
  144SAPS  O13A15759   4.431   0.009   6.700  0.6453  0.1727 -0.1307
  144SAPS  O13B15760   4.538   0.104   6.860 -0.0632 -0.1109 -0.6055
  144SAPS   C1115761   4.762   0.007   6.699 -0.0686 -0.0649 -0.0733
  144SAPS  H11A15762   4.729  -0.099   6.689 -0.6826  0.3357 -3.3475
  144SAPS  H11B15763   4.776   0.021   6.809 -0.3962 -1.5137  0.1762
  144SAPS     P15764   4.995   0.128   6.653  0.0856 -0.0581 -0.1535
  144SAPS   O1315765   4.936   0.255   6.705  1.1303 -0.2203  0.2270
  144SAPS   O1415766   5.107   0.071   6.728  0.3794  0.2080 -1.1943
  144SAPS   O1215767   4.886   0.014   6.634  0.1201 -0.4834  0.9563
  144SAPS   O1115768   5.049   0.163   6.511  0.7085 -0.2351  0.4217
  144SAPS    C115769   5.089   0.056   6.423  0.0367 -0.0272  0.0427
  144SAPS    HA15770   5.167  -0.001   6.478 -0.2221  1.1520  1.7278
  144SAPS    HB15771   5.006  -0.013   6.397  1.4362 -2.7702  2.3363
  144SAPS    C215772   5.141   0.132   6.297 -0.3132 -0.3456  0.0268
  144SAPS    HS15773   5.217   0.210   6.322 -0.7444  0.8281 -2.0695
  144SAPS   O2115774   5.029   0.193   6.231  0.0589  0.2562 -0.0210
  144SAPS   C2115775   5.053   0.295   6.141  0.8341  0.5343 -0.0145
  144SAPS   O2215776   5.158   0.353   6.126  0.3568 -0.0047 -0.2892
  144SAPS   C2215777   4.926   0.322   6.065 -0.2214 -0.7443 -0.5237
  144SAPS   H2R15778   4.844   0.250   6.088 -1.8634  1.3868  0.7538
  144SAPS   H2S15779   4.893   0.423   6.097  1.0481 -1.1046  2.1511
  144SAPS    C315780   5.218   0.030   6.208  0.5721 -0.3479  0.1714
  144SAPS    HX15781   5.285  -0.024   6.279 -1.6888 -1.4054  1.6315
  144SAPS    HY15782   5.265   0.092   6.130  0.3762  0.4119  0.6494
  144SAPS   O3115783   5.121  -0.064   6.146 -0.2125 -0.3355  0.4940
  144SAPS   C3115784   5.183  -0.169   6.094 -0.0030 -0.4583  0.7252
  144SAPS   O3215785   5.292  -0.211   6.123  0.6760 -0.1037  0.0630
  144SAPS   C3215786   5.088  -0.229   5.993 -0.2238 -0.7501  0.3989
  144SAPS   H2X15787   4.997  -0.167   5.979 -2.0412 -2.8583  2.0578
  144SAPS   H2Y15788   5.059  -0.326   6.039  0.8696 -1.5210 -0.4727
  144SAPS   C2315789   4.948   0.355   5.913 -0.5029  0.4322 -0.1889
  144SAPS   H3R15790   5.007   0.448   5.903  0.2459 -0.2384 -3.0229
  144SAPS   H3S15791   4.850   0.383   5.868  0.5935  3.0032 -1.1282
  144SAPS   C2415792   4.999   0.229   5.834 -0.1241  0.3109 -0.7528
  144SAPS   H4R15793   4.931   0.142   5.851  1.0360 -0.1195  2.2272
  144SAPS   H4S15794   5.093   0.190   5.879  1.1705  1.6329 -2.2053
  144SAPS   C2515795   5.021   0.262   5.688 -0.2477  0.0244 -0.4593
  144SAPS   H5R15796   5.108   0.326   5.668 -0.3716  0.0254 -0.9944
  144SAPS   C2615797   4.947   0.224   5.584  0.8308  0.8640  0.8673
  144SAPS   H6R15798   4.956   0.269   5.484 -2.3807  1.4525  0.7528
  144SAPS   C2715799   4.821   0.145   5.595  0.0921  0.5631  0.1465
  144SAPS   H7R15800   4.837   0.055   5.658 -2.1526  0.5037  0.7367
  144SAPS   H7S15801   4.801   0.109   5.492 -1.2127  1.9766 -0.1266
  144SAPS   C2815802   4.695   0.220   5.645  0.1833 -0.0207 -0.0558
  144SAPS   H8R15803   4.710   0.329   5.637  1.7252 -0.2304 -0.4525
  144SAPS   C2915804   4.596   0.178   5.721  0.5255  0.1058 -0.4439
  144SAPS   H9R15805   4.510   0.244   5.742  1.1160  0.6103  0.4582
  144SAPS  C21015806   4.577   0.034   5.754  0.3841  0.1169 -0.2028
  144SAPS  H10R15807   4.638   0.024   5.847  2.2046 -2.3289 -1.5470
  144SAPS  H10S15808   4.616  -0.036   5.677  0.2452 -3.3394  2.5823
  144SAPS  C21115809   4.436  -0.017   5.785 -0.7490 -0.2290 -0.0284
  144SAPS  H11R15810   4.417  -0.029   5.892  1.5718  0.9581  0.5817
  144SAPS  C21215811   4.339  -0.055   5.711  0.1036 -0.2046 -0.4093
  144SAPS  H12R15812   4.251  -0.099   5.758  0.9587  1.7862  3.4461
  144SAPS  C21315813   4.333  -0.040   5.561  0.6828 -0.0546 -0.2892
  144SAPS  H13R15814   4.423   0.013   5.524  1.7320 -0.7439  1.1844
  144SAPS  H13S15815   4.249   0.032   5.548  1.1934  1.0681  2.0865
  144SAPS  C21415816   4.314  -0.175   5.495  0.0417 -0.2259 -0.7816
  144SAPS  H14R15817   4.261  -0.246   5.561 -1.4256  1.7158  0.2472
  144SAPS  C21515818   4.376  -0.225   5.389  0.3455  0.2847 -0.3030
  144SAPS  H15R15819   4.347  -0.325   5.353  1.3441 -1.2080  2.6792
  144SAPS  C21615820   4.453  -0.144   5.290  0.1155 -0.0518 -0.8584
  144SAPS  H16R15821   4.493  -0.221   5.221  0.1200 -2.3127  1.5269
  144SAPS  H16S15822   4.543  -0.103   5.340 -1.2042 -0.2642  1.9180
  144SAPS  C21715823   4.369  -0.038   5.210 -0.0361  0.2095 -0.3943
  144SAPS  H17R15824   4.445   0.011   5.145  2.0737  0.4581  2.1130
  144SAPS  H17S15825   4.328   0.034   5.284  1.4894 -0.7775  1.4965
  144SAPS  C21815826   4.258  -0.103   5.115 -0.0051  0.6457 -0.7334
  144SAPS  H18R15827   4.176  -0.137   5.182 -0.1215  2.4663  0.1302
  144SAPS  H18S15828   4.302  -0.189   5.060 -3.5091 -0.6193 -1.7915
  144SAPS  C21915829   4.199  -0.005   5.016 -0.3603  0.0748 -0.3198
  144SAPS  H19R15830   4.274   0.030   4.941  0.8462 -3.8457 -1.1812
  144SAPS  H19S15831   4.162   0.088   5.065  1.7383 -0.0039  1.6037
  144SAPS  C22015832   4.079  -0.066   4.941 -0.2051  0.4719  0.3605
  144SAPS  H20R15833   4.045   0.011   4.869  0.2221  0.2909 -0.0358
  144SAPS  H20S15834   3.985  -0.082   4.999 -0.9959  0.1008 -0.9906
  144SAPS  H20T15835   4.108  -0.152   4.878  2.2132  0.0450  1.8884
  144SAPS   C3315836   5.149  -0.254   5.855  0.2860 -0.5862  0.5159
  144SAPS   H3X15837   5.067  -0.286   5.787 -0.1374  0.2123  0.6425
  144SAPS   H3Y15838   5.216  -0.343   5.851  1.1112  0.0517 -0.1692
  144SAPS   C3415839   5.231  -0.137   5.797 -0.1298 -0.5952 -0.5273
  144SAPS   H4X15840   5.337  -0.151   5.826  0.4583  2.4826 -0.8516
  144SAPS   H4Y15841   5.206  -0.038   5.842 -0.7725 -1.1286  0.3249
  144SAPS   C3515842   5.204  -0.126   5.653 -0.9203 -0.0687 -0.6915
  144SAPS   H5X15843   5.098  -0.096   5.642 -0.9510 -0.9101 -3.2546
  144SAPS   H5Y15844   5.209  -0.224   5.602 -2.1912 -1.1393  1.1225
  144SAPS   C3615845   5.290  -0.017   5.576 -0.1863 -0.4322 -0.0547
  144SAPS   H6X15846   5.399  -0.034   5.584  0.2394  0.5856 -2.6580
  144SAPS   H6Y15847   5.270   0.082   5.622 -2.1306  0.9657 -3.5004
  144SAPS   C3715848   5.232  -0.011   5.437  0.1534 -0.2707  0.0561
  144SAPS   H7X15849   5.277   0.072   5.379  1.6125 -1.3406 -0.4047
  144SAPS   H7Y15850   5.123   0.008   5.447  0.3375  0.8249  0.0983
  144SAPS   C3815851   5.254  -0.137   5.349  0.0449 -0.2851  0.1887
  144SAPS   H8X15852   5.200  -0.224   5.393 -1.8453  0.1153 -1.2021
  144SAPS   H8Y15853   5.362  -0.161   5.356  0.0418 -0.5336 -0.5378
  144SAPS   C3915854   5.197  -0.122   5.202 -0.3472 -0.5249 -0.2937
  144SAPS   H9X15855   5.237  -0.024   5.168  1.9656 -1.2131  0.2589
  144SAPS   H9Y15856   5.086  -0.116   5.208 -0.2496  0.4357  2.8002
  144SAPS  C31015857   5.225  -0.233   5.103  1.1193 -0.2818 -0.4356
  144SAPS  H10X15858   5.193  -0.315   5.171  0.3067  0.6527  0.3319
  144SAPS  H10Y15859   5.334  -0.248   5.084  1.1342 -2.6850  1.1115
  144SAPS  C31115860   5.133  -0.228   4.981 -0.4785 -0.0524  0.6537
  144SAPS  H11X15861   5.055  -0.149   4.986 -0.9909 -0.5559  0.7144
  144SAPS  H11Y15862   5.087  -0.325   4.951  2.3099 -1.6490  1.2108
  144SAPS  C31215863   5.217  -0.202   4.846  0.7149 -0.0071  0.0289
  144SAPS  H12X15864   5.320  -0.242   4.846  0.9627  0.5852 -1.2272
  144SAPS  H12Y15865   5.216  -0.091   4.838  2.2724  0.0924  0.7875
  144SAPS  C31315866   5.143  -0.245   4.720 -0.8538  0.8585  0.0695
  144SAPS  H13X15867   5.042  -0.199   4.723 -1.4775 -0.2275 -2.0823
  144SAPS  H13Y15868   5.133  -0.356   4.728 -0.1917  0.7914  0.0634
  144SAPS  C31415869   5.205  -0.209   4.587  0.0998  0.0141  0.5796
  144SAPS  H14X15870   5.228  -0.101   4.585 -0.4933  0.1521 -1.3419
  144SAPS  H14Y15871   5.133  -0.230   4.505 -0.2059  0.7821  0.6438
  144SAPS  C31515872   5.335  -0.286   4.567 -0.4165  0.2253  0.2208
  144SAPS  H15X15873   5.311  -0.393   4.588  0.5721  0.0098  0.2851
  144SAPS  H15Y15874   5.406  -0.250   4.644  1.1062  1.1097 -1.5128
  144SAPS  C31615875   5.399  -0.275   4.424 -0.4434  0.1836 -0.1188
  144SAPS  H16X15876   5.467  -0.363   4.420 -1.3036 -0.4944  0.0852
  144SAPS  H16Y15877   5.472  -0.191   4.412  1.1006 -1.1207 -0.2479
  144SAPS  C31715878   5.312  -0.278   4.301 -0.4311 -0.4791  0.4845
  144SAPS  H17X15879   5.242  -0.193   4.305  0.5953  0.5259 -1.5024
  144SAPS  H17Y15880   5.245  -0.367   4.296  0.2053 -0.9655  0.3974
  144SAPS  C31815881   5.397  -0.269   4.175 -0.6475  0.6098 -0.0781
  144SAPS  H18X15882   5.334  -0.292   4.086 -2.5644 -0.4721  1.4647
  144SAPS  H18Y15883   5.479  -0.344   4.169 -2.6025 -1.5427 -1.8161
  144SAPS  H18Z15884   5.431  -0.164   4.163  0.5355  0.5117  1.9289
  145SAPS     N15885   1.785   3.605   6.673  0.6650  0.1545 -0.0706
  145SAPS   HN115886   1.719   3.673   6.716  1.8637  0.8466  0.7338
  145SAPS   HN215887   1.860   3.675   6.653  1.6577 -0.1482  2.2888
  145SAPS   HN315888   1.748   3.556   6.589 -2.5623 -2.3416  2.5534
  145SAPS   C1215889   1.816   3.513   6.784 -0.3246  0.1607  0.0624
  145SAPS  H12A15890   1.891   3.442   6.752 -1.8518 -1.1657 -0.7140
  145SAPS   C1315891   1.855   3.588   6.909  0.3239 -0.4775 -0.6021
  145SAPS  O13A15892   1.877   3.715   6.907 -0.2472 -0.2981  0.1090
  145SAPS  O13B15893   1.860   3.523   7.016 -0.2167  0.1960  0.3475
  145SAPS   C1115894   1.682   3.439   6.813  0.5596  0.5669  0.4983
  145SAPS  H11A15895   1.617   3.526   6.837  0.9870  0.3366  2.6938
  145SAPS  H11B15896   1.690   3.373   6.902 -1.3762  1.7847  1.6419
  145SAPS     P15897   1.689   3.233   6.644  0.1822  0.1336 -0.0335
  145SAPS   O1315898   1.837   3.240   6.612 -0.1923 -0.3374  0.1540
  145SAPS   O1415899   1.642   3.141   6.748  0.1675  1.1115 -0.2177
  145SAPS   O1215900   1.628   3.378   6.686  0.1086  0.0582  0.3183
  145SAPS   O1115901   1.601   3.202   6.518  0.5747 -0.0027 -0.2680
  145SAPS    C115902   1.545   3.310   6.434  0.0357  0.5084  0.7090
  145SAPS    HA15903   1.435   3.321   6.448  0.1424  0.2875  1.7940
  145SAPS    HB15904   1.584   3.412   6.458 -0.0273  0.1951  2.2511
  145SAPS    C215905   1.585   3.295   6.286  0.4595 -0.0276 -0.0576
  145SAPS    HS15906   1.551   3.380   6.224  1.3891 -0.1474 -0.7524
  145SAPS   O2115907   1.537   3.175   6.236 -0.1710  0.8319 -0.1492
  145SAPS   C2115908   1.414   3.159   6.216 -0.3821 -0.3631  0.1479
  145SAPS   O2215909   1.323   3.239   6.224  0.2266 -0.4665  0.3875
  145SAPS   C2215910   1.390   3.012   6.172 -0.2488 -0.2800 -0.2906
  145SAPS   H2R15911   1.480   2.967   6.124 -1.3408 -2.7052 -0.2230
  145SAPS   H2S15912   1.365   2.947   6.259 -0.5939  1.2230  0.7728
  145SAPS    C315913   1.739   3.302   6.286  0.2938  0.1181  0.5948
  145SAPS    HX15914   1.784   3.206   6.317  0.7556 -0.5050 -1.7949
  145SAPS    HY15915   1.771   3.369   6.369 -1.0017 -1.2793  2.2821
  145SAPS   O3115916   1.786   3.352   6.162 -0.3651 -0.4478 -0.0053
  145SAPS   C3115917   1.876   3.280   6.096  0.0968  0.0847  0.3921
  145SAPS   O3215918   1.925   3.170   6.138 -0.2544  0.2777 -0.7656
  145SAPS   C3215919   1.905   3.342   5.966  0.3373 -0.0646  0.4016
  145SAPS   H2X15920   2.009   3.382   5.966  0.0664  0.7040 -0.7809
  145SAPS   H2Y15921   1.845   3.434   5.952  1.6026  1.0942  2.2379
  145SAPS   C2315922   1.275   2.988   6.071  0.0785  0.7806  0.0264
  145SAPS   H3R15923   1.196   3.061   6.098  0.6259  0.9097  1.3263
  145SAPS   H3S15924   1.225   2.893   6.099 -0.2298  0.5035 -1.3804
  145SAPS   C2415925   1.298   2.973   5.921 -0.3335 -0.4345 -1.0447
  145SAPS   H4R15926   1.218   2.915   5.871 -1.2416 -0.2823  0.1673
  145SAPS   H4S15927   1.389   2.911   5.911  1.9893  2.6464 -0.4340
  145SAPS   C2515928   1.320   3.110   5.861 -0.3013 -0.2651 -0.5409
  145SAPS   H5R15929   1.345   3.196   5.926 -0.9972 -0.2959 -0.2185
  145SAPS   C2615930   1.267   3.157   5.749 -0.5464  0.6448 -0.6401
  145SAPS   H6R15931   1.291   3.256   5.708 -1.4276  0.6795 -1.0839
  145SAPS   C2715932   1.192   3.087   5.646 -0.3368  0.5748 -0.4592
  145SAPS   H7R15933   1.124   3.159   5.596 -2.0806 -0.1738  0.7322
  145SAPS   H7S15934   1.134   3.008   5.698 -1.5706  1.0717 -1.0417
  145SAPS   C2815935   1.283   3.024   5.545 -0.1944  0.2618  0.1484
  145SAPS   H8R15936   1.387   3.008   5.576 -0.4216  0.5007  1.0439
  145SAPS   C2915937   1.236   2.992   5.424 -0.2631 -0.6383 -0.2698
  145SAPS   H9R15938   1.299   2.938   5.352 -0.5028  0.4400 -1.3267
  145SAPS  C21015939   1.098   3.010   5.373  0.0325  0.1318  0.5111
  145SAPS  H10R15940   1.078   3.118   5.355  2.7658  0.4626 -1.1192
  145SAPS  H10S15941   1.022   2.969   5.442 -0.2927 -1.1352 -0.5581
  145SAPS  C21115942   1.089   2.946   5.229  0.3380 -0.0636 -0.5011
  145SAPS  H11R15943   1.030   2.853   5.228 -0.7835  0.6235 -0.3944
  145SAPS  C21215944   1.129   2.995   5.111 -0.1154  0.2453 -0.1235
  145SAPS  H12R15945   1.111   2.933   5.022 -2.0123 -0.5246  0.7475
  145SAPS  C21315946   1.203   3.125   5.092  0.2321  0.1425 -0.1148
  145SAPS  H13R15947   1.257   3.162   5.182  1.1233 -1.0364 -0.1409
  145SAPS  H13S15948   1.126   3.203   5.073 -1.1699 -0.7044  1.7747
  145SAPS  C21415949   1.298   3.111   4.974  0.6301  0.4333 -0.5671
  145SAPS  H14R15950   1.404   3.114   5.005 -0.0711  0.2650  2.0614
  145SAPS  C21515951   1.265   3.099   4.844 -0.2059 -0.3800 -0.3165
  145SAPS  H15R15952   1.341   3.080   4.767 -1.0663 -0.2016 -1.2368
  145SAPS  C21615953   1.127   3.097   4.796  0.2079 -0.4921 -0.0168
  145SAPS  H16R15954   1.053   3.123   4.875 -0.5186  0.2854 -0.9270
  145SAPS  H16S15955   1.103   2.999   4.749  0.0719  0.4060 -1.9245
  145SAPS  C21715956   1.096   3.197   4.681  0.2640  0.3068 -0.2822
  145SAPS  H17R15957   1.128   3.298   4.713  1.8322 -1.3575  4.1008
  145SAPS  H17S15958   0.986   3.211   4.673  0.5244  3.7110  0.6253
  145SAPS  C21815959   1.161   3.157   4.551  0.1967  0.4721  1.3901
  145SAPS  H18R15960   1.141   3.049   4.530 -0.5022  0.8236  0.1702
  145SAPS  H18S15961   1.271   3.166   4.566  0.2378  2.0720  0.3542
  145SAPS  C21915962   1.107   3.251   4.444  0.0884 -0.1176  0.2151
  145SAPS  H19R15963   1.174   3.245   4.356  1.6121  0.9801  1.2249
  145SAPS  H19S15964   1.108   3.354   4.486  0.9413  0.1091 -0.3511
  145SAPS  C22015965   0.961   3.218   4.395  0.7380  0.4489 -0.0105
  145SAPS  H20R15966   0.937   3.111   4.382 -1.4598  0.7327  1.3025
  145SAPS  H20S15967   0.948   3.269   4.297 -0.3640  1.9062  0.8535
  145SAPS  H20T15968   0.893   3.260   4.472  0.3806 -0.0255 -0.0658
  145SAPS   C3315969   1.882   3.240   5.857 -0.2041 -0.6048  0.3312
  145SAPS   H3X15970   1.932   3.142   5.871 -1.5725 -1.6116 -1.3431
  145SAPS   H3Y15971   1.931   3.269   5.761  0.8561 -0.0378  1.0300
  145SAPS   C3415972   1.731   3.225   5.822  0.1578 -0.1239  0.1838
  145SAPS   H4X15973   1.673   3.224   5.917 -1.4863 -1.5051 -0.7858
  145SAPS   H4Y15974   1.725   3.127   5.771  0.2025  0.3100 -0.6775
  145SAPS   C3515975   1.668   3.328   5.725  0.9123 -0.3840 -0.1002
  145SAPS   H5X15976   1.729   3.418   5.704 -0.0312  0.6526  1.4173
  145SAPS   H5Y15977   1.570   3.362   5.764 -0.2163 -0.0645 -2.9471
  145SAPS   C3615978   1.607   3.260   5.595 -0.4809 -0.8669 -0.0174
  145SAPS   H6X15979   1.534   3.323   5.539 -2.6421 -2.6510  0.6382
  145SAPS   H6Y15980   1.537   3.177   5.621 -1.6516  0.8031  2.5462
  145SAPS   C3715981   1.716   3.209   5.500  0.3870  0.2595 -0.1732
  145SAPS   H7X15982   1.784   3.140   5.554  0.8779  2.2199  1.8623
  145SAPS   H7Y15983   1.786   3.288   5.464 -0.3566  0.9415 -0.1592
  145SAPS   C3815984   1.650   3.144   5.376  0.0039 -0.0625 -0.4555
  145SAPS   H8X15985   1.593   3.053   5.405 -0.3441  0.1205 -0.5583
  145SAPS   H8Y15986   1.731   3.102   5.314 -1.3701 -1.5367 -1.3359
  145SAPS   C3915987   1.566   3.233   5.291 -0.5100 -0.2811 -0.3291
  145SAPS   H9X15988   1.475   3.270   5.343 -0.4967  1.6377 -1.5784
  145SAPS   H9Y15989   1.536   3.171   5.204  0.1326  0.9663 -1.4708
  145SAPS  C31015990   1.644   3.363   5.254 -0.6175 -1.1194  0.2313
  145SAPS  H10X15991   1.738   3.324   5.210  0.8114  0.6442  1.5233
  145SAPS  H10Y15992   1.671   3.419   5.347 -1.5347  0.0197 -0.1613
  145SAPS  C31115993   1.578   3.466   5.163 -0.5096  0.1621  0.0998
  145SAPS  H11X15994   1.645   3.554   5.162 -0.3945  0.0888 -1.5563
  145SAPS  H11Y15995   1.487   3.501   5.216 -0.7450 -1.2617  0.6991
  145SAPS  C31215996   1.546   3.413   5.020  0.0244  1.1156 -0.5745
  145SAPS  H12X15997   1.467   3.336   5.026  0.8097  0.3699  0.7168
  145SAPS  H12Y15998   1.640   3.374   4.976  0.5092 -0.3504  1.5947
  145SAPS  C31315999   1.475   3.524   4.938  0.6266 -0.8203  0.6786
  145SAPS  H13X16000   1.541   3.610   4.915 -1.9159  1.0494 -0.0050
  145SAPS  H13Y16001   1.385   3.572   4.982  0.7068 -0.5940  0.5974
  145SAPS  C31416002   1.446   3.479   4.793 -0.2524  0.3544  0.3245
  145SAPS  H14X16003   1.396   3.382   4.814 -0.4767 -0.0031 -1.6852
  145SAPS  H14Y16004   1.533   3.457   4.728 -2.5126 -0.8310 -2.4902
  145SAPS  C31516005   1.354   3.570   4.707 -0.1275  0.8368  0.1450
  145SAPS  H15X16006   1.396   3.673   4.712  0.4882  0.6212 -0.4004
  145SAPS  H15Y16007   1.253   3.574   4.754  0.1965  1.9637  0.7822
  145SAPS  C31616008   1.348   3.524   4.558 -0.2702 -0.9621  0.3024
  145SAPS  H16X16009   1.303   3.422   4.549  3.0786 -2.6737  1.4754
  145SAPS  H16Y16010   1.455   3.513   4.532 -0.3896 -1.9362  0.1824
  145SAPS  C31716011   1.272   3.625   4.467 -0.7392  0.1029  0.3234
  145SAPS  H17X16012   1.320   3.726   4.461 -0.6106  0.0985  1.2565
  145SAPS  H17Y16013   1.176   3.642   4.521 -2.0432  2.0944 -2.3491
  145SAPS  C31816014   1.250   3.571   4.331  0.1365  0.1146  0.5422
  145SAPS  H18X16015   1.171   3.494   4.319  0.0363  0.5992 -3.1595
  145SAPS  H18Y16016   1.335   3.533   4.269  0.0960 -0.5404  0.8851
  145SAPS  H18Z16017   1.212   3.657   4.272  0.1716 -0.2960 -0.0916
  146SAPS     N16018   4.847   5.117   7.017  0.0331 -0.1268 -0.4659
  146SAPS   HN116019   4.768   5.178   7.046 -1.9358 -0.9478 -3.5314
  146SAPS   HN216020   4.841   5.023   7.061  2.1788 -0.1978 -0.2510
  146SAPS   HN316021   4.941   5.157   7.034  0.8200 -2.0645  0.0776
  146SAPS   C1216022   4.841   5.090   6.865 -0.8470  0.2823 -0.0855
  146SAPS  H12A16023   4.939   5.052   6.837 -1.2102  0.2902 -1.4668
  146SAPS   C1316024   4.726   4.990   6.822 -1.1873  0.6055  0.0924
  146SAPS  O13A16025   4.638   4.962   6.905  0.2620  0.1285  0.0462
  146SAPS  O13B16026   4.709   4.967   6.695  0.0358 -0.0008 -0.3441
  146SAPS   C1116027   4.824   5.222   6.782 -0.8082  0.1967  0.3581
  146SAPS  H11A16028   4.731   5.276   6.810 -0.0651  4.3880 -3.9720
  146SAPS  H11B16029   4.815   5.193   6.674  0.3788 -0.0127  0.3030
  146SAPS     P16030   4.930   5.457   6.718 -0.0302  0.1219 -0.6142
  146SAPS   O1316031   4.794   5.502   6.705  0.2987  0.6675  0.2647
  146SAPS   O1416032   5.010   5.559   6.790  0.2135  0.0037  0.2652
  146SAPS   O1216033   4.932   5.320   6.805 -0.3021 -0.6661 -0.9406
  146SAPS   O1116034   4.986   5.411   6.584  0.1306  0.4968  0.4337
  146SAPS    C116035   5.114   5.366   6.560 -0.1376  0.3492 -0.2809
  146SAPS    HA16036   5.169   5.328   6.649 -0.1589  0.5343 -0.1891
  146SAPS    HB16037   5.106   5.283   6.486  0.4302  0.2660 -0.2564
  146SAPS    C216038   5.196   5.492   6.490  0.0485  0.1329 -0.2101
  146SAPS    HS16039   5.189   5.587   6.547 -1.6820 -0.8852  1.3597
  146SAPS   O2116040   5.137   5.502   6.365  0.3404 -0.5514 -0.6478
  146SAPS   C2116041   5.098   5.613   6.323  0.6249 -0.6034  0.0315
  146SAPS   O2216042   5.099   5.723   6.383  0.2901  0.0309 -0.3030
  146SAPS   C2216043   5.078   5.599   6.170  0.6480 -0.3135 -0.7167
  146SAPS   H2R16044   5.156   5.530   6.132 -0.2909 -0.7069 -2.0094
  146SAPS   H2S16045   4.978   5.554   6.154  0.2783  0.1149  0.2947
  146SAPS    C316046   5.350   5.468   6.473  0.4601  0.1674  0.2734
  146SAPS    HX16047   5.389   5.474   6.577 -0.6667 -0.3453  0.7446
  146SAPS    HY16048   5.392   5.553   6.415  0.3920 -1.2161 -1.9098
  146SAPS   O3116049   5.381   5.339   6.418  0.0793  0.2932 -0.6651
  146SAPS   C3116050   5.503   5.322   6.370  0.3658 -0.0842  0.5551
  146SAPS   O3216051   5.588   5.409   6.350 -0.0801  0.2181 -0.8383
  146SAPS   C3216052   5.515   5.178   6.330  0.2765 -0.2346 -1.0543
  146SAPS   H2X16053   5.420   5.160   6.275 -0.5836 -0.9795  0.5867
  146SAPS   H2Y16054   5.514   5.125   6.428 -1.9666  2.4092  0.5158
  146SAPS   C2316055   5.095   5.732   6.104 -0.3205 -0.2391  0.1663
  146SAPS   H3R16056   5.191   5.777   6.137 -0.9651  2.1926 -0.9890
  146SAPS   H3S16057   5.017   5.807   6.132 -2.2555 -2.2798  0.5771
  146SAPS   C2416058   5.095   5.720   5.953 -0.1459 -0.3015  1.1189
  146SAPS   H4R16059   5.168   5.646   5.915  0.6341  0.4630  1.0778
  146SAPS   H4S16060   5.131   5.814   5.906  0.1667 -1.6400 -1.4397
  146SAPS   C2516061   4.947   5.714   5.910  0.0555 -0.0156  0.5733
  146SAPS   H5R16062   4.879   5.767   5.978 -0.0892 -0.5499  0.8434
  146SAPS   C2616063   4.891   5.655   5.799  0.2698 -0.2163 -0.0267
  146SAPS   H6R16064   4.782   5.662   5.783 -0.3165 -3.7833  1.5269
  146SAPS   C2716065   4.959   5.571   5.698  0.6935  0.5326 -0.1225
  146SAPS   H7R16066   5.052   5.617   5.658  1.9166 -1.4806  0.2860
  146SAPS   H7S16067   4.889   5.564   5.611 -0.3388 -0.2585  0.7514
  146SAPS   C2816068   4.991   5.433   5.743 -0.8260 -0.0849 -0.0966
  146SAPS   H8R16069   5.036   5.429   5.843 -1.2763  0.6357  0.1492
  146SAPS   C2916070   4.974   5.320   5.677 -0.3204 -0.6296  0.6198
  146SAPS   H9R16071   5.010   5.226   5.722  0.6693 -0.8178 -0.5087
  146SAPS  C21016072   4.920   5.304   5.539 -0.0835 -0.4516  0.1273
  146SAPS  H10R16073   5.008   5.325   5.475  0.0848  0.5839  0.6688
  146SAPS  H10S16074   4.844   5.378   5.506 -0.3799 -0.1709  1.3673
  146SAPS  C21116075   4.868   5.160   5.526 -0.3900 -0.0893 -0.4572
  146SAPS  H11R16076   4.826   5.116   5.618 -1.7454  0.5671 -0.7341
  146SAPS  C21216077   4.886   5.080   5.414  0.0178  0.2562 -0.3366
  146SAPS  H12R16078   4.845   4.978   5.417  0.9932 -0.1423  1.7364
  146SAPS  C21316079   4.940   5.135   5.286 -0.0327 -0.1319  0.3279
  146SAPS  H13R16080   5.050   5.118   5.289  0.0370  0.2898  0.2675
  146SAPS  H13S16081   4.932   5.246   5.286 -0.9329 -0.1825  0.7969
  146SAPS  C21416082   4.882   5.076   5.156  0.2608  0.8625 -1.0870
  146SAPS  H14R16083   4.854   4.971   5.170 -0.5462  0.7644 -3.1119
  146SAPS  C21516084   4.842   5.137   5.042  0.1017  0.0378 -0.0743
  146SAPS  H15R16085   4.791   5.086   4.959  1.7584  0.8325 -1.6515
  146SAPS  C21616086   4.867   5.285   5.017 -0.5153 -0.1244 -0.2660
  146SAPS  H16R16087   4.944   5.332   5.082  1.0544 -2.4077 -0.3422
  146SAPS  H16S16088   4.772   5.341   5.032  0.3173  2.0570 -2.5509
  146SAPS  C21716089   4.926   5.311   4.883  0.7406  0.8246 -0.4372
  146SAPS  H17R16090   4.854   5.274   4.807 -1.0630 -1.0940  2.0376
  146SAPS  H17S16091   5.011   5.240   4.877 -0.1734 -0.4129  0.5969
  146SAPS  C21816092   4.974   5.456   4.863 -0.9472  0.0847 -0.4742
  146SAPS  H18R16093   5.055   5.466   4.939 -0.7819 -0.7792 -0.5214
  146SAPS  H18S16094   4.891   5.526   4.885  0.5685  1.2356  1.9746
  146SAPS  C21916095   5.033   5.475   4.724  0.5777 -0.2842  0.2390
  146SAPS  H19R16096   4.964   5.409   4.667  1.0613 -0.7816  0.2267
  146SAPS  H19S16097   5.136   5.435   4.711  1.2293  0.5514  2.3876
  146SAPS  C22016098   5.024   5.619   4.680  0.4006  0.2741 -0.5354
  146SAPS  H20R16099   4.949   5.677   4.737  1.1341  1.4502 -0.7330
  146SAPS  H20S16100   5.011   5.649   4.574 -1.0962 -0.3611 -0.5621
  146SAPS  H20T16101   5.122   5.665   4.705  0.0112  0.2232  1.2161
  146SAPS   C3316102   5.634   5.138   6.242 -0.3572 -0.1254 -0.4095
  146SAPS   H3X16103   5.724   5.185   6.287  0.9288 -3.6891  1.1502
  146SAPS   H3Y16104   5.621   5.177   6.139  0.3050 -0.4131 -0.6143
  146SAPS   C3416105   5.657   4.985   6.240  0.3939 -0.0826 -0.0114
  146SAPS   H4X16106   5.556   4.940   6.232 -0.3946  1.4916  0.6730
  146SAPS   H4Y16107   5.697   4.959   6.340  1.6794 -3.2149 -1.1879
  146SAPS   C3516108   5.754   4.937   6.131 -0.2768 -0.5116 -0.1210
  146SAPS   H5X16109   5.776   4.828   6.121 -2.4570 -0.8679 -1.8492
  146SAPS   H5Y16110   5.853   4.987   6.135 -0.4530  0.3229 -3.3576
  146SAPS   C3616111   5.690   4.972   5.993  0.1725  0.9168  0.0450
  146SAPS   H6X16112   5.730   5.067   5.953  2.0930 -0.2976 -1.0995
  146SAPS   H6Y16113   5.580   4.976   6.004  0.2943  0.5681  1.5705
  146SAPS   C3716114   5.736   4.865   5.891 -0.0087  0.2838 -0.8791
  146SAPS   H7X16115   5.683   4.769   5.910  0.3264  0.0132 -1.2715
  146SAPS   H7Y16116   5.845   4.843   5.902  0.2487  1.6195 -0.6434
  146SAPS   C3816117   5.712   4.917   5.747  0.2758 -0.0992 -0.1087
  146SAPS   H8X16118   5.779   5.006   5.744  2.3094 -1.5625 -0.6637
  146SAPS   H8Y16119   5.604   4.932   5.725 -0.3969 -2.8192  0.8954
  146SAPS   C3916120   5.769   4.818   5.639 -0.1139 -1.0001 -0.0189
  146SAPS   H9X16121   5.859   4.780   5.691  0.2653  1.3521  1.1325
  146SAPS   H9Y16122   5.803   4.877   5.551  1.1790  1.0123  1.7515
  146SAPS  C31016123   5.656   4.720   5.596  0.4261  0.1511 -0.2149
  146SAPS  H10X16124   5.580   4.776   5.537  1.2627 -1.3896 -2.9511
  146SAPS  H10Y16125   5.600   4.695   5.688 -2.2427  1.0187 -1.5126
  146SAPS  C31116126   5.717   4.594   5.524 -0.3535  0.1640  0.3345
  146SAPS  H11X16127   5.654   4.503   5.535  1.5320 -1.2718 -0.2061
  146SAPS  H11Y16128   5.814   4.573   5.573  0.7828  0.4347 -1.6850
  146SAPS  C31216129   5.727   4.614   5.374  0.4128  0.3621 -0.0362
  146SAPS  H12X16130   5.762   4.719   5.359  3.3359 -0.0324  2.9490
  146SAPS  H12Y16131   5.624   4.621   5.332  0.9770  1.6705 -1.2763
  146SAPS  C31316132   5.817   4.511   5.300 -0.6127  0.1480 -0.4562
  146SAPS  H13X16133   5.923   4.527   5.328  0.6939 -4.4630 -1.9285
  146SAPS  H13Y16134   5.810   4.529   5.191 -0.6530 -0.5709 -0.5761
  146SAPS  C31416135   5.795   4.366   5.329  0.4895 -0.3903  0.6064
  146SAPS  H14X16136   5.818   4.346   5.436  1.1191  1.6655  0.8994
  146SAPS  H14Y16137   5.871   4.312   5.269 -0.3784  0.1261 -1.0270
  146SAPS  C31516138   5.656   4.321   5.286  0.1227  0.3799 -0.0582
  146SAPS  H15X16139   5.635   4.352   5.181 -1.3889 -1.2638 -0.2853
  146SAPS  H15Y16140   5.583   4.377   5.349  1.1830  0.9468  0.6987
  146SAPS  C31616141   5.642   4.170   5.316  0.0776  0.3848  0.2119
  146SAPS  H16X16142   5.541   4.142   5.278  1.1477 -2.4541 -0.8227
  146SAPS  H16Y16143   5.642   4.141   5.423 -0.1123  0.6412  0.2809
  146SAPS  C31716144   5.737   4.079   5.230 -0.4538  0.2490 -0.4229
  146SAPS  H17X16145   5.723   3.977   5.272 -1.4272  0.9752  1.1183
  146SAPS  H17Y16146   5.842   4.102   5.255 -0.2362 -2.3435  1.5062
  146SAPS  C31816147   5.728   4.084   5.079  0.4644  0.0723  0.5607
  146SAPS  H18X16148   5.796   4.013   5.028  1.1258  0.6880  0.5709
  146SAPS  H18Y16149   5.764   4.184   5.045  1.1624  0.0492  1.2202
  146SAPS  H18Z16150   5.621   4.068   5.053  0.9636 -0.3553 -1.3855
  147SAPS     N16151   0.716   1.230   7.142 -0.6329  0.1772  0.3757
  147SAPS   HN116152   0.713   1.312   7.206  0.1529 -0.7600  1.6328
  147SAPS   HN216153   0.652   1.253   7.063 -1.5413  0.6687  1.2303
  147SAPS   HN316154   0.678   1.143   7.185  2.3041 -1.1179  0.5460
  147SAPS   C1216155   0.855   1.212   7.083 -0.9873  0.2456 -0.1265
  147SAPS  H12A16156   0.864   1.286   7.004  1.0121 -0.8283 -0.9676
  147SAPS   C1316157   0.977   1.235   7.172 -0.0689 -0.2616 -0.3975
  147SAPS  O13A16158   0.955   1.283   7.285 -0.3092 -0.8258 -0.2584
  147SAPS  O13B16159   1.091   1.217   7.126  0.1259  0.3486  0.0080
  147SAPS   C1116160   0.870   1.066   7.023 -0.0787  0.0064  0.7577
  147SAPS  H11A16161   0.841   0.996   7.105 -0.3783 -1.6378 -0.6990
  147SAPS  H11B16162   0.972   1.039   6.987  0.4919  3.2837 -0.4060
  147SAPS     P16163   0.791   0.989   6.775  0.0284 -0.2037 -0.0697
  147SAPS   O1316164   0.920   0.925   6.754 -0.2488  0.6096  0.2210
  147SAPS   O1416165   0.663   0.921   6.747  0.0227  0.5909 -0.1615
  147SAPS   O1216166   0.775   1.043   6.919  0.4202 -0.0244 -0.2776
  147SAPS   O1116167   0.793   1.128   6.692  0.0795 -0.0410  0.0021
  147SAPS    C116168   0.903   1.222   6.689 -0.6695 -0.5135 -0.3094
  147SAPS    HA16169   0.870   1.325   6.715 -0.6158 -0.5451 -0.1122
  147SAPS    HB16170   0.969   1.205   6.776 -1.7142 -1.9742  0.2262
  147SAPS    C216171   0.989   1.219   6.556 -0.5868  0.1335 -0.2353
  147SAPS    HS16172   1.067   1.298   6.560 -0.9272  0.4760 -0.4413
  147SAPS   O2116173   0.918   1.235   6.442 -0.1005 -0.4580  0.6720
  147SAPS   C2116174   0.881   1.358   6.410  0.5670  0.2639 -0.2756
  147SAPS   O2216175   0.877   1.461   6.479  0.3420  0.1159  0.1401
  147SAPS   C2216176   0.818   1.341   6.277  0.1938 -0.1921  0.0646
  147SAPS   H2R16177   0.754   1.251   6.273  0.7396 -0.6293  1.0210
  147SAPS   H2S16178   0.742   1.421   6.260 -0.3128 -0.8812 -1.0908
  147SAPS    C316179   1.066   1.081   6.542 -0.3593 -0.1521  0.4105
  147SAPS    HX16180   0.978   1.014   6.531 -1.0703  0.6774  0.9181
  147SAPS    HY16181   1.118   1.063   6.639 -0.8066 -0.3655  0.6124
  147SAPS   O3116182   1.166   1.083   6.436  0.2835  0.3307  0.3573
  147SAPS   C3116183   1.207   0.956   6.425  0.4831  0.1493  0.8903
  147SAPS   O3216184   1.173   0.866   6.499  0.2761  0.1868 -0.3212
  147SAPS   C3216185   1.309   0.954   6.311 -0.3124  0.0884 -1.0541
  147SAPS   H2X16186   1.396   0.890   6.335  0.1121  0.6916 -0.9625
  147SAPS   H2Y16187   1.357   1.054   6.305 -0.3812  0.4286  2.1589
  147SAPS   C2316188   0.923   1.339   6.166  0.6525  0.1536 -0.1383
  147SAPS   H3R16189   0.988   1.249   6.177  0.8966  0.4138  0.5719
  147SAPS   H3S16190   0.986   1.430   6.166  0.0926  0.5584  0.9017
  147SAPS   C2416191   0.864   1.328   6.021  0.0183 -0.3449  0.2656
  147SAPS   H4R16192   0.941   1.310   5.943 -1.9598 -2.5023 -1.3378
  147SAPS   H4S16193   0.819   1.422   5.983  1.5013  0.5701  0.6982
  147SAPS   C2516194   0.765   1.209   6.022  0.2368  0.3126 -0.3738
  147SAPS   H5R16195   0.813   1.121   6.068  0.6798  0.5442 -0.3945
  147SAPS   C2616196   0.639   1.196   5.969  0.2898 -0.1309 -0.4935
  147SAPS   H6R16197   0.587   1.100   5.962  0.6903 -0.5272  1.4890
  147SAPS   C2716198   0.574   1.312   5.898 -0.1932  0.1697 -0.1356
  147SAPS   H7R16199   0.653   1.383   5.865 -0.0477 -0.5132 -1.2945
  147SAPS   H7S16200   0.504   1.370   5.962 -0.8127  0.1186 -0.7603
  147SAPS   C2816201   0.486   1.261   5.784 -0.2772  0.2561  0.3856
  147SAPS   H8R16202   0.405   1.198   5.826 -2.0484  1.0637 -1.6461
  147SAPS   C2916203   0.489   1.288   5.655  0.1412 -0.0624 -0.1084
  147SAPS   H9R16204   0.414   1.241   5.589 -1.9371  2.1132  0.5700
  147SAPS  C21016205   0.573   1.395   5.592 -0.5885 -0.5316  0.5937
  147SAPS  H10R16206   0.626   1.451   5.672 -1.6603 -1.0474  1.6937
  147SAPS  H10S16207   0.504   1.466   5.543  0.6765 -0.0434 -0.5565
  147SAPS  C21116208   0.683   1.358   5.502  0.0370 -0.2090 -0.1745
  147SAPS  H11R16209   0.784   1.373   5.542 -0.0937  1.0711 -0.2733
  147SAPS  C21216210   0.661   1.295   5.381  0.2815  0.2475  0.3397
  147SAPS  H12R16211   0.755   1.271   5.328 -0.6881  1.0228 -1.8705
  147SAPS  C21316212   0.530   1.257   5.314 -0.1173  0.2588 -0.6860
  147SAPS  H13R16213   0.544   1.263   5.204 -1.2623  3.2441 -0.7607
  147SAPS  H13S16214   0.452   1.333   5.337  0.5975  1.0966 -0.9495
  147SAPS  C21416215   0.485   1.124   5.362  0.2831  0.6395  0.9964
  147SAPS  H14R16216   0.567   1.052   5.376  0.3434  0.0126 -1.9467
  147SAPS  C21516217   0.356   1.089   5.361 -0.3242  0.3914  0.4067
  147SAPS  H15R16218   0.330   0.989   5.399 -1.9976  0.7914  0.3759
  147SAPS  C21616219   0.234   1.172   5.322 -0.2108 -0.4636  0.2362
  147SAPS  H16R16220   0.167   1.108   5.260 -0.4900 -0.5573  0.6332
  147SAPS  H16S16221   0.260   1.257   5.256 -1.1162 -0.0268  0.4206
  147SAPS  C21716222   0.158   1.223   5.451 -0.3650  0.3349  0.3837
  147SAPS  H17R16223   0.069   1.282   5.420 -1.0236 -1.0334 -0.4374
  147SAPS  H17S16224   0.209   1.304   5.506 -2.1507 -0.3216  3.2001
  147SAPS  C21816225   0.104   1.114   5.551  0.2454 -0.1605  0.2443
  147SAPS  H18R16226   0.188   1.061   5.600  0.2451  2.9508  4.2090
  147SAPS  H18S16227   0.041   1.047   5.489 -0.7083 -0.6489  1.6563
  147SAPS  C21916228   0.021   1.180   5.669  0.1659  0.4254  0.2712
  147SAPS  H19R16229  -0.009   1.092   5.729  1.1166 -2.4726 -3.1693
  147SAPS  H19S16230  -0.069   1.220   5.617  0.8081 -0.9404 -2.0163
  147SAPS  C22016231   0.081   1.291   5.752  0.6192 -0.0269  0.1228
  147SAPS  H20R16232   0.188   1.267   5.772  0.8797  1.2825  0.4533
  147SAPS  H20S16233   0.024   1.302   5.847  0.4163 -0.9986  0.1190
  147SAPS  H20T16234   0.078   1.381   5.687  1.4677 -0.2950 -0.3119
  147SAPS   C3316235   1.245   0.914   6.179 -0.0919 -0.5442 -0.1303
  147SAPS   H3X16236   1.165   0.983   6.146 -1.1292 -1.0662  1.1873
  147SAPS   H3Y16237   1.197   0.814   6.183 -0.9243 -0.1158  1.3244
  147SAPS   C3416238   1.347   0.915   6.061  0.6402  0.2340 -0.1090
  147SAPS   H4X16239   1.418   0.831   6.078 -1.4889 -1.7820 -0.6684
  147SAPS   H4Y16240   1.412   1.006   6.058  0.9615 -0.0062 -2.0350
  147SAPS   C3516241   1.280   0.905   5.932  0.8083 -0.6518  0.8502
  147SAPS   H5X16242   1.222   1.000   5.926 -0.8029 -1.6518 -0.5634
  147SAPS   H5Y16243   1.220   0.811   5.921  0.2810 -0.0607 -2.6206
  147SAPS   C3616244   1.375   0.902   5.808 -0.3963 -0.4536  0.3410
  147SAPS   H6X16245   1.435   0.810   5.824  1.0210  0.4536  0.3218
  147SAPS   H6Y16246   1.443   0.988   5.821 -1.5152  0.7785 -1.4348
  147SAPS   C3716247   1.299   0.899   5.680  0.4604 -0.2923 -0.4976
  147SAPS   H7X16248   1.230   0.985   5.695  1.6788  0.2313  3.1990
  147SAPS   H7Y16249   1.227   0.815   5.672  0.1174 -0.1868  1.1095
  147SAPS   C3816250   1.393   0.918   5.564  0.0780  0.5401  0.6883
  147SAPS   H8X16251   1.437   0.817   5.554  0.0135  0.6830 -1.8650
  147SAPS   H8Y16252   1.474   0.992   5.583  2.5208 -1.5641 -0.9068
  147SAPS   C3916253   1.318   0.950   5.432 -0.7291  0.2246 -0.0720
  147SAPS   H9X16254   1.268   1.049   5.444  1.5000  1.2381  1.5196
  147SAPS   H9Y16255   1.244   0.869   5.413 -0.2370 -0.4530  0.8236
  147SAPS  C31016256   1.415   0.958   5.315  0.3534  0.5301 -0.6034
  147SAPS  H10X16257   1.482   0.870   5.305  0.3177  0.2093  1.5053
  147SAPS  H10Y16258   1.486   1.043   5.328 -1.6730  2.7176 -2.8523
  147SAPS  C31116259   1.350   0.993   5.180  0.0781 -0.3156  0.4339
  147SAPS  H11X16260   1.271   1.067   5.205  2.0170  1.2041  2.5046
  147SAPS  H11Y16261   1.306   0.898   5.143  0.1678 -0.4294  0.6155
  147SAPS  C31216262   1.447   1.057   5.080 -0.4219  0.6778  0.2997
  147SAPS  H12X16263   1.478   1.161   5.105 -0.2217  1.0959 -1.5383
  147SAPS  H12Y16264   1.404   1.067   4.978 -0.0988  2.7609  0.3225
  147SAPS  C31316265   1.584   0.984   5.065  0.6332 -0.5925  0.8154
  147SAPS  H13X16266   1.562   0.877   5.086 -1.3475 -0.8138 -1.8917
  147SAPS  H13Y16267   1.662   1.022   5.135  0.1755  1.3671  0.3232
  147SAPS  C31416268   1.623   0.988   4.915  0.4434 -0.2198 -0.2033
  147SAPS  H14X16269   1.581   1.079   4.868 -1.2393 -0.3646  0.9529
  147SAPS  H14Y16270   1.580   0.894   4.874  2.7169 -0.3723 -2.4878
  147SAPS  C31516271   1.773   0.996   4.897  0.7426 -0.5579  0.7163
  147SAPS  H15X16272   1.812   0.895   4.923 -2.2146 -1.0644  4.0291
  147SAPS  H15Y16273   1.807   1.072   4.970 -0.6284  1.5390 -0.7430
  147SAPS  C31616274   1.824   1.019   4.751  0.3450 -0.0939 -0.6423
  147SAPS  H16X16275   1.766   1.103   4.709  2.1417  0.7265 -1.6097
  147SAPS  H16Y16276   1.792   0.936   4.684 -1.1263  0.1058 -0.2074
  147SAPS  C31716277   1.974   1.044   4.748 -0.7360 -0.0377  0.2361
  147SAPS  H17X16278   2.022   0.964   4.809 -0.6150 -1.2878 -1.4324
  147SAPS  H17Y16279   1.993   1.148   4.781  0.1731 -0.6591  1.7983
  147SAPS  C31816280   2.032   1.022   4.607 -0.2693 -0.5915 -0.2884
  147SAPS  H18X16281   2.143   1.015   4.609 -0.3613 -2.5552 -0.0321
  147SAPS  H18Y16282   2.012   1.114   4.548 -1.4748  1.1827  2.6265
  147SAPS  H18Z16283   1.994   0.930   4.559 -1.3783  0.2877 -1.1562
  148SAPS     N16284   0.626   4.225   6.593 -0.1852  0.7619  0.4811
  148SAPS   HN116285   0.562   4.295   6.551 -0.6736 -0.0670 -0.1821
  148SAPS   HN216286   0.669   4.162   6.521 -1.2764 -1.2573  1.5149
  148SAPS   HN316287   0.574   4.161   6.655 -1.1333  0.0543 -0.9804
  148SAPS   C1216288   0.737   4.292   6.671 -0.5376  0.3369 -0.8246
  148SAPS  H12A16289   0.688   4.354   6.745 -1.1971 -1.8368  0.6325
  148SAPS   C1316290   0.818   4.185   6.755  0.0404  0.0849 -0.5377
  148SAPS  O13A16291   0.800   4.067   6.741  0.0597  0.2502 -0.5635
  148SAPS  O13B16292   0.924   4.227   6.814  0.2474 -0.2942  0.4703
  148SAPS   C1116293   0.845   4.362   6.582  0.0978  0.4597 -0.4643
  148SAPS  H11A16294   0.884   4.292   6.504 -0.8150  0.7988 -1.2468
  148SAPS  H11B16295   0.936   4.383   6.642 -0.4311 -2.0493  1.3594
  148SAPS     P16296   0.755   4.515   6.379 -0.0327  0.1287  0.4771
  148SAPS   O1316297   0.626   4.588   6.378  0.1681  0.2051  0.2028
  148SAPS   O1416298   0.873   4.586   6.319  0.8454 -0.5591 -0.3620
  148SAPS   O1216299   0.795   4.484   6.528  0.0439  0.0776 -0.2642
  148SAPS   O1116300   0.738   4.371   6.323 -0.1011 -0.2633  0.0985
  148SAPS    C116301   0.849   4.310   6.246 -0.0722  0.3192  0.2908
  148SAPS    HA16302   0.944   4.365   6.263  0.7420 -0.8049 -0.4389
  148SAPS    HB16303   0.865   4.203   6.272 -0.2870  0.2142  0.0029
  148SAPS    C216304   0.806   4.287   6.100 -0.1489 -0.4385  0.1146
  148SAPS    HS16305   0.886   4.239   6.040 -0.4847 -0.2601 -0.4891
  148SAPS   O2116306   0.786   4.420   6.044  0.8798  0.1494 -0.0099
  148SAPS   C2116307   0.895   4.483   6.002 -0.2728 -0.6973  0.1222
  148SAPS   O2216308   1.008   4.452   6.018 -0.5118 -0.2920  0.0133
  148SAPS   C2216309   0.852   4.605   5.924 -0.3229 -0.1998  0.3374
  148SAPS   H2R16310   0.933   4.613   5.849 -1.4411 -1.1057 -1.0096
  148SAPS   H2S16311   0.755   4.587   5.874 -1.8601  4.9696  0.8742
  148SAPS    C316312   0.676   4.210   6.078 -0.1753  0.2561  0.0426
  148SAPS    HX16313   0.596   4.236   6.149  0.7450  1.4936  0.6611
  148SAPS    HY16314   0.698   4.105   6.109 -1.5116  0.5696  2.2391
  148SAPS   O3116315   0.641   4.204   5.936 -1.0732  0.1901 -0.1811
  148SAPS   C3116316   0.559   4.304   5.907 -0.0227 -0.0748  0.7281
  148SAPS   O3216317   0.480   4.352   5.983  0.4755  0.2115 -0.1855
  148SAPS   C3216318   0.564   4.335   5.752  0.0418 -0.5114 -0.2304
  148SAPS   H2X16319   0.533   4.250   5.688  2.8156 -2.9973  1.5034
  148SAPS   H2Y16320   0.671   4.355   5.731 -0.2934  0.4220 -1.1667
  148SAPS   C2316321   0.829   4.715   6.030 -0.4347 -0.5601 -0.0976
  148SAPS   H3R16322   0.915   4.713   6.100 -0.8733 -1.7093  0.4362
  148SAPS   H3S16323   0.735   4.688   6.083 -0.6821 -0.1664 -0.3335
  148SAPS   C2416324   0.818   4.859   5.967  0.2346  0.4253  0.3088
  148SAPS   H4R16325   0.793   4.933   6.045  1.3668  1.4588 -0.2776
  148SAPS   H4S16326   0.733   4.858   5.896  0.2335 -0.6295  0.3003
  148SAPS   C2516327   0.950   4.890   5.893  0.3213  0.4272 -0.0552
  148SAPS   H5R16328   1.044   4.876   5.948 -0.5858  2.0639  2.0287
  148SAPS   C2616329   0.961   4.926   5.761  0.3387  0.4381  0.1383
  148SAPS   H6R16330   1.063   4.929   5.720  1.5906 -0.7008  2.8957
  148SAPS   C2716331   0.859   4.940   5.655  1.0594  0.6677  0.1095
  148SAPS   H7R16332   0.756   4.914   5.687  1.5384  0.2403  1.3268
  148SAPS   H7S16333   0.881   4.854   5.588 -0.4269 -0.5182  1.0705
  148SAPS   C2816334   0.862   5.076   5.588  0.3310 -1.0911  0.2293
  148SAPS   H8R16335   0.895   5.158   5.653  0.4637 -0.6431 -0.3860
  148SAPS   C2916336   0.839   5.111   5.456  0.1359  0.0824  0.2079
  148SAPS   H9R16337   0.850   5.213   5.417 -0.2479 -0.4381 -1.3319
  148SAPS  C21016338   0.780   5.017   5.352 -0.3702 -0.5082 -0.3854
  148SAPS  H10R16339   0.716   5.082   5.289  0.2513  0.8704  0.3559
  148SAPS  H10S16340   0.697   4.961   5.399 -0.2068  0.3353  0.9503
  148SAPS  C21116341   0.879   4.936   5.273 -0.2905  0.5576  0.5654
  148SAPS  H11R16342   0.978   4.927   5.320 -0.5577 -0.4317  0.9627
  148SAPS  C21216343   0.860   4.882   5.149 -0.0386 -0.7754 -0.2720
  148SAPS  H12R16344   0.947   4.840   5.095 -0.0545  0.4942 -1.3325
  148SAPS  C21316345   0.731   4.889   5.075  0.0966 -0.1579  0.6880
  148SAPS  H13R16346   0.738   4.958   4.988 -3.3581 -0.8752 -0.3001
  148SAPS  H13S16347   0.656   4.935   5.144  2.5907  4.0561  0.9950
  148SAPS  C21416348   0.686   4.752   5.030 -0.7451  0.5616  0.1828
  148SAPS  H14R16349   0.740   4.725   4.938 -0.0920  4.5995 -0.8388
  148SAPS  C21516350   0.576   4.686   5.067 -0.8686 -0.2248 -0.3253
  148SAPS  H15R16351   0.559   4.588   5.020  0.5847 -0.7782  0.2382
  148SAPS  C21616352   0.480   4.720   5.172 -0.2731 -0.0983 -0.1904
  148SAPS  H16R16353   0.381   4.704   5.123  0.4289  2.4599 -2.6939
  148SAPS  H16S16354   0.478   4.828   5.201 -2.1936 -0.1927  0.1745
  148SAPS  C21716355   0.483   4.641   5.299  0.2380  0.1132 -0.3795
  148SAPS  H17R16356   0.473   4.531   5.290 -0.2012 -0.0453  1.5221
  148SAPS  H17S16357   0.392   4.672   5.355 -0.9302  1.1441 -2.7347
  148SAPS  C21816358   0.607   4.670   5.393  0.1146  0.3414  0.0961
  148SAPS  H18R16359   0.580   4.719   5.489  3.3803  1.1863  0.6891
  148SAPS  H18S16360   0.666   4.748   5.340 -1.0346  0.0772 -1.6806
  148SAPS  C21916361   0.699   4.547   5.421  0.0319 -0.1879  0.6042
  148SAPS  H19R16362   0.746   4.541   5.320 -1.0886 -0.0003  0.0567
  148SAPS  H19S16363   0.638   4.458   5.447 -0.9161  0.7068  1.5353
  148SAPS  C22016364   0.804   4.566   5.528 -0.3503 -0.4653 -0.6018
  148SAPS  H20R16365   0.874   4.646   5.495  1.3745 -1.6495  0.0305
  148SAPS  H20S16366   0.857   4.472   5.551  0.1739  0.1230  0.7017
  148SAPS  H20T16367   0.761   4.605   5.623 -1.2384  0.5601 -1.3947
  148SAPS   C3316368   0.472   4.449   5.717  0.6071 -0.1272 -0.4781
  148SAPS   H3X16369   0.497   4.491   5.618  1.0681 -0.8121 -0.6537
  148SAPS   H3Y16370   0.471   4.543   5.777 -2.2575  1.2723 -2.4553
  148SAPS   C3416371   0.326   4.411   5.704  0.2020 -0.9248 -0.2140
  148SAPS   H4X16372   0.273   4.395   5.801 -1.2197  0.3314 -0.7479
  148SAPS   H4Y16373   0.315   4.321   5.639  0.5211 -1.2957  0.2372
  148SAPS   C3516374   0.250   4.523   5.629  0.4810  0.1869 -0.5252
  148SAPS   H5X16375   0.300   4.550   5.533  0.4554  0.9451 -0.3266
  148SAPS   H5Y16376   0.254   4.614   5.692  0.7625 -0.2028  0.0348
  148SAPS   C3616377   0.101   4.485   5.605  0.4001 -0.0391  0.3500
  148SAPS   H6X16378   0.052   4.469   5.704 -0.2592 -2.2833 -0.2859
  148SAPS   H6Y16379   0.101   4.382   5.565 -0.7563 -0.4232  1.2800
  148SAPS   C3716380   0.022   4.576   5.506  0.1381  0.2435  0.2329
  148SAPS   H7X16381   0.020   4.679   5.548 -2.5002  0.1791  0.4285
  148SAPS   H7Y16382  -0.085   4.547   5.503  0.0281  0.3787  1.8328
  148SAPS   C3816383   0.078   4.564   5.362  0.8085 -0.5341  0.3498
  148SAPS   H8X16384   0.079   4.458   5.329 -1.7127 -0.5625  0.1262
  148SAPS   H8Y16385   0.181   4.605   5.366  0.9335 -0.9054  1.3189
  148SAPS   C3916386  -0.010   4.643   5.264  0.1177  0.3299 -0.3581
  148SAPS   H9X16387  -0.007   4.752   5.282 -2.1885  0.6675 -1.6887
  148SAPS   H9Y16388  -0.115   4.608   5.260 -0.3971  1.7162  0.3300
  148SAPS  C31016389   0.049   4.621   5.124 -0.0584 -0.0867  0.0854
  148SAPS  H10X16390   0.080   4.515   5.127  0.6275  0.1277  2.5681
  148SAPS  H10Y16391   0.136   4.687   5.105 -0.2378 -0.1206 -0.8908
  148SAPS  C31116392  -0.055   4.653   5.017 -0.3943 -0.1133  0.3118
  148SAPS  H11X16393  -0.090   4.755   5.045 -1.5269 -0.9978  2.3108
  148SAPS  H11Y16394  -0.138   4.581   5.034 -0.3142 -0.7401 -1.6920
  148SAPS  C31216395  -0.006   4.655   4.876 -0.1714  0.4232  0.4602
  148SAPS  H12X16396   0.093   4.703   4.859 -1.9777  3.2594 -4.1367
  148SAPS  H12Y16397  -0.083   4.712   4.820  1.9688  1.9438 -1.1265
  148SAPS  C31316398  -0.008   4.513   4.830 -0.0634 -0.1329 -0.0001
  148SAPS  H13X16399  -0.108   4.471   4.853  0.9047 -2.2714  0.5847
  148SAPS  H13Y16400   0.072   4.460   4.886  0.6475  0.8216 -0.0966
  148SAPS  C31416401   0.037   4.495   4.686  0.5688  0.0052  0.1673
  148SAPS  H14X16402   0.146   4.517   4.681 -0.1039  5.1122  1.7621
  148SAPS  H14Y16403  -0.014   4.573   4.625  0.1760 -2.1037 -2.3748
  148SAPS  C31516404   0.012   4.351   4.637  0.1424  0.0842 -0.5030
  148SAPS  H15X16405  -0.093   4.321   4.651 -0.2575  1.1927 -0.9842
  148SAPS  H15Y16406   0.087   4.279   4.676  0.3517  0.4183 -0.2752
  148SAPS  C31616407   0.033   4.340   4.481  0.0414 -0.1086 -0.8098
  148SAPS  H16X16408   0.046   4.234   4.453 -3.2956 -0.9247  0.2270
  148SAPS  H16Y16409   0.121   4.406   4.464  0.1427  0.1524  0.5991
  148SAPS  C31716410  -0.089   4.406   4.411  0.1870  0.4052 -0.4191
  148SAPS  H17X16411  -0.041   4.503   4.385  0.4431  0.5183  0.4447
  148SAPS  H17Y16412  -0.174   4.416   4.481  0.0570 -2.3841 -0.0640
  148SAPS  C31816413  -0.132   4.339   4.285  0.4407  0.3908  0.2245
  148SAPS  H18X16414  -0.193   4.254   4.322  2.4310 -1.2261 -0.0164
  148SAPS  H18Y16415  -0.041   4.309   4.229  1.5662  1.6907  1.2753
  148SAPS  H18Z16416  -0.197   4.416   4.239 -1.3980  0.2591  2.4104
  149SAPS     N16417   0.708   5.809   6.991  0.0776  0.4318 -0.4452
  149SAPS   HN116418   0.738   5.908   6.977  0.2898  0.3199 -0.7861
  149SAPS   HN216419   0.767   5.770   7.067 -0.3979  0.5453 -0.0115
  149SAPS   HN316420   0.709   5.754   6.903 -1.3177 -0.7568  0.2633
  149SAPS   C1216421   0.569   5.807   7.040  0.6747  0.4370  0.1540
  149SAPS  H12A16422   0.511   5.765   6.960  0.2860  0.4185  0.4435
  149SAPS   C1316423   0.551   5.725   7.171 -0.3791  0.6106  0.3983
  149SAPS  O13A16424   0.648   5.666   7.219  0.3532 -0.1216 -0.4159
  149SAPS  O13B16425   0.432   5.706   7.218  0.2062 -0.0227  0.0406
  149SAPS   C1116426   0.539   5.953   7.068  0.4417 -0.0990 -0.0925
  149SAPS  H11A16427   0.621   5.989   7.135  0.8920 -0.1695 -0.5980
  149SAPS  H11B16428   0.439   5.970   7.114  0.6606 -0.5695  0.5749
  149SAPS     P16429   0.437   6.060   6.853  0.3972  0.5135  0.1123
  149SAPS   O1316430   0.318   5.980   6.886 -0.1119 -0.1899  0.6569
  149SAPS   O1416431   0.421   6.206   6.852  0.1852 -0.2064 -0.0330
  149SAPS   O1216432   0.563   6.034   6.956 -0.2688  0.3945  0.2584
  149SAPS   O1116433   0.501   5.993   6.723 -0.0615  0.1005 -0.7990
  149SAPS    C116434   0.615   6.054   6.672 -0.3941 -0.6156  0.1771
  149SAPS    HA16435   0.673   6.115   6.746 -3.2253  0.2132  1.8742
  149SAPS    HB16436   0.677   5.975   6.624 -0.3193 -1.4641  1.6115
  149SAPS    C216437   0.582   6.163   6.563 -0.2464 -0.4894 -0.5368
  149SAPS    HS16438   0.546   6.249   6.624  0.3968 -0.5925  0.0031
  149SAPS   O2116439   0.486   6.105   6.477 -0.1160  0.4499 -0.4369
  149SAPS   C2116440   0.418   6.198   6.422  0.0381 -0.4249 -0.7692
  149SAPS   O2216441   0.406   6.317   6.451 -0.0960  0.3574  0.5955
  149SAPS   C2216442   0.335   6.126   6.314 -1.0344  0.1452  0.4933
  149SAPS   H2R16443   0.408   6.051   6.275 -1.7743  0.6326 -1.9822
  149SAPS   H2S16444   0.264   6.068   6.377 -0.4243 -0.4854  0.6229
  149SAPS    C316445   0.704   6.213   6.485  1.2725 -0.1490  0.4393
  149SAPS    HX16446   0.774   6.281   6.538  1.6967  1.4859 -2.0132
  149SAPS    HY16447   0.659   6.272   6.402 -2.4545 -1.7306  1.1300
  149SAPS   O3116448   0.775   6.097   6.436 -0.4524 -0.3672  0.2420
  149SAPS   C3116449   0.772   6.070   6.302 -0.2259  0.0185  1.2730
  149SAPS   O3216450   0.709   6.132   6.216 -0.0396  0.3032 -0.2351
  149SAPS   C3216451   0.849   5.939   6.275  0.1526 -0.3994 -0.0513
  149SAPS   H2X16452   0.777   5.855   6.269  0.2533 -0.4398 -0.7914
  149SAPS   H2Y16453   0.918   5.929   6.361  0.4236  0.6538 -0.1323
  149SAPS   C2316454   0.256   6.219   6.217  0.1553  0.1555 -0.7107
  149SAPS   H3R16455   0.334   6.275   6.162 -1.0802  1.1195 -1.5208
  149SAPS   H3S16456   0.198   6.299   6.268  0.1093  0.8390 -1.8070
  149SAPS   C2416457   0.155   6.134   6.130 -0.7839  0.2180  0.5617
  149SAPS   H4R16458   0.094   6.091   6.212 -0.0254 -0.0001  1.0174
  149SAPS   H4S16459   0.203   6.049   6.077 -2.3875  0.6949 -1.8215
  149SAPS   C2516460   0.073   6.218   6.045  0.5921 -0.1538  0.1052
  149SAPS   H5R16461   0.017   6.297   6.098 -1.1305  1.1702 -3.3592
  149SAPS   C2616462   0.055   6.202   5.910 -0.5718  0.9763 -0.2523
  149SAPS   H6R16463  -0.022   6.262   5.860 -2.0572  1.4436  2.4355
  149SAPS   C2716464   0.111   6.083   5.834 -0.2698  0.1922  0.6929
  149SAPS   H7R16465   0.179   6.021   5.896 -2.8938 -0.6486  2.9391
  149SAPS   H7S16466   0.156   6.115   5.738 -3.3637 -0.4830 -1.1161
  149SAPS   C2816467   0.005   5.985   5.799  0.0838 -0.4194 -0.1096
  149SAPS   H8R16468  -0.018   5.907   5.874  1.0023 -0.6791 -0.0876
  149SAPS   C2916469  -0.063   5.976   5.680 -0.0999  0.5734 -0.6383
  149SAPS   H9R16470  -0.134   5.891   5.677  0.2838  0.2368 -0.2827
  149SAPS  C21016471  -0.044   6.071   5.562  0.2484  0.1377  0.4994
  149SAPS  H10R16472  -0.054   6.013   5.468  0.1485  0.5669  0.2387
  149SAPS  H10S16473   0.062   6.103   5.552  0.1715  0.2797  0.0905
  149SAPS  C21116474  -0.139   6.185   5.569  0.7540  0.1569 -0.4252
  149SAPS  H11R16475  -0.120   6.259   5.648 -1.3000  0.3815 -0.1024
  149SAPS  C21216476  -0.254   6.207   5.498 -0.2880 -0.4850 -0.0281
  149SAPS  H12R16477  -0.289   6.311   5.494 -3.1728 -1.2755  1.8018
  149SAPS  C21316478  -0.292   6.115   5.383  0.1281  0.3758 -0.5077
  149SAPS  H13R16479  -0.322   6.014   5.419 -1.3029  0.5764 -1.0935
  149SAPS  H13S16480  -0.202   6.093   5.321  0.7957  0.5937  0.3567
  149SAPS  C21416481  -0.404   6.170   5.296 -0.1532  0.1515 -0.2077
  149SAPS  H14R16482  -0.471   6.243   5.345 -0.8511 -1.5661  1.5437
  149SAPS  C21516483  -0.415   6.163   5.161 -0.6103 -0.4341  0.4336
  149SAPS  H15R16484  -0.497   6.212   5.107  0.8197  0.4365 -1.0254
  149SAPS  C21616485  -0.331   6.077   5.068  0.2191  0.3041 -0.3600
  149SAPS  H16R16486  -0.395   5.987   5.050 -1.1263  1.4940 -1.8556
  149SAPS  H16S16487  -0.241   6.037   5.119  1.0620  0.5722 -1.5840
  149SAPS  C21716488  -0.279   6.163   4.951  0.4383  0.0878  0.4340
  149SAPS  H17R16489  -0.364   6.196   4.888  1.2256 -1.1269 -1.3499
  149SAPS  H17S16490  -0.225   6.095   4.882 -0.5220  0.8558 -1.1324
  149SAPS  C21816491  -0.194   6.278   4.996  0.7139 -0.0544  0.7729
  149SAPS  H18R16492  -0.109   6.247   5.060 -0.2296 -2.1518  1.0872
  149SAPS  H18S16493  -0.251   6.356   5.051 -1.0564 -0.0705 -0.9254
  149SAPS  C21916494  -0.126   6.357   4.876 -0.1863 -0.3945  0.5607
  149SAPS  H19R16495  -0.065   6.287   4.815 -0.2499 -1.2659  1.4748
  149SAPS  H19S16496  -0.057   6.431   4.921 -0.8465  1.4736 -1.3263
  149SAPS  C22016497  -0.235   6.437   4.797 -0.1309  0.0216  0.3171
  149SAPS  H20R16498  -0.190   6.501   4.718 -0.3947  0.0747  0.2074
  149SAPS  H20S16499  -0.295   6.501   4.865 -2.9578 -1.1033 -0.9586
  149SAPS  H20T16500  -0.305   6.365   4.750 -1.3958  0.2212  1.8357
  149SAPS   C3316501   0.944   5.938   6.147 -0.1754 -0.4445 -0.6803
  149SAPS   H3X16502   1.028   6.008   6.166 -1.2698  1.0456 -1.0872
  149SAPS   H3Y16503   0.886   5.969   6.057 -1.9380 -3.1250 -0.5688
  149SAPS   C3416504   1.007   5.804   6.124  0.3811 -0.5808 -0.1393
  149SAPS   H4X16505   0.937   5.718   6.120  0.6232 -0.7574 -0.6150
  149SAPS   H4Y16506   1.065   5.784   6.217 -1.1830 -1.3258  0.7189
  149SAPS   C3516507   1.103   5.802   6.007 -0.8482 -0.3679 -0.1803
  149SAPS   H5X16508   1.175   5.718   6.020  0.2044  0.5984  0.4013
  149SAPS   H5Y16509   1.162   5.896   6.012 -1.0440 -0.2803  0.6427
  149SAPS   C3616510   1.031   5.793   5.870  0.0901 -0.0101  0.3378
  149SAPS   H6X16511   0.960   5.876   5.854 -0.4633 -0.8386 -1.9086
  149SAPS   H6Y16512   0.958   5.710   5.858 -1.4043  1.3917 -0.7879
  149SAPS   C3716513   1.118   5.808   5.743 -0.2508 -0.0132  0.6093
  149SAPS   H7X16514   1.201   5.733   5.747  0.1064  0.1298 -2.0953
  149SAPS   H7Y16515   1.155   5.912   5.742  0.1621 -0.1511 -0.7898
  149SAPS   C3816516   1.042   5.771   5.617 -0.6394 -0.1473  0.0280
  149SAPS   H8X16517   0.969   5.854   5.605  1.7813  2.2023  0.4615
  149SAPS   H8Y16518   0.998   5.669   5.625  1.5148 -1.1814 -0.5239
  149SAPS   C3916519   1.133   5.783   5.494 -0.1024  0.6682 -0.0790
  149SAPS   H9X16520   1.203   5.697   5.487 -2.3957 -1.3081  0.0590
  149SAPS   H9Y16521   1.180   5.883   5.508 -0.9384  0.6911  3.5589
  149SAPS  C31016522   1.042   5.770   5.370  0.0950 -0.3363 -0.1304
  149SAPS  H10X16523   0.980   5.862   5.358 -0.3286 -0.6775 -0.6312
  149SAPS  H10Y16524   0.976   5.680   5.377 -1.0298  0.3137 -1.7815
  149SAPS  C31116525   1.115   5.748   5.240 -1.4915 -0.6060  0.6816
  149SAPS  H11X16526   1.165   5.649   5.247  0.3274  0.2615  0.5415
  149SAPS  H11Y16527   1.187   5.832   5.229 -1.5276 -0.4390  1.5791
  149SAPS  C31216528   1.033   5.746   5.115  0.6620  0.7125  0.1036
  149SAPS  H12X16529   1.011   5.852   5.093  0.4528  0.2300 -2.3428
  149SAPS  H12Y16530   0.932   5.703   5.131  1.7829 -2.1309  0.1816
  149SAPS  C31316531   1.095   5.666   4.999  0.7222  0.5691 -0.5706
  149SAPS  H13X16532   1.018   5.656   4.919  1.0198  0.9057 -0.9115
  149SAPS  H13Y16533   1.132   5.566   5.028 -0.0257  0.3699 -0.3105
  149SAPS  C31416534   1.220   5.725   4.930  0.2806 -0.4058  0.3041
  149SAPS  H14X16535   1.303   5.736   5.003  0.4021 -0.3749  0.1604
  149SAPS  H14Y16536   1.188   5.824   4.891  1.3358 -0.8969 -1.9446
  149SAPS  C31516537   1.261   5.657   4.806 -0.5031 -0.1852 -0.6297
  149SAPS  H15X16538   1.304   5.733   4.738 -0.6984  0.5338  0.0454
  149SAPS  H15Y16539   1.173   5.607   4.760 -1.5550  1.9576 -1.0516
  149SAPS  C31616540   1.373   5.546   4.828 -0.3206 -0.3864 -0.0295
  149SAPS  H16X16541   1.469   5.598   4.847 -0.3462 -0.7630  1.1954
  149SAPS  H16Y16542   1.351   5.478   4.913 -1.3443  2.0893  1.8061
  149SAPS  C31716543   1.391   5.461   4.703 -0.0397  0.0528  0.3038
  149SAPS  H17X16544   1.393   5.539   4.624  0.4480 -0.9601 -0.6965
  149SAPS  H17Y16545   1.303   5.396   4.686  0.6739 -0.3455 -2.2330
  149SAPS  C31816546   1.517   5.381   4.696 -0.2348 -0.2199  0.1375
  149SAPS  H18X16547   1.523   5.329   4.598 -0.2709 -1.4695  0.7888
  149SAPS  H18Y16548   1.518   5.297   4.768 -1.4050 -2.6781 -2.5297
  149SAPS  H18Z16549   1.602   5.451   4.706 -0.3456  0.0269 -0.5723
  150SAPS     N16550   1.346   2.121   7.277 -0.1958 -0.1550 -0.5741
  150SAPS   HN116551   1.339   2.192   7.353 -2.8774 -1.4865  0.5370
  150SAPS   HN216552   1.419   2.052   7.305 -0.3998 -1.1502 -2.3618
  150SAPS   HN316553   1.380   2.164   7.189  1.7410 -1.5419 -0.5814
  150SAPS   C1216554   1.217   2.056   7.260  0.0731  0.2538 -0.5612
  150SAPS  H12A16555   1.233   1.968   7.199  2.0163  0.0915  0.1145
  150SAPS   C1316556   1.151   2.017   7.396 -0.1473 -0.6108  1.4151
  150SAPS  O13A16557   1.194   2.061   7.503  0.0668  0.0133 -0.1560
  150SAPS  O13B16558   1.048   1.945   7.384  0.0464 -0.3419  0.1959
  150SAPS   C1116559   1.117   2.157   7.186  0.2055  0.6248  0.2800
  150SAPS  H11A16560   1.086   2.221   7.272  0.2053  0.6339  0.2732
  150SAPS  H11B16561   1.032   2.094   7.155  0.1354  0.7823  0.1516
  150SAPS     P16562   1.116   2.355   7.006 -0.1490  0.0011  0.0697
  150SAPS   O1316563   1.043   2.443   7.093  0.1082 -1.0512 -0.2656
  150SAPS   O1416564   1.218   2.407   6.917  0.1947  0.7570  0.2320
  150SAPS   O1216565   1.187   2.236   7.087  0.3570 -0.5800  0.0004
  150SAPS   O1116566   0.996   2.286   6.927  0.5569 -0.1921 -0.0078
  150SAPS    C116567   1.029   2.163   6.861  0.8978  0.1928  0.4742
  150SAPS    HA16568   1.121   2.112   6.898  1.3200  0.9188  0.4358
  150SAPS    HB16569   0.940   2.096   6.865 -0.2829  1.6382 -0.5151
  150SAPS    C216570   1.048   2.169   6.704 -0.1239 -0.7722 -0.6489
  150SAPS    HS16571   1.137   2.222   6.665  0.9800 -3.7289 -2.4626
  150SAPS   O2116572   0.923   2.225   6.659  0.2291 -0.6162  0.0866
  150SAPS   C2116573   0.913   2.296   6.547 -0.2947 -0.1174  0.1911
  150SAPS   O2216574   1.005   2.331   6.475  0.2626 -0.1470  0.8038
  150SAPS   C2216575   0.758   2.317   6.518 -0.7483  0.0453 -0.0238
  150SAPS   H2R16576   0.710   2.218   6.532  1.5345 -1.3955 -1.7061
  150SAPS   H2S16577   0.722   2.384   6.599  1.1778 -0.8138  1.6310
  150SAPS    C316578   1.055   2.025   6.644  0.2929  0.3800  0.8376
  150SAPS    HX16579   0.964   1.975   6.685 -0.6634  1.0536 -0.3841
  150SAPS    HY16580   1.145   1.966   6.674  1.7386  1.9962 -0.1769
  150SAPS   O3116581   1.045   2.036   6.497  0.0004 -0.3015  0.0384
  150SAPS   C3116582   1.160   2.082   6.439  0.2544 -0.1135 -0.1170
  150SAPS   O3216583   1.261   2.116   6.491 -0.3049 -0.3163 -0.8295
  150SAPS   C3216584   1.129   2.052   6.284  0.2550  0.6744 -0.4370
  150SAPS   H2X16585   1.025   2.089   6.267  0.2029 -0.1998 -2.1558
  150SAPS   H2Y16586   1.107   1.944   6.293  1.8309  0.3922  0.3826
  150SAPS   C2316587   0.723   2.376   6.379  0.0824  0.3807 -0.0894
  150SAPS   H3R16588   0.795   2.461   6.369  0.6070  0.1305  1.3808
  150SAPS   H3S16589   0.628   2.431   6.397  0.3715  0.0042  3.1956
  150SAPS   C2416590   0.716   2.270   6.268 -0.3261  0.0760 -0.0706
  150SAPS   H4R16591   0.652   2.185   6.300 -0.6753  0.3100 -0.1394
  150SAPS   H4S16592   0.819   2.233   6.249 -0.2331  1.0254 -1.5757
  150SAPS   C2516593   0.640   2.326   6.150 -0.4710  0.1146 -0.1173
  150SAPS   H5R16594   0.535   2.346   6.177  0.0070  0.4181  1.6663
  150SAPS   C2616595   0.697   2.368   6.036  0.4329  0.7924 -0.5461
  150SAPS   H6R16596   0.628   2.402   5.957 -0.1821  1.1427  0.1301
  150SAPS   C2716597   0.843   2.355   5.999  0.4524 -0.2792  0.9597
  150SAPS   H7R16598   0.851   2.331   5.891  2.5006 -1.0590  1.2559
  150SAPS   H7S16599   0.889   2.264   6.041  0.3707 -1.0034 -0.4492
  150SAPS   C2816600   0.931   2.477   6.030  0.1046 -0.0100  0.8967
  150SAPS   H8R16601   0.944   2.485   6.139 -1.4051  1.2822  1.0358
  150SAPS   C2916602   0.980   2.564   5.945 -0.3073  0.0380 -0.2686
  150SAPS   H9R16603   1.047   2.639   5.989  0.5762 -0.1010 -1.3340
  150SAPS  C21016604   0.961   2.563   5.796 -0.1873 -0.6019 -0.1773
  150SAPS  H10R16605   0.876   2.634   5.786  0.6831  0.2263 -2.2096
  150SAPS  H10S16606   0.919   2.466   5.763 -1.3654 -0.5875  1.1755
  150SAPS  C21116607   1.077   2.607   5.713 -0.4421 -0.1981 -0.4029
  150SAPS  H11R16608   1.174   2.612   5.764 -1.3693 -0.5708  1.4641
  150SAPS  C21216609   1.070   2.606   5.584  0.3447  0.2774 -0.2292
  150SAPS  H12R16610   1.148   2.642   5.515 -0.7802  1.7399 -0.7976
  150SAPS  C21316611   0.940   2.575   5.505  0.3103 -0.0935 -0.1390
  150SAPS  H13R16612   0.919   2.662   5.439  0.0586 -1.0575 -1.3682
  150SAPS  H13S16613   0.848   2.566   5.567 -0.7715  0.6972 -1.5596
  150SAPS  C21416614   0.961   2.447   5.426  0.3082 -0.2156 -0.4093
  150SAPS  H14R16615   1.005   2.373   5.494  0.0895 -0.8001 -0.8937
  150SAPS  C21516616   0.941   2.425   5.292 -0.2375  0.6119 -0.1950
  150SAPS  H15R16617   0.977   2.330   5.250  1.2471  1.1706 -0.2440
  150SAPS  C21616618   0.888   2.517   5.188 -0.1998 -0.0384 -0.6884
  150SAPS  H16R16619   0.863   2.611   5.242  0.6009 -0.7677  1.0554
  150SAPS  H16S16620   0.795   2.477   5.143 -0.2087  2.0775 -2.7453
  150SAPS  C21716621   0.988   2.548   5.074 -0.0201 -0.1364 -0.1335
  150SAPS  H17R16622   1.023   2.453   5.029 -0.8775 -0.1623 -0.7591
  150SAPS  H17S16623   1.081   2.596   5.112  0.3018 -0.4981 -0.4608
  150SAPS  C21816624   0.932   2.638   4.966 -0.0843 -0.4811 -0.1251
  150SAPS  H18R16625   0.896   2.731   5.014 -1.4487 -1.9204  1.8288
  150SAPS  H18S16626   0.838   2.585   4.938 -1.4275 -0.5911  3.9284
  150SAPS  C21916627   1.035   2.660   4.861 -0.3629 -0.1410 -0.3446
  150SAPS  H19R16628   1.075   2.563   4.822 -1.5040  0.1180 -2.3516
  150SAPS  H19S16629   1.115   2.712   4.918 -0.6128  0.3177 -0.4088
  150SAPS  C22016630   0.981   2.735   4.742 -0.2062 -1.2181  0.5399
  150SAPS  H20R16631   1.047   2.739   4.653 -0.0165 -1.2254  0.6805
  150SAPS  H20S16632   0.966   2.843   4.761 -1.5733 -1.3320  0.2349
  150SAPS  H20T16633   0.877   2.698   4.726 -0.6148  0.4116 -0.8075
  150SAPS   C3316634   1.241   2.094   6.186  0.2511 -0.2988  0.4574
  150SAPS   H3X16635   1.340   2.061   6.225 -1.0909 -3.2940  1.6730
  150SAPS   H3Y16636   1.248   2.204   6.171  2.5389 -0.4396  0.2369
  150SAPS   C3416637   1.233   2.027   6.043  0.0579  0.4421 -0.2107
  150SAPS   H4X16638   1.212   1.919   6.064 -0.2430  0.8884  2.0376
  150SAPS   H4Y16639   1.334   2.032   5.996  0.4347 -0.8011  0.3928
  150SAPS   C3516640   1.124   2.084   5.948  0.1693  0.2198 -0.1261
  150SAPS   H5X16641   1.112   2.195   5.946  0.9525  0.3301  0.7000
  150SAPS   H5Y16642   1.032   2.049   5.998  0.4601  0.2231  0.4210
  150SAPS   C3616643   1.132   2.039   5.803  0.7222 -0.7277  0.0472
  150SAPS   H6X16644   1.153   1.930   5.812 -0.3539 -0.9597 -0.0695
  150SAPS   H6Y16645   1.208   2.087   5.739  1.8775 -0.9005  1.2456
  150SAPS   C3716646   0.991   2.065   5.746 -0.7589  0.1709  0.1514
  150SAPS   H7X16647   0.969   2.172   5.765 -0.3338  0.3788 -0.4761
  150SAPS   H7Y16648   0.915   2.002   5.795  0.5954  0.8995  3.4309
  150SAPS   C3816649   0.995   2.052   5.589  0.4414 -0.4544  0.1816
  150SAPS   H8X16650   1.079   2.106   5.542 -0.0325  1.1076  1.0689
  150SAPS   H8Y16651   0.899   2.086   5.544 -0.3708 -4.3767 -1.4666
  150SAPS   C3916652   1.003   1.902   5.550 -0.8252 -0.0711  0.4662
  150SAPS   H9X16653   0.912   1.850   5.587 -0.2856 -1.4128 -0.0313
  150SAPS   H9Y16654   1.080   1.853   5.613 -1.4639  1.8572  2.9177
  150SAPS  C31016655   1.013   1.873   5.400 -0.4518 -0.0550  0.2624
  150SAPS  H10X16656   0.926   1.927   5.358 -0.7491 -0.8329 -0.1578
  150SAPS  H10Y16657   1.004   1.763   5.384  0.3415 -0.2679  1.1594
  150SAPS  C31116658   1.148   1.923   5.332  1.0640  0.2499  0.4839
  150SAPS  H11X16659   1.236   1.878   5.382  0.0974 -0.3741  1.7040
  150SAPS  H11Y16660   1.159   2.033   5.342 -0.1070  0.3555  0.8939
  150SAPS  C31216661   1.146   1.885   5.180 -0.0063  0.8782 -0.7235
  150SAPS  H12X16662   1.131   1.777   5.163 -1.6598  0.9918 -0.1011
  150SAPS  H12Y16663   1.246   1.911   5.138  0.5408  1.9981  1.1538
  150SAPS  C31316664   1.044   1.957   5.089 -0.1455  0.1997  0.9666
  150SAPS  H13X16665   1.081   2.062   5.097  3.3784 -0.8143 -0.1875
  150SAPS  H13Y16666   0.938   1.964   5.123 -0.2549  0.2523  0.6241
  150SAPS  C31416667   1.067   1.911   4.942  0.6277 -0.3298  0.1106
  150SAPS  H14X16668   1.096   1.805   4.923  1.1172 -0.2747  0.5179
  150SAPS  H14Y16669   1.166   1.958   4.921  1.4587 -1.7141  0.7617
  150SAPS  C31516670   0.963   1.962   4.849  0.6074 -0.3889 -0.5840
  150SAPS  H15X16671   0.974   2.072   4.856  1.1475 -0.5534  2.7251
  150SAPS  H15Y16672   0.863   1.923   4.880  0.6827 -0.0521  0.0926
  150SAPS  C31616673   0.974   1.910   4.702 -0.1067  0.4404 -0.8007
  150SAPS  H16X16674   0.988   1.800   4.710 -0.7479  0.4593  1.0601
  150SAPS  H16Y16675   1.064   1.960   4.661 -0.1668  0.7940 -0.5056
  150SAPS  C31716676   0.857   1.925   4.604 -0.4961 -0.5198 -0.3868
  150SAPS  H17X16677   0.841   2.031   4.574 -0.5202 -0.4585 -0.1574
  150SAPS  H17Y16678   0.767   1.900   4.664 -0.2668 -0.3612  0.0257
  150SAPS  C31816679   0.872   1.845   4.480  0.3476  0.2684 -0.2465
  150SAPS  H18X16680   0.965   1.886   4.435  0.7589  1.0408  1.2427
  150SAPS  H18Y16681   0.788   1.866   4.410  0.9683 -1.2714 -1.5245
  150SAPS  H18Z16682   0.868   1.735   4.494  0.1204 -0.1456 -2.9651
  151SAPS     N16683   4.418   1.396   1.905  0.2339 -0.0177 -0.2892
  151SAPS   HN116684   4.460   1.392   1.810 -0.1147  0.0292 -0.4467
  151SAPS   HN216685   4.322   1.435   1.911 -0.2064 -0.8844 -1.3815
  151SAPS   HN316686   4.493   1.446   1.957 -0.8618 -0.2027  1.5591
  151SAPS   C1216687   4.420   1.254   1.960 -0.0578 -0.3481 -0.0541
  151SAPS  H12A16688   4.358   1.192   1.897 -0.5491 -1.1842  1.2292
  151SAPS   C1316689   4.559   1.179   1.956 -0.6486 -0.5391 -0.4899
  151SAPS  O13A16690   4.667   1.243   1.932  0.0048  0.2004  0.1434
  151SAPS  O13B16691   4.557   1.055   1.992 -0.6926  0.4089  0.1051
  151SAPS   C1116692   4.362   1.251   2.110 -0.5584 -0.4175 -0.4218
  151SAPS  H11A16693   4.437   1.300   2.176 -1.1109 -2.0469  1.5186
  151SAPS  H11B16694   4.357   1.148   2.152  2.4284 -1.0748 -1.4612
  151SAPS     P16695   4.098   1.268   2.102 -0.0547 -0.2369 -0.3091
  151SAPS   O1316696   4.033   1.315   1.979 -0.0735  0.5791 -0.5681
  151SAPS   O1416697   4.086   1.123   2.132 -0.3864  0.2670  0.0838
  151SAPS   O1216698   4.243   1.331   2.116  0.6249  0.5446 -0.2650
  151SAPS   O1116699   4.031   1.331   2.228  0.5451  0.1934 -0.0486
  151SAPS    C116700   3.986   1.471   2.232 -0.5458  0.8408  0.2839
  151SAPS    HA16701   4.026   1.526   2.145 -0.2782  0.5761  0.2387
  151SAPS    HB16702   3.875   1.465   2.226 -0.4459 -4.0259 -1.6038
  151SAPS    C216703   4.038   1.537   2.364 -0.0832  0.3058  0.3684
  151SAPS    HS16704   3.993   1.639   2.365  1.4216  1.1662 -3.3307
  151SAPS   O2116705   4.182   1.539   2.379  0.3635 -0.5954  0.0505
  151SAPS   C2116706   4.234   1.629   2.295  0.5916  0.1586 -0.3813
  151SAPS   O2216707   4.173   1.699   2.219 -0.2409  0.1764 -0.2112
  151SAPS   C2216708   4.385   1.619   2.299  0.0228 -0.2163  0.2826
  151SAPS   H2R16709   4.428   1.524   2.338  0.7972 -0.1739 -0.4409
  151SAPS   H2S16710   4.424   1.642   2.197 -0.0517 -0.3991  0.2117
  151SAPS    C316711   3.979   1.457   2.485  0.5898 -0.3885 -0.0405
  151SAPS    HX16712   4.015   1.510   2.575  0.2205  1.2230 -0.7889
  151SAPS    HY16713   4.019   1.355   2.468  2.3821  0.6637 -3.1390
  151SAPS   O3116714   3.834   1.446   2.483  0.4613 -0.0127  0.2293
  151SAPS   C3116715   3.773   1.535   2.564  0.0504  0.2412  0.2621
  151SAPS   O3216716   3.815   1.629   2.618  0.1056 -0.2969  0.0977
  151SAPS   C3216717   3.627   1.512   2.546  0.5682 -0.1212  0.0810
  151SAPS   H2X16718   3.623   1.429   2.473  2.8270 -0.3222  0.1173
  151SAPS   H2Y16719   3.587   1.605   2.501  0.8220 -0.1304 -0.1653
  151SAPS   C2316720   4.445   1.732   2.391  0.2634 -0.4613  0.4407
  151SAPS   H3R16721   4.395   1.829   2.371  0.9095  0.1993  1.8367
  151SAPS   H3S16722   4.551   1.737   2.357  0.6828 -3.1981  1.0824
  151SAPS   C2416723   4.440   1.685   2.542 -0.2834  0.4592 -0.4969
  151SAPS   H4R16724   4.524   1.618   2.571  0.5320  1.2348 -1.0167
  151SAPS   H4S16725   4.348   1.625   2.553  0.5873 -0.4119  3.2657
  151SAPS   C2516726   4.425   1.798   2.649 -0.1405 -0.1896  0.0867
  151SAPS   H5R16727   4.341   1.866   2.628  1.7452  2.9632  1.8817
  151SAPS   C2616728   4.486   1.823   2.768 -0.8473  0.5391  1.2680
  151SAPS   H6R16729   4.464   1.920   2.815  0.9601  2.0802 -0.8633
  151SAPS   C2716730   4.595   1.738   2.824  0.7419  0.1184 -0.2403
  151SAPS   H7R16731   4.617   1.640   2.776 -0.6266 -0.0137 -0.6628
  151SAPS   H7S16732   4.548   1.706   2.920  1.7917 -0.5295  0.0712
  151SAPS   C2816733   4.724   1.816   2.842  0.3726 -0.2670  0.0452
  151SAPS   H8R16734   4.791   1.829   2.755 -2.4109 -0.8330 -2.3373
  151SAPS   C2916735   4.764   1.875   2.960 -0.2188  0.7091 -0.1135
  151SAPS   H9R16736   4.850   1.945   2.963  1.4751 -1.2587 -0.6336
  151SAPS  C21016737   4.689   1.877   3.089  0.3045 -0.3612  0.3195
  151SAPS  H10R16738   4.611   1.798   3.092 -0.5869  0.5310  1.9168
  151SAPS  H10S16739   4.638   1.976   3.095 -0.0091 -0.6013  1.9595
  151SAPS  C21116740   4.789   1.867   3.205 -0.6302 -1.1418  0.1538
  151SAPS  H11R16741   4.847   1.960   3.216  0.8820 -1.7468 -2.1097
  151SAPS  C21216742   4.797   1.769   3.294  0.1314 -0.1358  0.1162
  151SAPS  H12R16743   4.877   1.764   3.369 -0.2311 -1.1932  0.4528
  151SAPS  C21316744   4.721   1.639   3.303 -0.8857  0.0807  0.0523
  151SAPS  H13R16745   4.788   1.567   3.354  1.8558 -0.2646 -3.6440
  151SAPS  H13S16746   4.708   1.602   3.199  0.3885 -3.2205  0.9233
  151SAPS  C21416747   4.587   1.656   3.361 -0.1349 -0.4549  0.0207
  151SAPS  H14R16748   4.524   1.739   3.326  0.1646  1.0141  2.7122
  151SAPS  C21516749   4.542   1.592   3.463 -0.3489 -0.1041 -0.1705
  151SAPS  H15R16750   4.440   1.616   3.497 -0.6133 -1.7995  0.2888
  151SAPS  C21616751   4.613   1.479   3.535  0.5342 -0.1090 -0.1866
  151SAPS  H16R16752   4.595   1.498   3.643  0.3623 -0.4580 -0.1534
  151SAPS  H16S16753   4.724   1.484   3.525  0.3717  1.5917 -1.7115
  151SAPS  C21716754   4.570   1.338   3.500 -0.4469  0.4543 -0.0131
  151SAPS  H17R16755   4.567   1.326   3.390 -0.4164 -0.1293  0.0443
  151SAPS  H17S16756   4.467   1.311   3.532  0.1560  0.3914  2.0510
  151SAPS  C21816757   4.664   1.237   3.569 -0.1617 -0.1176 -0.0837
  151SAPS  H18R16758   4.630   1.227   3.675 -0.1172 -0.7247 -0.1217
  151SAPS  H18S16759   4.766   1.281   3.570  0.5083 -1.5779  1.4222
  151SAPS  C21916760   4.674   1.101   3.502 -0.1454  0.0298  0.3341
  151SAPS  H19R16761   4.733   1.129   3.412 -1.6265  1.4073 -0.2466
  151SAPS  H19S16762   4.577   1.055   3.473  0.1856 -0.5860  0.1884
  151SAPS  C22016763   4.746   0.995   3.590  0.2926 -0.2730  0.2551
  151SAPS  H20R16764   4.822   1.053   3.646 -0.4363  0.8600  0.1202
  151SAPS  H20S16765   4.803   0.923   3.528  0.5210  1.5479 -1.7626
  151SAPS  H20T16766   4.671   0.955   3.662 -0.4071 -0.8610 -0.7814
  151SAPS   C3316767   3.544   1.470   2.677  0.2847  0.5625 -0.0655
  151SAPS   H3X16768   3.439   1.484   2.644  0.9752 -0.6893 -3.1319
  151SAPS   H3Y16769   3.574   1.526   2.768 -0.4638 -1.2897  1.3871
  151SAPS   C3416770   3.542   1.321   2.685 -0.2509  0.4186 -0.5701
  151SAPS   H4X16771   3.651   1.300   2.685  0.0827  2.0044 -0.5499
  151SAPS   H4Y16772   3.489   1.270   2.601  0.3992 -1.2019 -0.0460
  151SAPS   C3516773   3.482   1.281   2.818 -0.0658  0.8761  0.3514
  151SAPS   H5X16774   3.496   1.171   2.827 -3.3186  0.3493  0.1359
  151SAPS   H5Y16775   3.373   1.304   2.818 -0.0441  0.9927 -0.1582
  151SAPS   C3616776   3.531   1.352   2.942  0.4299 -0.6180 -0.5601
  151SAPS   H6X16777   3.478   1.449   2.946 -0.1858 -0.9655 -0.0488
  151SAPS   H6Y16778   3.638   1.382   2.945 -0.2355  2.1136 -1.1762
  151SAPS   C3716779   3.514   1.285   3.082 -0.0761  0.2468 -0.0716
  151SAPS   H7X16780   3.576   1.194   3.095 -1.9666 -0.9865  0.7511
  151SAPS   H7Y16781   3.417   1.230   3.083 -0.0828  0.2401 -0.7463
  151SAPS   C3816782   3.507   1.378   3.210  0.0710  0.1480 -0.3003
  151SAPS   H8X16783   3.397   1.396   3.215 -0.2694 -1.9848  1.8594
  151SAPS   H8Y16784   3.571   1.469   3.202 -1.2645  1.0853 -0.6368
  151SAPS   C3916785   3.550   1.295   3.333  0.0576  0.4390  0.1089
  151SAPS   H9X16786   3.644   1.237   3.321  0.8645  1.9909 -1.7017
  151SAPS   H9Y16787   3.469   1.225   3.362  0.1485  1.3090  2.6491
  151SAPS  C31016788   3.560   1.381   3.459 -0.1448  0.1657  0.5877
  151SAPS  H10X16789   3.468   1.443   3.453  0.7560  1.6177  1.2785
  151SAPS  H10Y16790   3.642   1.455   3.449 -0.0493  0.2483  1.8002
  151SAPS  C31116791   3.567   1.306   3.593  0.0043  0.4653  0.0246
  151SAPS  H11X16792   3.671   1.267   3.600 -0.3799 -0.3197  1.8880
  151SAPS  H11Y16793   3.491   1.225   3.596  1.6249 -1.2511 -1.7558
  151SAPS  C31216794   3.539   1.412   3.703  0.4793 -0.2640 -0.1880
  151SAPS  H12X16795   3.435   1.446   3.684  0.2060 -0.1892  1.3813
  151SAPS  H12Y16796   3.596   1.507   3.696  1.9038 -1.0543  0.2928
  151SAPS  C31316797   3.541   1.365   3.848  0.2090 -0.1502  0.0766
  151SAPS  H13X16798   3.489   1.268   3.856  0.0259  0.0424  1.6206
  151SAPS  H13Y16799   3.483   1.442   3.903  0.1777 -1.0537  1.3708
  151SAPS  C31416800   3.681   1.351   3.899 -0.2069  0.0462  0.2618
  151SAPS  H14X16801   3.741   1.440   3.869 -0.5714 -0.5793 -2.7141
  151SAPS  H14Y16802   3.740   1.271   3.851 -1.3964  0.5580 -2.2665
  151SAPS  C31516803   3.679   1.322   4.047  0.1764  0.8211  0.0293
  151SAPS  H15X16804   3.621   1.232   4.077  0.7887  0.9025  1.5489
  151SAPS  H15Y16805   3.626   1.398   4.109 -0.9819 -0.5616  0.7869
  151SAPS  C31616806   3.821   1.287   4.098 -0.6026 -0.2881  0.6531
  151SAPS  H16X16807   3.883   1.373   4.065 -0.1738 -1.1571 -0.8993
  151SAPS  H16Y16808   3.855   1.195   4.046  0.7615  0.1695  0.6949
  151SAPS  C31716809   3.854   1.267   4.253  0.1413 -0.6872  0.3427
  151SAPS  H17X16810   3.787   1.185   4.286  1.3943 -2.6417 -1.7074
  151SAPS  H17Y16811   3.817   1.359   4.304  0.0923 -0.3043 -0.3639
  151SAPS  C31816812   3.997   1.233   4.285  0.0811 -0.7107 -0.5441
  151SAPS  H18X16813   4.018   1.183   4.382 -0.1934 -0.2459 -0.2380
  151SAPS  H18Y16814   4.057   1.327   4.290 -0.9726 -0.0508  0.1192
  151SAPS  H18Z16815   4.038   1.161   4.211 -1.2708 -0.8633 -1.1864
  152SAPS     N16816   2.986   1.760   1.581 -0.4833 -0.0739  0.1326
  152SAPS   HN116817   2.924   1.749   1.498  0.2595  2.7331 -0.9317
  152SAPS   HN216818   3.076   1.755   1.530  0.0158 -0.9440  1.0701
  152SAPS   HN316819   2.990   1.681   1.648  0.7922  0.9443  1.3138
  152SAPS   C1216820   2.965   1.895   1.645  0.0320  0.7173 -0.4052
  152SAPS  H12A16821   3.026   1.893   1.734  0.0777 -0.4381 -0.4487
  152SAPS   C1316822   3.020   2.015   1.564 -0.5810 -0.2793  0.5344
  152SAPS  O13A16823   3.062   1.994   1.447 -0.0574  0.5766  0.5031
  152SAPS  O13B16824   3.027   2.131   1.611  0.2724 -0.0351 -0.2819
  152SAPS   C1116825   2.814   1.926   1.688 -0.6991 -0.1663 -0.8099
  152SAPS  H11A16826   2.761   1.939   1.592  0.9962 -2.4397 -2.1669
  152SAPS  H11B16827   2.803   2.025   1.738  0.1826 -0.5915  0.2865
  152SAPS     P16828   2.630   1.829   1.852 -0.0633 -0.0285 -0.1160
  152SAPS   O1316829   2.576   1.966   1.845  0.1585 -0.2161  0.2401
  152SAPS   O1416830   2.539   1.718   1.811 -0.1034 -0.1001  0.2512
  152SAPS   O1216831   2.759   1.822   1.770 -0.6388  0.4685 -0.4050
  152SAPS   O1116832   2.672   1.792   1.991  0.4392  0.4057 -0.1740
  152SAPS    C116833   2.802   1.749   2.033 -0.4613  0.2805 -0.3020
  152SAPS    HA16834   2.792   1.643   2.065 -3.0707  0.2235 -1.0466
  152SAPS    HB16835   2.878   1.752   1.952 -0.2435  0.2347 -0.0995
  152SAPS    C216836   2.861   1.831   2.153  0.7948 -0.2768 -0.3036
  152SAPS    HS16837   2.937   1.765   2.200  0.0827  0.7491  2.5044
  152SAPS   O2116838   2.757   1.868   2.248  0.2506 -0.1994  0.1484
  152SAPS   C2116839   2.697   1.765   2.303  0.0348 -0.0167 -0.2328
  152SAPS   O2216840   2.740   1.654   2.317  0.3631  0.1728 -0.1350
  152SAPS   C2216841   2.564   1.812   2.356  0.0700 -0.0294  0.3440
  152SAPS   H2R16842   2.578   1.909   2.408  1.1160  0.1034 -0.1714
  152SAPS   H2S16843   2.517   1.840   2.259  0.1957  0.8710  0.5314
  152SAPS    C316844   2.944   1.961   2.122 -0.3429  0.3891 -0.3136
  152SAPS    HX16845   2.876   2.045   2.097 -1.6039 -0.5335 -0.0775
  152SAPS    HY16846   3.001   1.933   2.031  0.5367 -0.9478  0.6097
  152SAPS   O3116847   3.028   2.008   2.232 -0.1527 -0.0448  0.8240
  152SAPS   C3116848   3.145   1.950   2.250 -0.3799 -0.6155 -0.3279
  152SAPS   O3216849   3.180   1.848   2.195 -0.3286  1.2163 -0.1693
  152SAPS   C3216850   3.220   2.025   2.362  0.6361  0.5453  0.3592
  152SAPS   H2X16851   3.154   2.086   2.426 -1.1734  0.3574 -1.2465
  152SAPS   H2Y16852   3.291   2.086   2.301  0.1014  0.4131 -0.4140
  152SAPS   C2316853   2.490   1.709   2.441 -0.5559  0.8813 -0.5437
  152SAPS   H3R16854   2.492   1.604   2.404  1.4251  1.0254 -0.9377
  152SAPS   H3S16855   2.382   1.737   2.440 -0.5320  0.9922 -0.0992
  152SAPS   C2416856   2.549   1.682   2.581 -0.2104 -0.3312  0.1895
  152SAPS   H4R16857   2.635   1.612   2.569 -0.3574 -0.9542  2.4632
  152SAPS   H4S16858   2.480   1.608   2.626  1.4840 -1.5703  0.8356
  152SAPS   C2516859   2.589   1.799   2.667 -0.7197 -0.0849 -0.0493
  152SAPS   H5R16860   2.630   1.877   2.601 -0.5551 -1.7145 -1.9903
  152SAPS   C2616861   2.591   1.814   2.801 -0.2288  0.7092 -1.1681
  152SAPS   H6R16862   2.627   1.908   2.846  2.1323 -0.6603  0.0139
  152SAPS   C2716863   2.538   1.720   2.904 -0.0586  0.1223 -0.4719
  152SAPS   H7R16864   2.488   1.629   2.863  2.6080 -1.7351  0.1589
  152SAPS   H7S16865   2.460   1.777   2.959  0.3349 -0.0417  0.2727
  152SAPS   C2816866   2.655   1.682   3.004  0.1059  0.1411  0.4016
  152SAPS   H8R16867   2.714   1.594   2.976  3.0671  2.0563  0.1482
  152SAPS   C2916868   2.683   1.740   3.124 -0.4682  0.1401  0.1221
  152SAPS   H9R16869   2.771   1.700   3.177 -0.5498  0.7114  0.7025
  152SAPS  C21016870   2.620   1.858   3.202  0.1464 -0.4383  0.7183
  152SAPS  H10R16871   2.514   1.850   3.234 -1.1549  2.3540 -2.3299
  152SAPS  H10S16872   2.612   1.946   3.135  1.4193 -0.9916 -0.2041
  152SAPS  C21116873   2.714   1.908   3.310 -0.5851  0.2039 -0.5153
  152SAPS  H11R16874   2.812   1.935   3.269  0.2723  2.6939  2.7681
  152SAPS  C21216875   2.685   1.932   3.438  0.0859  0.2126 -0.2184
  152SAPS  H12R16876   2.767   1.960   3.506 -1.6860  0.2537  2.0331
  152SAPS  C21316877   2.557   1.898   3.500  0.2441  0.1397 -0.0098
  152SAPS  H13R16878   2.543   1.788   3.498  0.2765  0.1331  0.1111
  152SAPS  H13S16879   2.473   1.937   3.439  0.6807  1.1468  0.0113
  152SAPS  C21416880   2.536   1.946   3.645 -0.0051  0.9569  0.8818
  152SAPS  H14R16881   2.466   2.030   3.650  0.3066  1.3615 -0.9172
  152SAPS  C21516882   2.597   1.890   3.752 -0.5518  0.5102 -0.2666
  152SAPS  H15R16883   2.576   1.935   3.850 -0.0732 -0.5407  0.3295
  152SAPS  C21616884   2.683   1.763   3.763  0.0081  0.2123  0.5614
  152SAPS  H16R16885   2.735   1.720   3.674  0.7383 -0.4155  1.2642
  152SAPS  H16S16886   2.615   1.678   3.786  0.3456 -0.5438 -1.1410
  152SAPS  C21716887   2.787   1.777   3.875  0.1466  0.8388 -0.5048
  152SAPS  H17R16888   2.824   1.882   3.870  0.9828  0.4772 -3.6447
  152SAPS  H17S16889   2.874   1.710   3.859  1.6285  2.1580  1.4587
  152SAPS  C21816890   2.721   1.766   4.022  0.2565  0.1116 -0.2428
  152SAPS  H18R16891   2.653   1.678   4.026 -1.3475  1.2479 -1.3048
  152SAPS  H18S16892   2.647   1.848   4.022 -0.5295 -0.5876 -0.2976
  152SAPS  C21916893   2.822   1.765   4.137  0.1787 -0.2341  0.8303
  152SAPS  H19R16894   2.881   1.859   4.131  1.4507 -1.0100  0.7497
  152SAPS  H19S16895   2.889   1.680   4.110  0.9892  0.6766 -0.1138
  152SAPS  C22016896   2.751   1.765   4.270  0.3813 -0.4520 -0.2700
  152SAPS  H20R16897   2.816   1.765   4.360  1.3158 -1.1314 -0.9273
  152SAPS  H20S16898   2.687   1.856   4.272  0.9333 -0.0596  0.0245
  152SAPS  H20T16899   2.678   1.683   4.284 -0.5142  0.6070  1.5574
  152SAPS   C3316900   3.292   1.928   2.462  0.0334 -0.3702  0.7339
  152SAPS   H3X16901   3.363   1.860   2.409 -1.1433 -1.8218  0.9533
  152SAPS   H3Y16902   3.222   1.860   2.514  0.2786 -1.5811 -0.4679
  152SAPS   C3416903   3.378   1.999   2.571 -0.1938  0.0762  0.6867
  152SAPS   H4X16904   3.307   2.057   2.633  1.5000  2.5152  0.4696
  152SAPS   H4Y16905   3.457   2.063   2.527 -0.4922 -0.3538 -0.5090
  152SAPS   C3516906   3.437   1.896   2.664 -0.8476  0.0964  0.2359
  152SAPS   H5X16907   3.538   1.865   2.629 -0.5798 -0.6286  1.5911
  152SAPS   H5Y16908   3.361   1.816   2.681  0.1347 -0.8335  0.3731
  152SAPS   C3616909   3.485   1.961   2.799 -0.2496 -0.0110  0.0368
  152SAPS   H6X16910   3.403   1.998   2.864  1.3910  1.7835  1.1772
  152SAPS   H6Y16911   3.541   2.053   2.769 -0.2298  0.6684  2.0353
  152SAPS   C3716912   3.577   1.875   2.886  0.5325 -0.2644  0.7999
  152SAPS   H7X16913   3.677   1.861   2.839  1.6494  0.2457  2.8845
  152SAPS   H7Y16914   3.528   1.775   2.894  2.1882 -1.1924 -0.0878
  152SAPS   C3816915   3.592   1.935   3.026 -0.4614 -0.3803  0.1574
  152SAPS   H8X16916   3.494   1.932   3.078 -1.1286  1.3696 -0.8891
  152SAPS   H8Y16917   3.625   2.041   3.022  0.1620 -0.5643  0.3225
  152SAPS   C3916918   3.682   1.852   3.115  0.4550  0.4475 -0.1794
  152SAPS   H9X16919   3.784   1.851   3.071  0.3973  0.2224 -0.3060
  152SAPS   H9Y16920   3.645   1.748   3.130 -0.4363  0.7860  0.0018
  152SAPS  C31016921   3.715   1.908   3.254 -0.0142 -0.4321 -0.0553
  152SAPS  H10X16922   3.740   2.015   3.243  2.6834 -0.9088  0.7838
  152SAPS  H10Y16923   3.798   1.852   3.301  0.3282  0.3970  0.3251
  152SAPS  C31116924   3.594   1.910   3.352  0.2914 -0.3862  0.8544
  152SAPS  H11X16925   3.528   1.833   3.306  1.2235 -0.3683 -0.5708
  152SAPS  H11Y16926   3.543   2.009   3.346 -0.5094 -0.8698 -2.0154
  152SAPS  C31216927   3.634   1.871   3.490  0.6098  0.4798  0.0840
  152SAPS  H12X16928   3.675   1.768   3.478  3.0392  1.3646  0.2269
  152SAPS  H12Y16929   3.542   1.870   3.553  1.3413  1.3198  1.2139
  152SAPS  C31316930   3.736   1.966   3.564  0.3873 -0.1578 -0.0216
  152SAPS  H13X16931   3.825   1.975   3.497  0.2495 -3.0011 -0.6985
  152SAPS  H13Y16932   3.768   1.927   3.663 -0.0007 -2.7923 -0.8571
  152SAPS  C31416933   3.681   2.107   3.578 -0.4985  0.0369 -0.5225
  152SAPS  H14X16934   3.672   2.158   3.480  0.0259  1.3220  0.0801
  152SAPS  H14Y16935   3.765   2.163   3.625 -1.1748  1.0389 -0.4841
  152SAPS  C31516936   3.560   2.128   3.664 -0.1686 -0.4343 -0.3299
  152SAPS  H15X16937   3.465   2.102   3.611 -0.3309  1.0812 -0.8447
  152SAPS  H15Y16938   3.569   2.058   3.750  1.9872 -0.4938 -0.5556
  152SAPS  C31616939   3.549   2.272   3.721  0.6844  1.0291  0.2724
  152SAPS  H16X16940   3.441   2.277   3.744 -0.2391 -1.2757 -2.8144
  152SAPS  H16Y16941   3.570   2.343   3.638 -0.5204  0.7200 -0.3211
  152SAPS  C31716942   3.624   2.317   3.843 -0.1989  0.1081 -0.9683
  152SAPS  H17X16943   3.730   2.290   3.824  0.6087  0.6889  2.2288
  152SAPS  H17Y16944   3.602   2.260   3.936  2.2569 -0.3569 -0.5963
  152SAPS  C31816945   3.605   2.458   3.881  0.9264 -0.5490  0.2034
  152SAPS  H18X16946   3.658   2.485   3.974  0.6242  0.1174  0.1924
  152SAPS  H18Y16947   3.502   2.492   3.905  1.1891  0.7658 -0.4682
  152SAPS  H18Z16948   3.638   2.526   3.800  0.4532 -1.5155 -0.8321
  153SAPS     N16949   1.225   3.347   1.581 -0.7664 -0.3991  0.3743
  153SAPS   HN116950   1.224   3.407   1.497 -1.3471 -1.7078 -0.5842
  153SAPS   HN216951   1.240   3.420   1.654 -1.0825  0.1740 -0.1269
  153SAPS   HN316952   1.307   3.284   1.571 -0.2804  0.1053  1.0338
  153SAPS   C1216953   1.088   3.277   1.604  0.7003 -0.0316 -0.2956
  153SAPS  H12A16954   1.014   3.329   1.545  0.3870 -0.7808 -0.5640
  153SAPS   C1316955   1.083   3.127   1.576 -0.2210  0.0112  0.7627
  153SAPS  O13A16956   1.182   3.065   1.527 -0.0500 -0.1996  0.0501
  153SAPS  O13B16957   0.975   3.070   1.597 -0.2725 -0.2931 -0.6955
  153SAPS   C1116958   1.058   3.294   1.753 -0.2509 -0.1881 -0.4251
  153SAPS  H11A16959   1.109   3.215   1.813 -1.0293  0.8122  1.6440
  153SAPS  H11B16960   0.958   3.250   1.773  0.7273 -2.5554 -0.3779
  153SAPS     P16961   1.156   3.491   1.889  0.3219  0.3077  0.3175
  153SAPS   O1316962   1.268   3.516   1.795 -0.1546  0.0912 -0.1931
  153SAPS   O1416963   1.106   3.609   1.958  0.3362 -0.1192 -0.1915
  153SAPS   O1216964   1.055   3.434   1.789  0.7245 -0.1828  0.4382
  153SAPS   O1116965   1.193   3.371   1.989  0.3867 -0.5338  0.6816
  153SAPS    C116966   1.099   3.348   2.087  0.1159 -0.1662 -0.4961
  153SAPS    HA16967   0.999   3.390   2.062  0.3363 -0.0816 -1.2523
  153SAPS    HB16968   1.081   3.239   2.093 -0.9672 -0.0919 -1.7407
  153SAPS    C216969   1.144   3.409   2.233  0.0470  0.2498  0.1677
  153SAPS    HS16970   1.174   3.513   2.208  0.6332  0.1422  0.4027
  153SAPS   O2116971   1.254   3.337   2.283 -1.0271 -0.1430 -0.0568
  153SAPS   C2116972   1.351   3.412   2.333 -0.4439 -0.7090  0.1718
  153SAPS   O2216973   1.355   3.534   2.340  0.0831  0.3389  0.2457
  153SAPS   C2216974   1.457   3.325   2.390 -1.0532  0.3803  0.2527
  153SAPS   H2R16975   1.407   3.238   2.438  2.0934  0.1419  3.5343
  153SAPS   H2S16976   1.526   3.293   2.308  0.1453  3.0267  0.1106
  153SAPS    C316977   1.021   3.415   2.333 -0.9070 -0.5682 -0.5328
  153SAPS    HX16978   0.974   3.314   2.333 -0.4379 -0.7988 -1.4334
  153SAPS    HY16979   0.946   3.489   2.296 -0.5288 -0.3912 -0.9603
  153SAPS   O3116980   1.057   3.446   2.467  0.0942 -0.3624 -0.4927
  153SAPS   C3116981   1.081   3.582   2.485 -0.4857  0.3541  0.6769
  153SAPS   O3216982   1.079   3.660   2.392  0.4065  0.7659  0.4852
  153SAPS   C3216983   1.123   3.616   2.618  0.2881 -0.2396  0.2032
  153SAPS   H2X16984   1.098   3.723   2.634  2.5103  0.2473  0.8740
  153SAPS   H2Y16985   1.233   3.607   2.630  0.2080 -0.7410  0.6726
  153SAPS   C2316986   1.547   3.405   2.486  0.8288  0.3950 -0.0251
  153SAPS   H3R16987   1.570   3.506   2.448 -1.1228  0.4901 -1.1430
  153SAPS   H3S16988   1.639   3.343   2.491  1.1711  0.8665 -0.4721
  153SAPS   C2416989   1.488   3.399   2.631 -0.9025 -0.0479  0.4276
  153SAPS   H4R16990   1.476   3.297   2.673  0.1845  0.1256  1.1962
  153SAPS   H4S16991   1.391   3.453   2.620  0.3288  1.6780 -4.0242
  153SAPS   C2516992   1.583   3.485   2.719 -0.0721  0.9233 -0.3543
  153SAPS   H5R16993   1.628   3.563   2.656 -0.2681  0.7091 -0.7635
  153SAPS   C2616994   1.598   3.480   2.856  0.0360  0.7312 -0.0838
  153SAPS   H6R16995   1.670   3.542   2.911  0.9344  0.2750 -0.7201
  153SAPS   C2716996   1.531   3.371   2.942 -0.0851  0.4738  0.0874
  153SAPS   H7R16997   1.617   3.314   2.983 -0.3211 -0.4813 -0.7162
  153SAPS   H7S16998   1.477   3.301   2.876  0.2152 -0.3619  0.7102
  153SAPS   C2816999   1.436   3.424   3.041  0.2553  0.6007  0.5842
  153SAPS   H8R17000   1.346   3.463   2.991 -0.9607  0.7516  2.7996
  153SAPS   C2917001   1.457   3.437   3.168 -0.2851 -0.1483 -0.0926
  153SAPS   H9R17002   1.376   3.482   3.227 -0.9224 -1.3581  0.0059
  153SAPS  C21017003   1.576   3.381   3.239 -0.2615  0.1793  0.0036
  153SAPS  H10R17004   1.612   3.458   3.311  1.6666 -0.1719 -0.5558
  153SAPS  H10S17005   1.661   3.364   3.170 -1.6057 -1.5368 -1.3146
  153SAPS  C21117006   1.533   3.252   3.309 -0.4346 -0.3284 -0.3593
  153SAPS  H11R17007   1.534   3.160   3.248 -0.6805  0.8111 -2.1379
  153SAPS  C21217008   1.491   3.248   3.435  0.4646 -0.7511  0.1629
  153SAPS  H12R17009   1.463   3.150   3.477  4.0770 -3.2726 -2.7472
  153SAPS  C21317010   1.471   3.369   3.527  0.1939 -0.0944 -0.0697
  153SAPS  H13R17011   1.374   3.350   3.578 -0.0853 -0.6631 -0.7877
  153SAPS  H13S17012   1.443   3.455   3.462 -2.5169  0.5550  1.7838
  153SAPS  C21417013   1.571   3.407   3.629 -0.1157 -0.4077  0.3841
  153SAPS  H14R17014   1.665   3.455   3.596  0.0408 -2.1882 -2.0259
  153SAPS  C21517015   1.563   3.399   3.764 -0.3818  0.6656 -0.1012
  153SAPS  H15R17016   1.646   3.444   3.822 -0.2872  1.2982 -0.7058
  153SAPS  C21617017   1.465   3.319   3.837 -0.1103 -0.0332 -0.0509
  153SAPS  H16R17018   1.509   3.222   3.868 -0.0323  0.5667  1.8545
  153SAPS  H16S17019   1.386   3.292   3.764  1.2519 -0.6417 -1.3769
  153SAPS  C21717020   1.410   3.393   3.961  0.3761  0.4945  0.8563
  153SAPS  H17R17021   1.322   3.344   4.007  0.0496  0.9984  0.7638
  153SAPS  H17S17022   1.382   3.491   3.917 -0.7383 -1.2472 -2.7080
  153SAPS  C21817023   1.511   3.394   4.070 -0.3777  0.0632  0.4398
  153SAPS  H18R17024   1.485   3.476   4.141 -1.8622  1.4334 -1.5667
  153SAPS  H18S17025   1.613   3.421   4.037 -0.0573 -0.4109  1.0198
  153SAPS  C21917026   1.516   3.267   4.157 -0.3356  0.1185  0.2202
  153SAPS  H19R17027   1.530   3.178   4.093 -2.8205 -0.2388  0.0833
  153SAPS  H19S17028   1.414   3.254   4.199 -0.5815  2.8258  0.6883
  153SAPS  C22017029   1.631   3.279   4.260  0.5732  0.0872  0.4869
  153SAPS  H20R17030   1.655   3.189   4.322  2.7703 -0.5406 -1.1660
  153SAPS  H20S17031   1.633   3.368   4.326  2.5947 -0.8928  1.8992
  153SAPS  H20T17032   1.724   3.281   4.199  1.0144 -1.3116  1.0549
  153SAPS   C3317033   1.062   3.532   2.733  0.4198 -0.3076  0.0817
  153SAPS   H3X17034   1.116   3.435   2.738 -0.8849 -1.0238  0.9996
  153SAPS   H3Y17035   0.953   3.516   2.718 -0.1463  3.7447 -1.4659
  153SAPS   C3417036   1.067   3.604   2.873 -0.4591  0.4409  0.2431
  153SAPS   H4X17037   1.036   3.710   2.859  0.0767  0.8123  1.7201
  153SAPS   H4Y17038   1.176   3.589   2.890 -0.9856 -2.5955  1.6057
  153SAPS   C3517039   0.993   3.529   2.981  0.8637 -0.3670 -0.0255
  153SAPS   H5X17040   0.958   3.428   2.950 -0.3002  0.0510 -0.1188
  153SAPS   H5Y17041   0.900   3.584   3.009 -0.8403 -2.5623 -1.0402
  153SAPS   C3617042   1.090   3.509   3.103 -0.0753 -0.4904 -0.5025
  153SAPS   H6X17043   1.140   3.608   3.093 -2.4732  0.6342 -2.5545
  153SAPS   H6Y17044   1.172   3.437   3.079  2.3186  1.5212  1.1752
  153SAPS   C3717045   1.024   3.490   3.236 -0.4576  0.2668 -0.6528
  153SAPS   H7X17046   0.967   3.395   3.243 -1.4298  0.6523 -2.6804
  153SAPS   H7Y17047   0.956   3.577   3.254 -0.0003  0.1332  2.3004
  153SAPS   C3817048   1.118   3.505   3.357 -0.4655  0.6506 -0.2581
  153SAPS   H8X17049   1.184   3.589   3.328 -0.3630  0.9601  0.8332
  153SAPS   H8Y17050   1.178   3.412   3.369  0.6223  1.0216 -2.3424
  153SAPS   C3917051   1.050   3.539   3.483  0.3113 -0.5483 -0.1648
  153SAPS   H9X17052   0.988   3.451   3.511 -0.4268 -0.8986 -2.6573
  153SAPS   H9Y17053   0.989   3.630   3.465  1.3705 -0.1091 -1.7347
  153SAPS  C31017054   1.127   3.572   3.608 -0.5405 -0.4915 -0.4867
  153SAPS  H10X17055   1.163   3.676   3.599 -0.9170 -0.3943 -0.9332
  153SAPS  H10Y17056   1.211   3.500   3.616 -0.1365  0.1251  1.2020
  153SAPS  C31117057   1.037   3.570   3.730 -0.2106  0.3668 -0.4197
  153SAPS  H11X17058   0.948   3.637   3.726 -0.3038  0.2392 -0.5096
  153SAPS  H11Y17059   1.104   3.618   3.804  2.6804  1.7855 -3.6768
  153SAPS  C31217060   0.998   3.436   3.792  0.5520  0.1937 -0.5463
  153SAPS  H12X17061   1.072   3.360   3.760 -1.1709 -1.4635 -0.7812
  153SAPS  H12Y17062   0.902   3.411   3.741  1.6161 -1.7149 -1.7122
  153SAPS  C31317063   0.987   3.426   3.945 -0.0421  0.6936  0.3180
  153SAPS  H13X17064   1.072   3.463   4.006 -0.3266 -0.7584  1.6389
  153SAPS  H13Y17065   0.963   3.323   3.977 -2.1473  0.5243 -1.4956
  153SAPS  C31417066   0.871   3.513   3.997  0.2745  0.4703  0.2128
  153SAPS  H14X17067   0.774   3.484   3.950  2.0366 -2.8543 -1.7613
  153SAPS  H14Y17068   0.890   3.619   3.969 -0.7524  0.4720 -0.5276
  153SAPS  C31517069   0.862   3.508   4.150  0.0188  0.2444  0.2931
  153SAPS  H15X17070   0.965   3.530   4.185  0.9203 -2.0023 -0.7319
  153SAPS  H15Y17071   0.850   3.402   4.181  1.3086 -0.1152 -0.3331
  153SAPS  C31617072   0.769   3.610   4.209 -0.1649 -0.1417  0.8402
  153SAPS  H16X17073   0.674   3.594   4.156  0.2344 -3.4221  0.9503
  153SAPS  H16Y17074   0.810   3.713   4.198  2.2513 -1.1342 -0.0706
  153SAPS  C31717075   0.746   3.586   4.357  0.2315  0.1184 -0.5397
  153SAPS  H17X17076   0.846   3.604   4.404 -0.1078  1.1768 -0.1943
  153SAPS  H17Y17077   0.713   3.486   4.392  1.4684  0.4272  1.7544
  153SAPS  C31817078   0.643   3.678   4.404 -0.1341 -0.3813  0.4465
  153SAPS  H18X17079   0.657   3.722   4.505  1.7114 -2.2902  1.1102
  153SAPS  H18Y17080   0.551   3.616   4.404 -0.2610 -0.2950 -1.8717
  153SAPS  H18Z17081   0.623   3.753   4.324  0.8070 -1.3324 -0.7370
  154SAPS     N17082   0.132   1.066   2.479  0.2550 -0.0283 -0.1566
  154SAPS   HN117083   0.142   1.092   2.379 -1.2670 -1.4398 -0.7280
  154SAPS   HN217084   0.029   1.071   2.496  0.3543  2.4723  0.1713
  154SAPS   HN317085   0.180   1.131   2.545  0.0397  0.4060 -0.4217
  154SAPS   C1217086   0.182   0.923   2.481 -0.7042  0.2275  0.5184
  154SAPS  H12A17087   0.212   0.904   2.583  0.8691 -1.0530 -0.1278
  154SAPS   C1317088   0.089   0.816   2.410 -0.7298 -0.6975  0.3232
  154SAPS  O13A17089  -0.005   0.864   2.342  0.0621 -0.4626  0.3389
  154SAPS  O13B17090   0.129   0.699   2.388  0.3304 -0.2830 -0.5798
  154SAPS   C1117091   0.315   0.918   2.394 -0.3483 -0.0220  0.3532
  154SAPS  H11A17092   0.288   0.915   2.286  0.6513 -0.4376  0.1117
  154SAPS  H11B17093   0.368   0.821   2.408 -0.2512  0.2160  1.8596
  154SAPS     P17094   0.553   1.040   2.434  0.2657  0.1057  0.1172
  154SAPS   O1317095   0.615   0.939   2.346  0.2322  1.1330  0.3612
  154SAPS   O1417096   0.609   1.178   2.427 -0.0820 -0.4588  0.2370
  154SAPS   O1217097   0.398   1.033   2.424 -0.2709  0.2465 -0.2363
  154SAPS   O1117098   0.565   0.997   2.586 -0.2030 -0.2424 -0.4394
  154SAPS    C117099   0.495   1.069   2.688  0.3506  0.4320  0.1938
  154SAPS    HA17100   0.553   1.161   2.711  0.2563  0.2838  1.0782
  154SAPS    HB17101   0.394   1.099   2.654  1.7576  3.3553 -1.7475
  154SAPS    C217102   0.476   0.989   2.823 -0.7231 -0.6299  0.1589
  154SAPS    HS17103   0.575   0.947   2.849 -0.5534 -0.6046 -0.4365
  154SAPS   O2117104   0.376   0.888   2.795 -0.0684  0.4151 -0.5362
  154SAPS   C2117105   0.425   0.766   2.774  0.0100 -0.1667 -0.0118
  154SAPS   O2217106   0.537   0.725   2.803  0.1320  0.1162  0.0629
  154SAPS   C2217107   0.312   0.677   2.714 -0.4946 -0.5943  0.3952
  154SAPS   H2R17108   0.217   0.701   2.768 -0.1493  0.8730  0.3905
  154SAPS   H2S17109   0.293   0.704   2.608 -1.7128 -1.6131  0.3207
  154SAPS    C317110   0.439   1.081   2.940  0.6248 -0.0169 -0.2080
  154SAPS    HX17111   0.348   1.142   2.921  1.0113  0.1536 -1.6358
  154SAPS    HY17112   0.506   1.168   2.959 -0.8356  0.8957  1.0102
  154SAPS   O3117113   0.427   1.008   3.061 -0.0720  0.1578  0.4523
  154SAPS   C3117114   0.312   0.998   3.118 -0.2041  0.1381  0.4194
  154SAPS   O3217115   0.205   1.036   3.077 -0.4372  0.0415  0.2760
  154SAPS   C3217116   0.331   0.921   3.243 -0.8197 -0.2161 -0.1628
  154SAPS   H2X17117   0.419   0.957   3.300  0.2060 -1.4257 -0.9202
  154SAPS   H2Y17118   0.351   0.814   3.221 -1.5812 -0.5058  0.5100
  154SAPS   C2317119   0.345   0.525   2.707  0.0772 -0.0207  0.4877
  154SAPS   H3R17120   0.390   0.498   2.805  1.4627  2.0116  0.4535
  154SAPS   H3S17121   0.430   0.514   2.636  0.2147  0.9915  0.4852
  154SAPS   C2417122   0.218   0.439   2.685  0.2109  0.0221  0.2862
  154SAPS   H4R17123   0.172   0.467   2.588  1.6069  0.5392 -0.2581
  154SAPS   H4S17124   0.156   0.453   2.776  0.1713  2.2594 -0.0220
  154SAPS   C2517125   0.259   0.293   2.673  0.4549  0.2791 -0.4091
  154SAPS   H5R17126   0.284   0.257   2.572 -2.4534  1.5379 -1.6740
  154SAPS   C2617127   0.261   0.202   2.770  0.4151  0.2040  0.1259
  154SAPS   H6R17128   0.290   0.103   2.731  0.1836  1.1292 -2.5871
  154SAPS   C2717129   0.231   0.207   2.918  0.5836 -0.6189 -0.3763
  154SAPS   H7R17130   0.251   0.303   2.971 -1.9661 -0.6653  0.8107
  154SAPS   H7S17131   0.315   0.148   2.960  1.5187  1.8389  1.4704
  154SAPS   C2817132   0.097   0.167   2.959 -0.1747  0.6261 -0.3633
  154SAPS   H8R17133   0.004   0.213   2.920 -2.1910 -0.2087  3.0328
  154SAPS   C2917134   0.072   0.065   3.049 -0.4858 -0.9459  0.2729
  154SAPS   H9R17135  -0.034   0.038   3.063 -0.3946 -1.0189  0.8579
  154SAPS  C21017136   0.171  -0.012   3.128  0.0391 -0.7843 -0.5105
  154SAPS  H10R17137   0.216   0.059   3.201 -0.4923 -0.0147 -0.9188
  154SAPS  H10S17138   0.261  -0.042   3.070  0.3120  0.2479 -0.6548
  154SAPS  C21117139   0.117  -0.134   3.201 -0.2535  0.5281  0.0414
  154SAPS  H11R17140   0.049  -0.192   3.136 -1.2957 -0.2202  1.7339
  154SAPS  C21217141   0.111  -0.164   3.329 -0.0310 -0.2518  0.2306
  154SAPS  H12R17142   0.060  -0.259   3.349  0.0826 -0.6256 -1.1574
  154SAPS  C21317143   0.166  -0.091   3.454 -0.5521 -0.3242  0.3497
  154SAPS  H13R17144   0.084  -0.078   3.528 -1.1360  1.0207 -0.5008
  154SAPS  H13S17145   0.207   0.008   3.425 -0.3018 -0.9137 -1.4370
  154SAPS  C21417146   0.280  -0.157   3.527 -0.2887  0.0100  0.5426
  154SAPS  H14R17147   0.367  -0.182   3.465  0.6834  0.7815  1.5388
  154SAPS  C21517148   0.292  -0.178   3.662 -1.5830 -0.8893  0.3322
  154SAPS  H15R17149   0.382  -0.236   3.683 -0.6695 -0.0869 -1.1469
  154SAPS  C21617150   0.194  -0.147   3.767  0.2138 -0.8142 -0.3766
  154SAPS  H16R17151   0.105  -0.096   3.723  0.9457 -0.1007 -1.0780
  154SAPS  H16S17152   0.238  -0.081   3.844  0.3447 -0.3474 -0.8496
  154SAPS  C21717153   0.137  -0.259   3.848 -0.1588  0.1768  0.1097
  154SAPS  H17R17154   0.227  -0.317   3.881 -0.5754 -0.0617  0.8402
  154SAPS  H17S17155   0.065  -0.328   3.799 -1.8559  1.5946  0.5238
  154SAPS  C21817156   0.063  -0.204   3.969  0.2496  0.1276 -0.4205
  154SAPS  H18R17157  -0.043  -0.184   3.942  0.2437 -0.0437 -0.5256
  154SAPS  H18S17158   0.118  -0.118   4.013  0.5587 -0.8855  1.2316
  154SAPS  C21917159   0.059  -0.296   4.082 -0.3286 -0.0646 -0.0411
  154SAPS  H19R17160   0.159  -0.328   4.119  0.1956  1.8358  0.2890
  154SAPS  H19S17161   0.006  -0.385   4.041  0.1890 -0.8121  0.8609
  154SAPS  C22017162  -0.027  -0.240   4.190 -0.1402 -0.8230  0.2395
  154SAPS  H20R17163  -0.128  -0.204   4.160  0.1196  2.0003  2.2674
  154SAPS  H20S17164   0.022  -0.153   4.239  0.3694 -0.4858 -0.8486
  154SAPS  H20T17165  -0.054  -0.318   4.264 -1.4129 -1.0761 -0.4516
  154SAPS   C3317166   0.201   0.933   3.322  0.1480  0.9084  0.0335
  154SAPS   H3X17167   0.119   0.886   3.265  2.7175 -2.6664 -1.0310
  154SAPS   H3Y17168   0.178   1.039   3.346  1.2570  1.3378 -0.7260
  154SAPS   C3417169   0.217   0.840   3.445 -0.9751  0.0268  0.5267
  154SAPS   H4X17170   0.293   0.885   3.512  1.4032  0.2769 -2.1911
  154SAPS   H4Y17171   0.249   0.736   3.423  1.0409  0.4435  1.3082
  154SAPS   C3517172   0.095   0.823   3.528 -0.0711 -0.1537 -0.0162
  154SAPS   H5X17173   0.018   0.785   3.458 -1.4052  0.6767  0.9456
  154SAPS   H5Y17174   0.058   0.914   3.579  2.3753  1.7424 -1.4217
  154SAPS   C3617175   0.105   0.713   3.633 -0.0167  0.3674  0.2339
  154SAPS   H6X17176   0.191   0.735   3.700  0.0992  0.5429  0.0295
  154SAPS   H6Y17177   0.131   0.621   3.576 -0.5710 -1.4312  2.7146
  154SAPS   C3717178  -0.026   0.692   3.703  0.0708  0.0587  0.1811
  154SAPS   H7X17179  -0.074   0.608   3.649  1.8326 -0.5397 -0.5336
  154SAPS   H7Y17180  -0.083   0.788   3.705 -1.9949 -1.1161  0.1930
  154SAPS   C3817181  -0.012   0.648   3.850 -0.1100  0.5147  0.4223
  154SAPS   H8X17182   0.036   0.548   3.839 -0.3705  0.2573  1.5634
  154SAPS   H8Y17183  -0.109   0.629   3.899  1.3809 -1.6222  2.7999
  154SAPS   C3917184   0.082   0.736   3.928 -0.5840 -0.1791 -0.6759
  154SAPS   H9X17185   0.041   0.840   3.926 -0.1950 -0.0325 -1.5157
  154SAPS   H9Y17186   0.190   0.747   3.904 -0.4658 -0.6239 -0.3589
  154SAPS  C31017187   0.079   0.706   4.080  0.1017  0.0738  0.6056
  154SAPS  H10X17188  -0.023   0.694   4.122  0.8108  0.7428  2.6576
  154SAPS  H10Y17189   0.123   0.792   4.136  1.8501 -1.3585  1.5300
  154SAPS  C31117190   0.152   0.572   4.103 -0.0430  0.8600 -0.2880
  154SAPS  H11X17191   0.226   0.561   4.021 -2.2427  1.0309 -2.4170
  154SAPS  H11Y17192   0.090   0.480   4.100  1.2062 -0.0844  1.2649
  154SAPS  C31217193   0.227   0.571   4.236  0.3782  0.4222  0.2985
  154SAPS  H12X17194   0.306   0.649   4.247 -1.6859  2.3860  2.2139
  154SAPS  H12Y17195   0.269   0.469   4.241  0.9321  0.7060  2.2177
  154SAPS  C31317196   0.124   0.578   4.355  0.3174  0.3295  0.7721
  154SAPS  H13X17197   0.033   0.517   4.339  0.1676  0.5875  0.6345
  154SAPS  H13Y17198   0.098   0.686   4.362 -1.5514 -0.1342  1.7772
  154SAPS  C31417199   0.198   0.541   4.490  0.4839  0.2780  0.7245
  154SAPS  H14X17200   0.287   0.607   4.491  0.2021  0.8147 -1.6893
  154SAPS  H14Y17201   0.234   0.437   4.476 -0.7434  0.1474 -2.2924
  154SAPS  C31517202   0.100   0.565   4.605 -0.2400 -0.6890 -0.1128
  154SAPS  H15X17203   0.007   0.517   4.567 -0.7441  1.0863 -1.2055
  154SAPS  H15Y17204   0.085   0.675   4.603  0.4769 -0.5769  0.3122
  154SAPS  C31617205   0.134   0.518   4.748 -0.8318 -0.1642 -0.6378
  154SAPS  H16X17206   0.058   0.545   4.824 -0.2320  0.5100 -0.2613
  154SAPS  H16Y17207   0.228   0.565   4.784 -1.3885  0.8560 -0.4823
  154SAPS  C31717208   0.164   0.369   4.758 -0.2655  0.0298  0.0100
  154SAPS  H17X17209   0.223   0.353   4.666  0.7904  3.2279 -0.0037
  154SAPS  H17Y17210   0.067   0.316   4.751  0.7228 -2.0482  0.9444
  154SAPS  C31817211   0.235   0.334   4.889  0.1470  0.1560  0.1895
  154SAPS  H18X17212   0.199   0.371   4.987 -0.9010 -1.9811  0.6779
  154SAPS  H18Y17213   0.337   0.376   4.875  0.8913 -0.7848  2.3470
  154SAPS  H18Z17214   0.240   0.223   4.898  1.9478  0.2868  1.1751
  155SAPS     N17215   0.736   5.145   2.041 -0.4309  0.8328  0.3633
  155SAPS   HN117216   0.706   5.045   2.033 -1.9500  1.0946  2.0856
  155SAPS   HN217217   0.768   5.165   2.137 -2.5104 -0.3974  1.3760
  155SAPS   HN317218   0.648   5.197   2.023 -2.3704 -2.1255  0.4853
  155SAPS   C1217219   0.839   5.174   1.938 -0.5314  0.7904 -0.4695
  155SAPS  H12A17220   0.839   5.104   1.855  1.6379 -2.6658  2.1850
  155SAPS   C1317221   0.828   5.318   1.892  0.1144 -0.3770  0.6603
  155SAPS  O13A17222   0.723   5.383   1.917 -0.1197  0.2001 -0.0357
  155SAPS  O13B17223   0.902   5.355   1.794  0.1446 -0.0890  0.1422
  155SAPS   C1117224   0.975   5.148   1.999 -0.3822  0.3362 -0.0305
  155SAPS  H11A17225   1.006   5.203   2.090 -0.3326 -0.7851  0.6463
  155SAPS  H11B17226   1.034   5.179   1.909 -0.4206  1.1996  0.2277
  155SAPS     P17227   1.140   4.958   2.082  0.0662 -0.1397 -0.3449
  155SAPS   O1317228   1.175   4.827   2.016  0.8870 -0.0586 -0.0028
  155SAPS   O1417229   1.246   5.062   2.055  0.0389 -0.0194 -0.1034
  155SAPS   O1217230   1.001   5.010   2.030 -1.0126 -0.4258  0.4035
  155SAPS   O1117231   1.115   4.940   2.239  0.1309 -0.1443 -0.2471
  155SAPS    C117232   0.984   4.966   2.293 -0.8771  0.2612  0.6265
  155SAPS    HA17233   0.955   5.070   2.267 -0.3529  0.0461 -0.9416
  155SAPS    HB17234   0.904   4.909   2.242 -0.4234  1.2934 -1.3309
  155SAPS    C217235   0.973   4.961   2.446  0.0435 -0.3158 -0.2853
  155SAPS    HS17236   0.895   5.037   2.471  0.1100 -0.0149 -0.9494
  155SAPS   O2117237   1.095   4.986   2.513 -0.3379  0.8809  0.4681
  155SAPS   C2117238   1.134   5.112   2.500 -0.9576 -0.2369  0.4802
  155SAPS   O2217239   1.068   5.198   2.445  0.1526 -0.4670 -0.2616
  155SAPS   C2217240   1.271   5.131   2.567  0.2175  0.3079 -0.2681
  155SAPS   H2R17241   1.311   5.034   2.603 -1.5391 -0.0179  0.9595
  155SAPS   H2S17242   1.342   5.156   2.486  0.9792  1.9651  0.8680
  155SAPS    C317243   0.911   4.832   2.496  1.1864  0.3133 -0.2582
  155SAPS    HX17244   0.968   4.752   2.443  0.5174  1.0270 -2.1208
  155SAPS    HY17245   0.808   4.824   2.457  1.0620 -0.1946  0.1668
  155SAPS   O3117246   0.920   4.822   2.639  0.0825  0.2220  0.6125
  155SAPS   C3117247   0.823   4.895   2.703  0.0758 -0.5164 -0.6027
  155SAPS   O3217248   0.763   4.989   2.661  0.1115 -0.0356 -0.2066
  155SAPS   C3217249   0.808   4.849   2.848 -0.1486  0.4431 -0.3847
  155SAPS   H2X17250   0.901   4.791   2.867  0.1820  0.8034 -0.8627
  155SAPS   H2Y17251   0.722   4.780   2.849  1.9921 -2.3962  0.5909
  155SAPS   C2317252   1.278   5.252   2.662 -0.3724 -0.5330  0.7277
  155SAPS   H3R17253   1.271   5.346   2.602  2.5122 -1.3226 -1.0841
  155SAPS   H3S17254   1.375   5.252   2.717  0.6788 -3.3395 -0.8924
  155SAPS   C2417255   1.163   5.258   2.770 -0.0875 -0.4546  0.7923
  155SAPS   H4R17256   1.067   5.273   2.717  0.8067 -1.7901 -1.3335
  155SAPS   H4S17257   1.170   5.349   2.832  1.3034  1.0934 -1.4961
  155SAPS   C2517258   1.160   5.130   2.855  0.4717 -1.1460  0.1995
  155SAPS   H5R17259   1.168   5.038   2.795  0.0859 -0.7800 -0.4282
  155SAPS   C2617260   1.199   5.131   2.992  0.3213 -0.5237 -0.3866
  155SAPS   H6R17261   1.222   5.035   3.041 -0.0535  0.7761  2.5441
  155SAPS   C2717262   1.244   5.247   3.086  0.4058  0.1620  0.0510
  155SAPS   H7R17263   1.256   5.336   3.020  0.3202  1.5827  1.8900
  155SAPS   H7S17264   1.339   5.221   3.138  1.7363  2.7788 -0.8566
  155SAPS   C2817265   1.135   5.288   3.192  0.1395 -0.7415 -0.8261
  155SAPS   H8R17266   1.051   5.347   3.152  0.7802  1.8963  1.4268
  155SAPS   C2917267   1.108   5.223   3.306 -0.1020 -0.3558  0.5581
  155SAPS   H9R17268   1.047   5.265   3.387  1.1485  0.2970  1.1907
  155SAPS  C21017269   1.195   5.111   3.355 -0.3345 -0.0528 -0.4144
  155SAPS  H10R17270   1.276   5.154   3.419  0.4298 -0.3765 -1.1416
  155SAPS  H10S17271   1.247   5.061   3.270  2.4603 -0.0573  1.1643
  155SAPS  C21117272   1.107   5.012   3.426  0.6277  1.0281 -0.5566
  155SAPS  H11R17273   1.058   4.931   3.370 -0.2024  0.3580  1.0481
  155SAPS  C21217274   1.082   5.006   3.559 -0.0802  0.0695  0.0910
  155SAPS  H12R17275   1.015   4.927   3.595 -1.5777  0.7437 -1.0863
  155SAPS  C21317276   1.140   5.090   3.664 -0.1472 -0.9827 -0.5652
  155SAPS  H13R17277   1.176   5.179   3.607  0.0450 -1.0738 -0.5893
  155SAPS  H13S17278   1.226   5.032   3.705 -0.7814 -0.8435  1.0409
  155SAPS  C21417279   1.037   5.129   3.769 -0.0971 -0.1948  0.3553
  155SAPS  H14R17280   0.948   5.183   3.732 -1.3005 -0.7327  2.2956
  155SAPS  C21517281   1.030   5.079   3.895  0.9657 -0.7404 -0.1221
  155SAPS  H15R17282   0.945   5.110   3.958  2.2371  1.8417  0.4450
  155SAPS  C21617283   1.123   4.984   3.964 -0.2330 -0.0554  0.3674
  155SAPS  H16R17284   1.225   4.994   3.922 -0.1455 -2.5034 -0.1397
  155SAPS  H16S17285   1.087   4.885   3.930  2.9937 -1.6235  1.2087
  155SAPS  C21717286   1.121   4.983   4.122  0.0075 -0.6657  0.0097
  155SAPS  H17R17287   1.188   4.898   4.149  2.1443  0.3097 -1.8688
  155SAPS  H17S17288   1.014   4.986   4.152 -0.5465  2.7131 -1.7343
  155SAPS  C21817289   1.193   5.109   4.173  0.6749 -0.0515 -0.4042
  155SAPS  H18R17290   1.130   5.192   4.135  0.6122 -0.8257 -2.1071
  155SAPS  H18S17291   1.291   5.111   4.121  1.0348  0.4942  0.2844
  155SAPS  C21917292   1.204   5.103   4.325 -0.5007 -0.3188  0.9681
  155SAPS  H19R17293   1.267   5.190   4.353  1.4398 -0.4538 -2.4615
  155SAPS  H19S17294   1.268   5.019   4.361  1.8144 -0.6997 -3.3250
  155SAPS  C22017295   1.068   5.109   4.395  0.0898 -0.2108 -0.7271
  155SAPS  H20R17296   1.080   5.108   4.505 -0.4889 -1.3162 -0.6550
  155SAPS  H20S17297   1.005   5.021   4.368  1.3837 -1.5804  0.4851
  155SAPS  H20T17298   1.020   5.202   4.360  2.5429  0.7575 -1.7754
  155SAPS   C3317299   0.790   4.968   2.942 -0.2565 -0.1908 -0.2329
  155SAPS   H3X17300   0.701   5.032   2.919 -1.2422 -0.1401  3.2409
  155SAPS   H3Y17301   0.888   5.020   2.944 -0.7685  0.8184 -0.6853
  155SAPS   C3417302   0.756   4.919   3.088 -0.3353  0.1392 -0.0780
  155SAPS   H4X17303   0.829   4.841   3.117  0.4413  0.1361 -1.8756
  155SAPS   H4Y17304   0.654   4.875   3.101 -0.8781  1.6911  1.2806
  155SAPS   C3517305   0.771   5.031   3.192  0.4384  0.1683 -0.1999
  155SAPS   H5X17306   0.710   5.112   3.146 -1.8086 -0.9627  0.6782
  155SAPS   H5Y17307   0.878   5.059   3.202  0.5498 -0.5787  0.8326
  155SAPS   C3617308   0.723   4.988   3.323  0.1673  0.5683  0.3399
  155SAPS   H6X17309   0.798   4.921   3.371  2.2057  2.9233  0.6021
  155SAPS   H6Y17310   0.626   4.935   3.311  0.8384 -0.0514 -3.6569
  155SAPS   C3717311   0.709   5.104   3.425  0.6693  0.2864  0.7314
  155SAPS   H7X17312   0.646   5.184   3.380  1.1455  0.5178  0.4700
  155SAPS   H7Y17313   0.812   5.140   3.447  1.6263 -0.8311 -1.4986
  155SAPS   C3817314   0.632   5.049   3.547 -0.5436  0.2422  0.0353
  155SAPS   H8X17315   0.696   4.969   3.589  0.8087  2.7707  3.3059
  155SAPS   H8Y17316   0.532   5.012   3.517  0.4958 -1.6426 -1.3520
  155SAPS   C3917317   0.611   5.161   3.651 -0.3578 -0.5826 -0.6124
  155SAPS   H9X17318   0.559   5.250   3.610  1.7256  1.5609  1.1064
  155SAPS   H9Y17319   0.715   5.189   3.678  0.2507 -1.4694 -1.9466
  155SAPS  C31017320   0.545   5.110   3.773 -0.5666  0.3848 -0.0220
  155SAPS  H10X17321   0.556   4.999   3.774  0.2266  0.4205  2.1165
  155SAPS  H10Y17322   0.437   5.132   3.767 -0.6975 -0.4486 -0.9130
  155SAPS  C31117323   0.602   5.155   3.906  0.0838 -0.3462 -0.4801
  155SAPS  H11X17324   0.607   5.266   3.905  0.7166 -0.2521  2.5965
  155SAPS  H11Y17325   0.707   5.119   3.916  0.4328  0.9518  0.8724
  155SAPS  C31217326   0.531   5.116   4.032  0.5749 -0.1680 -0.4500
  155SAPS  H12X17327   0.525   5.005   4.040 -0.2774 -0.0908  0.0938
  155SAPS  H12Y17328   0.425   5.148   4.024  0.6903 -0.0291 -1.4482
  155SAPS  C31317329   0.577   5.186   4.161  0.5134 -0.3415 -0.0755
  155SAPS  H13X17330   0.580   5.294   4.139 -1.0232 -0.5837 -1.7548
  155SAPS  H13Y17331   0.686   5.173   4.176  0.7208  1.4661  0.1850
  155SAPS  C31417332   0.502   5.139   4.292  0.1592 -0.1313  0.5142
  155SAPS  H14X17333   0.472   5.034   4.270 -1.2023  0.1670  0.8464
  155SAPS  H14Y17334   0.401   5.185   4.288 -0.4264 -1.4461 -0.8462
  155SAPS  C31517335   0.576   5.167   4.425 -0.6002  0.1251  0.3273
  155SAPS  H15X17336   0.589   5.277   4.423 -0.3930  0.0995 -0.9241
  155SAPS  H15Y17337   0.675   5.117   4.420 -1.3923 -1.6520  1.1610
  155SAPS  C31617338   0.505   5.116   4.555 -0.8330 -0.8917  0.6616
  155SAPS  H16X17339   0.456   5.018   4.534  1.7289 -1.8729 -1.1969
  155SAPS  H16Y17340   0.423   5.188   4.578 -0.1430 -0.5000  1.9980
  155SAPS  C31717341   0.587   5.110   4.682 -0.2636  0.5181 -0.7133
  155SAPS  H17X17342   0.609   5.214   4.715 -2.2665  0.3603  1.3832
  155SAPS  H17Y17343   0.689   5.069   4.663  0.0615 -0.3942  2.4896
  155SAPS  C31817344   0.516   5.044   4.803  0.6192  0.3670 -0.3348
  155SAPS  H18X17345   0.521   5.096   4.901 -1.2855 -1.6893  0.9564
  155SAPS  H18Y17346   0.565   4.945   4.815 -0.9737 -0.5339 -0.8794
  155SAPS  H18Z17347   0.413   5.029   4.764  2.7624 -3.9576 -5.6939
  156SAPS     N17348   6.799   3.107   2.138 -0.0218  0.0302 -0.0866
  156SAPS   HN117349   6.837   3.122   2.234 -1.5204 -0.0958  0.5547
  156SAPS   HN217350   6.847   3.020   2.109  0.2533  0.4503 -0.8959
  156SAPS   HN317351   6.832   3.180   2.071  3.0858 -1.0789  0.0899
  156SAPS   C1217352   6.648   3.104   2.131  0.2803  0.2440 -0.3453
  156SAPS  H12A17353   6.620   3.208   2.136  0.4617  0.3020 -0.5147
  156SAPS   C1317354   6.579   3.059   2.001  0.0732 -0.5793  0.3476
  156SAPS  O13A17355   6.657   3.041   1.904 -0.1636  0.1031  0.5701
  156SAPS  O13B17356   6.456   3.084   1.990  0.0300  0.0633 -0.0326
  156SAPS   C1117357   6.596   3.044   2.262  0.0021 -0.5874 -0.2653
  156SAPS  H11A17358   6.659   2.955   2.284 -0.9228 -1.9046 -2.5350
  156SAPS  H11B17359   6.491   3.010   2.244  0.1298 -0.5224 -1.1976
  156SAPS     P17360   6.567   3.076   2.516 -0.2071 -0.1221  0.1088
  156SAPS   O1317361   6.696   3.057   2.588  0.0946 -0.4929 -0.0238
  156SAPS   O1417362   6.462   3.161   2.576 -0.1158 -0.4077 -0.3084
  156SAPS   O1217363   6.595   3.139   2.372 -0.2699 -0.2054 -0.7242
  156SAPS   O1117364   6.506   2.936   2.479  0.6148 -0.3418  0.1953
  156SAPS    C117365   6.389   2.889   2.531  0.0644  0.6664  0.4332
  156SAPS    HA17366   6.335   2.949   2.607  0.8321  0.8971  0.8108
  156SAPS    HB17367   6.316   2.878   2.449  0.9898 -0.6796 -0.2527
  156SAPS    C217368   6.414   2.746   2.588 -0.1909  0.1580 -0.2468
  156SAPS    HS17369   6.318   2.691   2.595  0.0810 -0.5525 -1.5344
  156SAPS   O2117370   6.492   2.751   2.709 -0.5085  0.1562  0.4697
  156SAPS   C2117371   6.420   2.773   2.817  1.5609  0.9989 -0.2375
  156SAPS   O2217372   6.302   2.806   2.823  0.1506  0.2002  0.0809
  156SAPS   C2217373   6.502   2.738   2.937  0.0482  0.4199  0.1309
  156SAPS   H2R17374   6.537   2.633   2.937 -1.2537 -0.0586  1.5377
  156SAPS   H2S17375   6.598   2.791   2.926 -0.1899  0.5265 -1.6757
  156SAPS    C317376   6.512   2.686   2.482 -0.0142 -0.3837 -0.4049
  156SAPS    HX17377   6.610   2.739   2.479 -0.1077  0.1118  2.6316
  156SAPS    HY17378   6.467   2.694   2.380 -0.6147  1.8955 -0.0133
  156SAPS   O3117379   6.538   2.551   2.514 -0.8935  0.2904 -0.2215
  156SAPS   C3117380   6.457   2.461   2.459  0.0653 -0.5495 -0.3527
  156SAPS   O3217381   6.364   2.483   2.384 -1.0677  0.4756 -0.2200
  156SAPS   C3217382   6.494   2.315   2.494 -0.0531 -0.5481  0.4434
  156SAPS   H2X17383   6.605   2.313   2.499  0.0475  0.6500 -0.9093
  156SAPS   H2Y17384   6.476   2.253   2.404  4.0537  0.0617 -1.0110
  156SAPS   C2317385   6.431   2.763   3.076  1.1614  0.2194 -0.7599
  156SAPS   H3R17386   6.331   2.714   3.085  1.1090  0.1229 -1.7873
  156SAPS   H3S17387   6.400   2.869   3.080  1.8306  0.4192 -0.8166
  156SAPS   C2417388   6.528   2.743   3.186  0.0458 -0.0261 -0.7843
  156SAPS   H4R17389   6.504   2.805   3.275  1.4598  2.1696 -1.8388
  156SAPS   H4S17390   6.622   2.786   3.145  0.4264  1.6860  1.6270
  156SAPS   C2517391   6.542   2.599   3.222 -0.1430  0.6760 -0.2149
  156SAPS   H5R17392   6.568   2.538   3.135  0.2770  1.0052 -0.3242
  156SAPS   C2617393   6.531   2.531   3.340  0.6571 -0.5072 -0.0664
  156SAPS   H6R17394   6.554   2.424   3.345  0.3088 -0.5317  1.4160
  156SAPS   C2717395   6.483   2.581   3.476 -0.2650  0.3114  0.0547
  156SAPS   H7R17396   6.440   2.489   3.521  2.7159 -2.9930 -3.1209
  156SAPS   H7S17397   6.410   2.664   3.475  1.5287  1.9851  0.5865
  156SAPS   C2817398   6.599   2.635   3.553  0.0987  0.0678 -0.3837
  156SAPS   H8R17399   6.681   2.675   3.492 -0.2441  1.0088 -0.2433
  156SAPS   C2917400   6.617   2.649   3.684 -0.2505 -0.7420 -0.8915
  156SAPS   H9R17401   6.698   2.713   3.721  0.5811 -0.3259 -3.2410
  156SAPS  C21017402   6.510   2.617   3.788 -0.6591  0.5285 -0.5530
  156SAPS  H10R17403   6.561   2.544   3.854 -2.5877 -1.3926 -1.0642
  156SAPS  H10S17404   6.417   2.567   3.754  0.7559 -4.1237  1.6620
  156SAPS  C21117405   6.467   2.738   3.862 -0.3701  0.2472  0.2782
  156SAPS  H11R17406   6.452   2.835   3.813 -1.1689  0.5195  1.0287
  156SAPS  C21217407   6.440   2.744   3.993 -0.0438  0.4692  0.4730
  156SAPS  H12R17408   6.391   2.836   4.027  1.1128  1.0851  0.5166
  156SAPS  C21317409   6.462   2.637   4.090  0.1395  0.4846  0.5289
  156SAPS  H13R17410   6.460   2.533   4.051  0.1106  1.1500 -1.3226
  156SAPS  H13S17411   6.371   2.642   4.154 -0.5650 -0.5347 -0.3584
  156SAPS  C21417412   6.592   2.653   4.158 -0.5404  0.2522 -0.1389
  156SAPS  H14R17413   6.651   2.739   4.126 -0.0358 -0.5938 -1.5539
  156SAPS  C21517414   6.642   2.578   4.254  0.1032 -0.0039  0.0806
  156SAPS  H15R17415   6.750   2.587   4.270  0.1095  0.2597 -0.0964
  156SAPS  C21617416   6.565   2.465   4.324 -0.2473 -0.0137  0.0465
  156SAPS  H16R17417   6.461   2.443   4.291 -0.2991 -1.0726  0.8752
  156SAPS  H16S17418   6.566   2.476   4.434 -0.4970  0.1433  0.0365
  156SAPS  C21717419   6.647   2.336   4.307  0.3320 -0.6730 -0.2294
  156SAPS  H17R17420   6.594   2.273   4.381  0.0977  0.3419  0.4989
  156SAPS  H17S17421   6.753   2.355   4.332 -0.4153  0.0175  2.9662
  156SAPS  C21817422   6.636   2.262   4.169  0.3215 -0.0488 -0.6271
  156SAPS  H18R17423   6.679   2.319   4.083 -0.5835  1.1220 -0.3431
  156SAPS  H18S17424   6.528   2.253   4.144 -0.1376  1.8911  0.4425
  156SAPS  C21917425   6.701   2.120   4.169  0.2895 -0.7222 -0.2726
  156SAPS  H19R17426   6.678   2.076   4.268 -1.8710  1.9174  0.4926
  156SAPS  H19S17427   6.810   2.144   4.164  0.3312 -0.9939 -0.7501
  156SAPS  C22017428   6.679   2.021   4.054  0.0582 -0.1526  0.0101
  156SAPS  H20R17429   6.574   2.012   4.018  0.3116 -0.3572 -0.7089
  156SAPS  H20S17430   6.711   1.917   4.077  0.1580 -0.0144  0.4906
  156SAPS  H20T17431   6.736   2.059   3.966 -1.2731 -0.6084 -1.1007
  156SAPS   C3317432   6.440   2.252   2.630  0.3372  0.0950  0.0969
  156SAPS   H3X17433   6.498   2.159   2.650  0.2638 -0.1460 -0.7835
  156SAPS   H3Y17434   6.333   2.228   2.615  0.4528 -0.1504 -0.3546
  156SAPS   C3417435   6.474   2.348   2.749 -0.7349  0.3089  0.0370
  156SAPS   H4X17436   6.387   2.414   2.773 -0.7547  0.4039 -0.3032
  156SAPS   H4Y17437   6.556   2.414   2.715  0.4770 -0.9518  0.4413
  156SAPS   C3517438   6.523   2.268   2.874  0.5006  0.1302 -0.1160
  156SAPS   H5X17439   6.549   2.345   2.950 -0.7365 -0.2869  0.7467
  156SAPS   H5Y17440   6.608   2.201   2.851  1.2906  1.0403  0.0621
  156SAPS   C3617441   6.400   2.193   2.937 -0.6271 -0.4054  0.9065
  156SAPS   H6X17442   6.350   2.124   2.865  2.2439  0.1827 -1.8996
  156SAPS   H6Y17443   6.327   2.270   2.970 -1.4079 -1.1507  0.9785
  156SAPS   C3717444   6.447   2.112   3.058  0.2664 -0.3503 -0.1091
  156SAPS   H7X17445   6.491   2.187   3.126  0.6024 -0.8429  0.2163
  156SAPS   H7Y17446   6.518   2.038   3.018  0.1995 -0.4883  0.0286
  156SAPS   C3817447   6.332   2.046   3.136  0.4362  0.0960  0.3807
  156SAPS   H8X17448   6.270   1.979   3.073  0.0460  0.3352  0.5070
  156SAPS   H8Y17449   6.269   2.124   3.184 -1.8862 -1.1530 -0.5144
  156SAPS   C3917450   6.392   1.955   3.245  0.3906 -0.0050  0.5027
  156SAPS   H9X17451   6.448   2.034   3.300 -1.9604  2.5856 -0.5901
  156SAPS   H9Y17452   6.449   1.868   3.207 -2.7527 -1.1615 -1.9898
  156SAPS  C31017453   6.282   1.906   3.351  0.0893 -0.6999 -0.4672
  156SAPS  H10X17454   6.190   1.868   3.301 -1.1447 -0.6117  1.6233
  156SAPS  H10Y17455   6.249   1.998   3.404 -0.8863 -0.2766 -1.7590
  156SAPS  C31117456   6.323   1.803   3.459 -0.5327 -0.2724 -0.0990
  156SAPS  H11X17457   6.241   1.793   3.533 -1.3709  1.4739 -0.7269
  156SAPS  H11Y17458   6.408   1.846   3.516  0.0715 -2.2793  0.5701
  156SAPS  C31217459   6.356   1.664   3.411 -0.1780  0.4207 -0.4399
  156SAPS  H12X17460   6.374   1.602   3.502  0.1628  0.5306 -0.4327
  156SAPS  H12Y17461   6.447   1.671   3.348 -0.1697  2.5350 -0.2489
  156SAPS  C31317462   6.234   1.602   3.341  0.5494 -0.3367  0.4631
  156SAPS  H13X17463   6.238   1.664   3.250  0.9069 -0.2101  0.5613
  156SAPS  H13Y17464   6.139   1.624   3.393  1.3709  3.8805  0.5301
  156SAPS  C31417465   6.250   1.447   3.306  0.4331  1.2674  0.6718
  156SAPS  H14X17466   6.356   1.421   3.287  0.4875  1.7392  0.3033
  156SAPS  H14Y17467   6.194   1.423   3.213  0.3606 -0.4957  1.1389
  156SAPS  C31517468   6.182   1.352   3.405 -0.6606 -0.0804 -0.3605
  156SAPS  H15X17469   6.096   1.412   3.441  1.5702  0.9459  3.7465
  156SAPS  H15Y17470   6.235   1.333   3.500 -2.2972  0.2261  0.6563
  156SAPS  C31617471   6.130   1.226   3.337 -0.5137  0.3747 -0.3350
  156SAPS  H16X17472   6.087   1.249   3.237 -1.1586 -0.9108 -0.3718
  156SAPS  H16Y17473   6.042   1.198   3.399 -0.4388 -1.1540 -0.8761
  156SAPS  C31717474   6.237   1.114   3.329 -0.5219 -0.0049  0.8793
  156SAPS  H17X17475   6.256   1.073   3.431 -0.6408 -2.5222 -0.0505
  156SAPS  H17Y17476   6.331   1.153   3.283 -2.3417  0.8642 -2.4136
  156SAPS  C31817477   6.195   1.006   3.231  0.1718  0.0165  0.5605
  156SAPS  H18X17478   6.280   0.942   3.198  0.4448  1.0132 -0.7604
  156SAPS  H18Y17479   6.143   1.039   3.138  3.1036 -0.9465 -1.5954
  156SAPS  H18Z17480   6.117   0.941   3.275 -1.5069  0.8354 -1.0815
  157SAPS     N17481   4.800   1.492   1.805  1.0923  0.3029 -0.2054
  157SAPS   HN117482   4.785   1.450   1.711 -2.4992 -2.0304  1.1813
  157SAPS   HN217483   4.724   1.453   1.865  2.3586 -0.0649  1.2198
  157SAPS   HN317484   4.785   1.595   1.799  1.0124  0.2652 -0.7118
  157SAPS   C1217485   4.928   1.444   1.872  0.5270 -0.4436  0.5258
  157SAPS  H12A17486   4.931   1.342   1.837 -0.3682 -0.2810 -0.0701
  157SAPS   C1317487   5.057   1.514   1.828  0.3443 -0.0296 -1.2904
  157SAPS  O13A17488   5.061   1.589   1.725 -0.4414 -0.1923 -0.1159
  157SAPS  O13B17489   5.163   1.485   1.892  0.0269 -0.4521 -0.0469
  157SAPS   C1117490   4.908   1.446   2.029  0.8054 -0.4111  0.7135
  157SAPS  H11A17491   5.009   1.418   2.066 -0.2010 -2.1968  2.2817
  157SAPS  H11B17492   4.856   1.359   2.073 -0.7549  0.7401  1.2446
  157SAPS     P17493   4.718   1.598   2.118  0.1060 -0.4026 -0.2744
  157SAPS   O1317494   4.685   1.742   2.117 -0.4970  0.1471  0.0496
  157SAPS   O1417495   4.630   1.520   2.031 -0.0408 -0.3493  0.2621
  157SAPS   O1217496   4.867   1.571   2.091 -0.6247 -0.0720  0.6156
  157SAPS   O1117497   4.702   1.549   2.269  0.1097  0.4727 -0.2545
  157SAPS    C117498   4.774   1.434   2.309  0.0431 -0.1891  0.4399
  157SAPS    HA17499   4.740   1.348   2.247  0.0209  0.5546 -0.6159
  157SAPS    HB17500   4.883   1.444   2.295 -0.1688  2.2295  0.1302
  157SAPS    C217501   4.770   1.396   2.461 -0.5247  0.3974 -0.1137
  157SAPS    HS17502   4.817   1.298   2.485 -0.6885  0.5052  0.6963
  157SAPS   O2117503   4.632   1.379   2.503 -0.5144 -0.3872 -0.5142
  157SAPS   C2117504   4.583   1.262   2.469 -0.5801  0.1111  0.5536
  157SAPS   O2217505   4.642   1.166   2.426 -0.2896 -0.8918  0.2143
  157SAPS   C2217506   4.434   1.254   2.497  0.0962  0.0705  0.2300
  157SAPS   H2R17507   4.408   1.341   2.562  1.4887  0.8122 -0.1616
  157SAPS   H2S17508   4.365   1.266   2.411 -1.8606 -3.5840  1.0822
  157SAPS    C317509   4.836   1.498   2.556  0.2541 -0.1895  0.5495
  157SAPS    HX17510   4.822   1.599   2.512 -0.1469 -0.6010 -0.3025
  157SAPS    HY17511   4.944   1.481   2.537  0.5602  2.4598 -0.4964
  157SAPS   O3117512   4.790   1.497   2.695 -0.1472 -0.2323 -0.3439
  157SAPS   C3117513   4.876   1.434   2.776 -0.4456 -0.3422  0.0347
  157SAPS   O3217514   4.975   1.374   2.739 -0.0073 -0.0536  0.2998
  157SAPS   C3217515   4.825   1.436   2.916 -0.1489 -0.5302 -0.2675
  157SAPS   H2X17516   4.782   1.336   2.940  0.7777 -0.9384 -0.2466
  157SAPS   H2Y17517   4.742   1.509   2.923  0.2789  0.2068 -2.2944
  157SAPS   C2317518   4.404   1.118   2.575 -0.0484 -0.3307 -0.1167
  157SAPS   H3R17519   4.472   1.116   2.662  1.7862  0.2563 -1.4661
  157SAPS   H3S17520   4.415   1.025   2.516  0.3541 -0.2908 -0.1036
  157SAPS   C2417521   4.254   1.115   2.622  0.1528 -0.4846  0.2294
  157SAPS   H4R17522   4.238   1.213   2.671 -1.3326 -0.2468 -0.6670
  157SAPS   H4S17523   4.229   1.034   2.695 -3.0645 -2.2773 -2.5633
  157SAPS   C2517524   4.160   1.108   2.509  0.6462  0.0379  0.0009
  157SAPS   H5R17525   4.195   1.164   2.422 -1.1113  0.1221 -0.6861
  157SAPS   C2617526   4.034   1.055   2.499  0.2362 -0.0476 -0.0097
  157SAPS   H6R17527   3.980   1.062   2.403 -1.8154  0.5904  1.1436
  157SAPS   C2717528   3.959   0.972   2.601  0.1349 -0.4970 -0.0010
  157SAPS   H7R17529   4.016   0.956   2.695 -3.1264  1.0452  2.4428
  157SAPS   H7S17530   3.944   0.870   2.561 -0.3680 -0.7031  0.6901
  157SAPS   C2817531   3.816   1.017   2.622 -0.2449 -1.3361  0.6690
  157SAPS   H8R17532   3.756   1.015   2.530 -1.7605 -0.1604  1.5840
  157SAPS   C2917533   3.751   1.025   2.738 -0.1460  0.3566  1.3109
  157SAPS   H9R17534   3.641   1.031   2.731 -0.0671  1.1688  0.6501
  157SAPS  C21017535   3.805   0.997   2.873  0.4692 -0.9046  0.0553
  157SAPS  H10R17536   3.874   0.911   2.883  0.7092 -0.5154  2.0033
  157SAPS  H10S17537   3.723   0.987   2.947 -0.4997  0.7697 -0.7451
  157SAPS  C21117538   3.883   1.124   2.912 -1.4587 -0.1436  0.7178
  157SAPS  H11R17539   3.859   1.214   2.854  2.1490  0.2856 -0.4077
  157SAPS  C21217540   4.003   1.129   2.977 -0.8580  0.0003  0.3691
  157SAPS  H12R17541   4.041   1.232   2.972 -2.2489  0.6094 -5.2892
  157SAPS  C21317542   4.092   1.020   3.041  0.0074  0.0329 -0.3454
  157SAPS  H13R17543   4.187   1.013   2.985  0.5388  2.5204  0.1230
  157SAPS  H13S17544   4.044   0.920   3.032 -1.4481  0.8571 -2.2939
  157SAPS  C21417545   4.142   1.055   3.180  0.3032  0.2513  0.1324
  157SAPS  H14R17546   4.237   1.109   3.190 -0.1033  0.6053  2.6415
  157SAPS  C21517547   4.084   1.035   3.301 -0.0161  0.1422 -0.4079
  157SAPS  H15R17548   4.133   1.061   3.396 -0.6545 -1.9843  0.5715
  157SAPS  C21617549   3.962   0.951   3.322  0.4304 -0.6541 -0.1477
  157SAPS  H16R17550   3.976   0.843   3.300  3.6165 -0.3110 -0.1730
  157SAPS  H16S17551   3.880   0.986   3.255 -0.3747 -1.4039  0.4215
  157SAPS  C21717552   3.914   0.981   3.464 -0.4956  0.4639  0.2466
  157SAPS  H17R17553   3.814   0.931   3.471  0.1746 -1.2254 -1.4470
  157SAPS  H17S17554   3.892   1.085   3.496 -1.0733  0.1069  1.0595
  157SAPS  C21817555   4.008   0.898   3.564  0.8737 -0.1787 -0.6868
  157SAPS  H18R17556   4.090   0.971   3.579  0.6359  0.2311 -1.3752
  157SAPS  H18S17557   4.043   0.805   3.513  0.8804 -0.8007  0.4200
  157SAPS  C21917558   3.943   0.869   3.699  0.4278 -0.0672  0.2408
  157SAPS  H19R17559   4.014   0.820   3.768  0.2362  0.9429  1.1737
  157SAPS  H19S17560   3.865   0.793   3.676 -0.2444  0.5748  0.3579
  157SAPS  C22017561   3.887   0.997   3.764  0.4518 -0.2614 -0.5028
  157SAPS  H20R17562   3.808   1.050   3.706  0.7900 -1.1318 -1.8019
  157SAPS  H20S17563   3.969   1.070   3.781  1.7702 -2.1365  1.6851
  157SAPS  H20T17564   3.855   0.969   3.867  1.3307  4.3462  1.2873
  157SAPS   C3317565   4.932   1.451   3.027  0.1248 -0.1634  0.4333
  157SAPS   H3X17566   5.009   1.371   3.030  1.9600  1.5158  0.3601
  157SAPS   H3Y17567   4.869   1.421   3.113 -1.0411 -1.6513 -0.8858
  157SAPS   C3417568   5.001   1.588   3.047 -0.5388  0.5626 -0.9831
  157SAPS   H4X17569   4.919   1.659   3.024 -1.7787 -1.1029 -1.9037
  157SAPS   H4Y17570   5.075   1.611   2.967  0.3316  0.5169 -0.2127
  157SAPS   C3517571   5.059   1.597   3.187 -0.8201  0.2167 -0.3905
  157SAPS   H5X17572   4.990   1.558   3.264 -1.1012  1.6964  0.1485
  157SAPS   H5Y17573   5.061   1.708   3.200  0.5848  0.3963 -1.8146
  157SAPS   C3617574   5.204   1.552   3.211  0.5532 -0.1893 -0.0599
  157SAPS   H6X17575   5.258   1.529   3.117 -0.9342 -2.2915 -0.4806
  157SAPS   H6Y17576   5.212   1.458   3.271  0.9005  1.2527  2.2910
  157SAPS   C3717577   5.291   1.652   3.295  0.1652  0.6332  0.2484
  157SAPS   H7X17578   5.277   1.747   3.239 -2.1786 -0.8143 -1.8263
  157SAPS   H7Y17579   5.397   1.620   3.303  0.2306  0.6661 -0.4149
  157SAPS   C3817580   5.241   1.685   3.432 -0.3656 -0.0265 -0.2641
  157SAPS   H8X17581   5.244   1.599   3.502 -1.9085  1.2336  1.4687
  157SAPS   H8Y17582   5.134   1.715   3.431 -0.7277 -1.2002  1.0052
  157SAPS   C3917583   5.322   1.800   3.500 -0.2182  0.7741  0.1061
  157SAPS   H9X17584   5.251   1.860   3.560 -0.9302  0.0295  0.0218
  157SAPS   H9Y17585   5.369   1.868   3.425 -0.3398 -0.1584 -0.8382
  157SAPS  C31017586   5.428   1.755   3.602 -0.3793  0.2063  0.6020
  157SAPS  H10X17587   5.497   1.839   3.628  2.3418 -1.5148 -0.6542
  157SAPS  H10Y17588   5.485   1.671   3.559  0.3705  1.3960 -0.8212
  157SAPS  C31117589   5.365   1.691   3.726  0.2120 -0.4844  0.7487
  157SAPS  H11X17590   5.334   1.586   3.704 -0.1333 -0.2975  0.3332
  157SAPS  H11Y17591   5.272   1.746   3.753  0.0412  0.2629 -1.2066
  157SAPS  C31217592   5.456   1.692   3.850 -0.8984 -0.3213  0.1534
  157SAPS  H12X17593   5.465   1.800   3.871  1.2949 -0.0608 -1.7085
  157SAPS  H12Y17594   5.555   1.646   3.829 -0.3079  1.0492 -0.1156
  157SAPS  C31317595   5.382   1.619   3.970  0.4309  0.4753 -0.3964
  157SAPS  H13X17596   5.377   1.509   3.955 -2.2862  0.4431  0.1070
  157SAPS  H13Y17597   5.275   1.650   3.969 -0.0773 -1.1295  0.6440
  157SAPS  C31417598   5.443   1.660   4.104 -0.1626  0.0052  1.1001
  157SAPS  H14X17599   5.377   1.624   4.185 -0.1512 -0.2574  0.9960
  157SAPS  H14Y17600   5.450   1.771   4.107  2.1420  0.0721 -1.6493
  157SAPS  C31517601   5.588   1.600   4.121  0.6785 -0.3677  0.1892
  157SAPS  H15X17602   5.650   1.627   4.033 -1.3044 -0.4309 -1.3010
  157SAPS  H15Y17603   5.583   1.491   4.142 -0.8164  0.0464  2.2385
  157SAPS  C31617604   5.662   1.656   4.244 -0.8359  0.5241  0.1450
  157SAPS  H16X17605   5.609   1.636   4.340 -0.2735  1.2203  0.6083
  157SAPS  H16Y17606   5.676   1.765   4.231  0.0354  0.1915 -2.1845
  157SAPS  C31717607   5.802   1.595   4.264 -0.2428  0.1069 -0.2277
  157SAPS  H17X17608   5.849   1.615   4.166  0.4336  0.4211  0.1548
  157SAPS  H17Y17609   5.800   1.484   4.277  2.3035  0.2019  1.8935
  157SAPS  C31817610   5.877   1.650   4.381 -0.7448 -0.0628  0.3349
  157SAPS  H18X17611   5.875   1.761   4.382 -3.4428 -0.0379 -0.5595
  157SAPS  H18Y17612   5.983   1.616   4.381 -0.3386  1.0297 -1.8455
  157SAPS  H18Z17613   5.830   1.612   4.475 -0.6167  0.4169  0.5993
  158SAPS     N17614   1.161   4.580   1.900 -0.1889  0.3189  0.2845
  158SAPS   HN117615   1.163   4.665   1.959  2.1518  0.7900 -0.3684
  158SAPS   HN217616   1.144   4.605   1.800 -0.1264  0.9659  0.4322
  158SAPS   HN317617   1.092   4.509   1.932 -1.4203  1.1655 -0.4325
  158SAPS   C1217618   1.290   4.503   1.909 -0.7683  0.4063  0.0637
  158SAPS  H12A17619   1.297   4.473   2.013  0.7666 -0.0881 -0.1594
  158SAPS   C1317620   1.284   4.377   1.827  0.1665 -0.2101  0.6507
  158SAPS  O13A17621   1.183   4.345   1.756 -0.8653  0.1871  0.8081
  158SAPS  O13B17622   1.375   4.291   1.852  0.4477  0.1731  0.7239
  158SAPS   C1117623   1.419   4.593   1.864  0.1037 -0.9171 -0.2517
  158SAPS  H11A17624   1.412   4.622   1.757 -1.1227 -0.1948  0.0037
  158SAPS  H11B17625   1.510   4.529   1.870  0.3356 -0.5140  0.7206
  158SAPS     P17626   1.571   4.726   2.050 -0.0059  0.5703  0.3022
  158SAPS   O1317627   1.690   4.671   1.985  0.2007 -0.4528  0.2861
  158SAPS   O1417628   1.584   4.866   2.090  0.5457 -0.5244 -0.7851
  158SAPS   O1217629   1.443   4.713   1.948  0.3754  0.1380 -0.0270
  158SAPS   O1117630   1.535   4.628   2.173 -0.0324 -0.4151  0.1241
  158SAPS    C117631   1.420   4.655   2.248  0.4765  0.5908  0.2258
  158SAPS    HA17632   1.339   4.712   2.197 -0.2625  2.5406  3.2676
  158SAPS    HB17633   1.374   4.557   2.270  0.8773  0.2050 -0.6386
  158SAPS    C217634   1.457   4.733   2.373 -0.0418 -0.1207 -0.1805
  158SAPS    HS17635   1.491   4.831   2.333 -1.7676  1.0620  1.1127
  158SAPS   O2117636   1.567   4.671   2.448  0.3470  0.1765  0.1709
  158SAPS   C2117637   1.615   4.757   2.542  0.1160  0.5675  0.1367
  158SAPS   O2217638   1.596   4.874   2.546 -0.1991 -0.4722 -0.5358
  158SAPS   C2217639   1.707   4.677   2.637  0.1044 -0.2038 -0.1288
  158SAPS   H2R17640   1.642   4.641   2.720  1.5189 -0.0731  1.0697
  158SAPS   H2S17641   1.738   4.581   2.590 -2.7948 -2.5909  2.3564
  158SAPS    C317642   1.327   4.757   2.459  0.5184 -0.3789  0.0175
  158SAPS    HX17643   1.256   4.814   2.395  0.9612  1.9962  1.4984
  158SAPS    HY17644   1.347   4.818   2.549  0.1907 -0.3208  0.0526
  158SAPS   O3117645   1.261   4.639   2.488  0.0615  0.0748 -0.1776
  158SAPS   C3117646   1.286   4.577   2.600  1.2587 -0.2321  0.2715
  158SAPS   O3217647   1.377   4.605   2.675  0.2333  0.1939  0.5327
  158SAPS   C3217648   1.156   4.500   2.636 -0.0408 -0.4439 -0.5444
  158SAPS   H2X17649   1.161   4.402   2.584  0.0667 -0.3910 -0.6332
  158SAPS   H2Y17650   1.069   4.559   2.601 -0.1693  0.9510  1.9002
  158SAPS   C2317651   1.821   4.761   2.689  0.8236 -0.3244  0.4792
  158SAPS   H3R17652   1.788   4.853   2.742 -2.3517 -1.0580 -0.0186
  158SAPS   H3S17653   1.876   4.788   2.596 -1.7294  0.2165 -0.9491
  158SAPS   C2417654   1.910   4.671   2.771 -1.1771  0.3745 -0.6541
  158SAPS   H4R17655   1.931   4.570   2.729  0.6585  0.3480  0.2450
  158SAPS   H4S17656   1.862   4.648   2.868  1.8338  0.4894  0.9727
  158SAPS   C2517657   2.044   4.743   2.787 -0.2577  0.3270  0.3233
  158SAPS   H5R17658   2.098   4.778   2.698 -0.1645  0.4629  0.4333
  158SAPS   C2617659   2.116   4.747   2.908  0.0339 -0.3176 -0.0587
  158SAPS   H6R17660   2.208   4.806   2.911 -0.1264 -0.0971  0.7546
  158SAPS   C2717661   2.068   4.705   3.045  0.6790 -0.0555  0.0523
  158SAPS   H7R17662   1.967   4.744   3.069  1.4000  1.3967  0.8993
  158SAPS   H7S17663   2.128   4.764   3.118  3.3146 -1.2301 -1.0462
  158SAPS   C2817664   2.085   4.554   3.065  0.2157 -1.2857 -0.4860
  158SAPS   H8R17665   2.065   4.495   2.975 -1.6034  0.7275 -1.4783
  158SAPS   C2917666   2.106   4.500   3.182  0.5946  0.9286 -0.3290
  158SAPS   H9R17667   2.104   4.391   3.194  1.1308  0.8810 -0.6462
  158SAPS  C21017668   2.153   4.564   3.308  0.1894 -0.7070  0.1868
  158SAPS  H10R17669   2.206   4.658   3.282  0.4721 -0.6853  0.8190
  158SAPS  H10S17670   2.227   4.491   3.346 -1.0973 -1.4996  1.2264
  158SAPS  C21117671   2.044   4.584   3.412  0.4973  0.5758 -0.1248
  158SAPS  H11R17672   1.948   4.623   3.373 -0.2292 -0.1408  0.8969
  158SAPS  C21217673   2.046   4.538   3.539  0.2351  0.1100 -0.0836
  158SAPS  H12R17674   1.968   4.544   3.617  2.9667 -0.0184  2.8503
  158SAPS  C21317675   2.159   4.474   3.616  0.3563 -0.3510 -0.3410
  158SAPS  H13R17676   2.250   4.473   3.553 -0.4777  0.8578 -1.6323
  158SAPS  H13S17677   2.136   4.372   3.652  2.0669 -0.5172  0.4042
  158SAPS  C21417678   2.199   4.563   3.729 -0.8792 -0.1039 -0.0262
  158SAPS  H14R17679   2.282   4.633   3.708 -0.7829 -0.2360 -0.0919
  158SAPS  C21517680   2.160   4.567   3.859  0.2459 -0.0792  0.1867
  158SAPS  H15R17681   2.211   4.630   3.934  0.5312 -1.3317  1.0669
  158SAPS  C21617682   2.050   4.485   3.912 -0.4203  0.3497 -1.2280
  158SAPS  H16R17683   1.997   4.427   3.834  1.2187 -0.5849 -1.6917
  158SAPS  H16S17684   1.972   4.545   3.964  0.7024 -0.6072  1.7627
  158SAPS  C21717685   2.094   4.387   4.022 -0.1863  0.3658 -0.5350
  158SAPS  H17R17686   2.135   4.441   4.109 -1.9600 -0.7789  1.0808
  158SAPS  H17S17687   2.175   4.328   3.973 -0.1157  0.8774 -1.0514
  158SAPS  C21817688   1.986   4.295   4.086  0.3623  0.3447  0.2408
  158SAPS  H18R17689   1.936   4.240   4.003  0.0111 -0.8616  1.2241
  158SAPS  H18S17690   1.903   4.352   4.133  0.1680  0.9183 -0.7638
  158SAPS  C21917691   2.056   4.199   4.191  0.4087 -0.7427 -0.0091
  158SAPS  H19R17692   2.098   4.256   4.276 -3.1135  2.2474 -0.0344
  158SAPS  H19S17693   2.131   4.141   4.133 -1.7331 -2.0476 -1.6334
  158SAPS  C22017694   1.955   4.102   4.257 -0.5364  0.0718  0.3609
  158SAPS  H20R17695   2.017   4.021   4.301  1.0352 -0.5383 -2.7141
  158SAPS  H20S17696   1.896   4.051   4.178 -1.7035  0.0834  1.1915
  158SAPS  H20T17697   1.888   4.141   4.338 -0.3040 -0.7127  0.9415
  158SAPS   C3317698   1.136   4.480   2.786 -0.2874 -0.0149  0.1042
  158SAPS   H3X17699   1.237   4.490   2.830  0.8695  0.7240 -2.5048
  158SAPS   H3Y17700   1.105   4.374   2.798 -0.9161  0.0193 -1.0379
  158SAPS   C3417701   1.050   4.587   2.850  0.1691 -0.1586  0.3300
  158SAPS   H4X17702   0.942   4.568   2.836  0.2218 -0.4271  0.2918
  158SAPS   H4Y17703   1.070   4.674   2.784 -1.6385 -0.7886 -1.1175
  158SAPS   C3517704   1.097   4.635   2.994 -0.3179 -0.2983 -0.5755
  158SAPS   H5X17705   1.037   4.725   3.022  1.4402  0.4495  1.0294
  158SAPS   H5Y17706   1.206   4.657   2.994 -0.4577  0.4468 -1.3707
  158SAPS   C3617707   1.077   4.525   3.093  0.2901  0.1805  0.0619
  158SAPS   H6X17708   1.153   4.448   3.069 -0.0272 -0.2314  0.3641
  158SAPS   H6Y17709   0.980   4.473   3.080 -1.0789  2.5802  0.1195
  158SAPS   C3717710   1.099   4.580   3.233  0.2243  0.1494  0.0525
  158SAPS   H7X17711   1.042   4.675   3.239 -0.9969 -0.4628 -1.4553
  158SAPS   H7Y17712   1.204   4.615   3.248 -0.1104  0.8891  0.7460
  158SAPS   C3817713   1.081   4.475   3.343  0.2215  0.4113  0.2258
  158SAPS   H8X17714   1.159   4.402   3.313  0.0081  0.8181 -1.3816
  158SAPS   H8Y17715   0.987   4.419   3.328 -0.5052  1.5183  0.5237
  158SAPS   C3917716   1.094   4.528   3.489  0.1780  0.0871  0.7027
  158SAPS   H9X17717   0.997   4.514   3.541 -0.3996 -0.4727 -0.4707
  158SAPS   H9Y17718   1.115   4.637   3.480 -0.0643 -0.0044 -1.4584
  158SAPS  C31017719   1.200   4.464   3.585  0.1084 -0.1204  0.3232
  158SAPS  H10X17720   1.305   4.491   3.558  0.0658 -0.0692  0.2053
  158SAPS  H10Y17721   1.206   4.353   3.578 -0.7437 -0.0873 -1.8095
  158SAPS  C31117722   1.174   4.507   3.726 -0.8799  0.7878 -0.2787
  158SAPS  H11X17723   1.066   4.498   3.749 -0.4759  0.8608  1.8235
  158SAPS  H11Y17724   1.198   4.615   3.736 -3.8841  1.4366  0.9830
  158SAPS  C31217725   1.254   4.415   3.825  0.6835 -0.4974  0.1260
  158SAPS  H12X17726   1.361   4.438   3.806  0.0619  0.8800 -2.1095
  158SAPS  H12Y17727   1.233   4.312   3.790  2.7372 -0.5259 -1.2242
  158SAPS  C31317728   1.208   4.434   3.974 -0.9684  0.2021  0.2838
  158SAPS  H13X17729   1.199   4.541   3.999  1.2007  0.6096 -0.4708
  158SAPS  H13Y17730   1.277   4.379   4.041  1.8827  0.7571 -2.0210
  158SAPS  C31417731   1.066   4.378   4.002  0.7351  0.7167 -0.3781
  158SAPS  H14X17732   1.053   4.278   3.956 -1.6443  1.4602 -1.4890
  158SAPS  H14Y17733   0.988   4.439   3.951  0.6428  0.6192 -0.3530
  158SAPS  C31517734   1.019   4.375   4.151 -0.1004  0.6652  0.1422
  158SAPS  H15X17735   1.100   4.324   4.207  0.4681 -2.3757 -3.0598
  158SAPS  H15Y17736   0.926   4.317   4.166 -0.2828  1.0650  0.5854
  158SAPS  C31617737   0.989   4.520   4.210 -0.1678  0.3111 -0.3088
  158SAPS  H16X17738   1.079   4.583   4.192  0.9697 -0.7589  1.3579
  158SAPS  H16Y17739   0.970   4.509   4.319  0.3286  2.3106  0.0191
  158SAPS  C31717740   0.861   4.593   4.162 -0.0355 -0.0187  0.8284
  158SAPS  H17X17741   0.773   4.528   4.180  0.5502 -1.0748 -0.0557
  158SAPS  H17Y17742   0.867   4.613   4.053  0.0944 -0.0762  0.8247
  158SAPS  C31817743   0.850   4.729   4.244 -0.1587  0.2421 -0.4906
  158SAPS  H18X17744   0.807   4.803   4.172 -0.0196 -0.0863 -0.9183
  158SAPS  H18Y17745   0.944   4.764   4.291  1.9993 -3.7807 -1.3438
  158SAPS  H18Z17746   0.778   4.703   4.324  0.4230 -0.4331 -0.1818
  159SAPS     N17747   5.395   1.508   2.027 -0.1770 -0.4135 -0.2296
  159SAPS   HN117748   5.299   1.491   1.992 -0.5187  1.3456 -0.2405
  159SAPS   HN217749   5.381   1.489   2.128 -1.4526 -1.3536 -0.5505
  159SAPS   HN317750   5.421   1.609   2.017 -0.8920 -0.1638  0.3954
  159SAPS   C1217751   5.511   1.426   1.974 -0.2509  0.3508  0.1193
  159SAPS  H12A17752   5.491   1.322   1.991 -1.6442  0.3709 -1.1734
  159SAPS   C1317753   5.538   1.435   1.820 -0.2281  0.2416  0.0938
  159SAPS  O13A17754   5.470   1.508   1.745 -0.8471 -0.4766 -0.5726
  159SAPS  O13B17755   5.625   1.353   1.776  0.0068  0.4732  0.4382
  159SAPS   C1117756   5.632   1.487   2.050 -0.4396 -0.6007 -0.5117
  159SAPS  H11A17757   5.636   1.598   2.046 -1.7792 -0.4101  1.7329
  159SAPS  H11B17758   5.725   1.458   1.997  0.4711 -3.3612  2.2944
  159SAPS     P17759   5.730   1.500   2.296 -0.2675  0.2455  0.0944
  159SAPS   O1317760   5.674   1.464   2.423  0.2921 -0.1651  0.4340
  159SAPS   O1417761   5.873   1.466   2.265 -0.2566 -0.0014 -0.8517
  159SAPS   O1217762   5.647   1.432   2.181 -0.2297 -0.1634 -0.1623
  159SAPS   O1117763   5.719   1.658   2.269  0.2678 -0.3805 -0.5343
  159SAPS    C117764   5.593   1.728   2.289 -0.5599  0.3882  0.1950
  159SAPS    HA17765   5.572   1.785   2.196 -0.1731  1.7960  0.9574
  159SAPS    HB17766   5.502   1.667   2.310 -0.3549 -0.1640 -0.4906
  159SAPS    C217767   5.603   1.836   2.400  0.0862  1.1509  0.4377
  159SAPS    HS17768   5.681   1.904   2.361 -0.1189  1.1602  0.0375
  159SAPS   O2117769   5.649   1.768   2.518  0.2382  0.7737  0.2115
  159SAPS   C2117770   5.768   1.801   2.562 -0.1156 -0.0894  0.5471
  159SAPS   O2217771   5.835   1.896   2.525 -0.1726  0.8687  0.6180
  159SAPS   C2217772   5.794   1.731   2.696 -0.0926 -0.5849  0.2462
  159SAPS   H2R17773   5.696   1.711   2.744 -0.5321 -0.7341 -0.6774
  159SAPS   H2S17774   5.854   1.643   2.663 -0.4426 -0.8941  0.4200
  159SAPS    C317775   5.472   1.914   2.423 -0.4050 -0.1819  0.2848
  159SAPS    HX17776   5.389   1.840   2.420  0.4716 -1.1438 -1.1959
  159SAPS    HY17777   5.454   1.975   2.332 -1.3580 -0.7546  0.0721
  159SAPS   O3117778   5.471   1.991   2.544  0.1804  0.2372  0.2027
  159SAPS   C3117779   5.558   2.092   2.539  0.1334 -0.0927 -0.0594
  159SAPS   O3217780   5.622   2.128   2.442  0.0445  0.0518 -1.0530
  159SAPS   C3217781   5.566   2.163   2.667 -0.6533 -0.1500  0.5158
  159SAPS   H2X17782   5.473   2.223   2.672  0.2465  1.4371 -0.8666
  159SAPS   H2Y17783   5.657   2.227   2.662 -1.3420  0.7896 -0.8786
  159SAPS   C2317784   5.889   1.814   2.787 -0.7211  0.7691 -0.2143
  159SAPS   H3R17785   5.839   1.879   2.862 -0.5091 -0.1887  0.7857
  159SAPS   H3S17786   5.959   1.872   2.723 -0.5916 -0.2997 -1.0660
  159SAPS   C2417787   5.996   1.717   2.863  0.6717  0.7283 -0.0854
  159SAPS   H4R17788   6.068   1.777   2.923  1.3486 -1.1798  1.1067
  159SAPS   H4S17789   6.059   1.669   2.786  0.2122 -2.3016  1.2857
  159SAPS   C2517790   5.941   1.602   2.947 -0.1002  0.1903  0.0089
  159SAPS   H5R17791   5.943   1.503   2.900 -0.6998 -0.2086  0.8078
  159SAPS   C2617792   5.870   1.617   3.067 -0.2057 -0.4047 -0.2001
  159SAPS   H6R17793   5.847   1.528   3.128  0.4448  0.8078  1.9071
  159SAPS   C2717794   5.854   1.741   3.146  1.2114 -0.5559  0.1637
  159SAPS   H7R17795   5.863   1.830   3.082 -1.3085  0.1388  0.6520
  159SAPS   H7S17796   5.938   1.746   3.219  0.9343  0.4494  0.4241
  159SAPS   C2817797   5.719   1.741   3.217 -0.0118 -0.9235 -1.0610
  159SAPS   H8R17798   5.631   1.782   3.167  0.6970 -0.0567 -1.6291
  159SAPS   C2917799   5.697   1.690   3.337  0.2734  0.5877 -0.2393
  159SAPS   H9R17800   5.597   1.683   3.382  0.8853 -2.0051  0.9459
  159SAPS  C21017801   5.800   1.610   3.420 -0.0499 -0.5437  0.2501
  159SAPS  H10R17802   5.862   1.550   3.350  2.3420 -0.1711  1.9267
  159SAPS  H10S17803   5.743   1.535   3.480 -2.8320 -0.1827 -1.7740
  159SAPS  C21117804   5.875   1.708   3.502 -0.4789 -0.2108  0.0079
  159SAPS  H11R17805   5.883   1.801   3.444 -1.9405 -0.4920 -0.7001
  159SAPS  C21217806   5.924   1.702   3.632  0.7491  0.1498  0.3312
  159SAPS  H12R17807   5.982   1.786   3.673  0.2268  1.1460 -0.8926
  159SAPS  C21317808   5.906   1.577   3.716  0.3226 -0.0327  0.0443
  159SAPS  H13R17809   5.940   1.487   3.661 -1.4391 -1.9117  1.9137
  159SAPS  H13S17810   5.801   1.558   3.746  0.6957 -0.1990  1.2711
  159SAPS  C21417811   5.987   1.591   3.839 -0.1564  0.2003  0.2819
  159SAPS  H14R17812   5.935   1.644   3.920 -1.2768 -0.8036  0.2362
  159SAPS  C21517813   6.111   1.544   3.866  0.5307 -0.1851 -0.8841
  159SAPS  H15R17814   6.147   1.568   3.967 -0.4656  2.4886 -1.0851
  159SAPS  C21617815   6.190   1.453   3.778  0.0998 -0.4288  0.4150
  159SAPS  H16R17816   6.167   1.478   3.673  1.4349  0.6113  0.3501
  159SAPS  H16S17817   6.164   1.345   3.786  0.0389 -0.4816 -0.4599
  159SAPS  C21717818   6.340   1.473   3.800  0.5792  0.3361  0.3447
  159SAPS  H17R17819   6.370   1.577   3.776 -0.0491  0.6589  0.9118
  159SAPS  H17S17820   6.400   1.420   3.723 -0.2912  2.2436 -1.7379
  159SAPS  C21817821   6.397   1.449   3.945 -0.1377 -0.1389  0.0376
  159SAPS  H18R17822   6.399   1.339   3.963 -0.3453  0.0071  1.0326
  159SAPS  H18S17823   6.349   1.498   4.032  2.3519  0.5780  1.1163
  159SAPS  C21917824   6.545   1.487   3.953 -0.5802  0.2889  0.0156
  159SAPS  H19R17825   6.558   1.597   3.964 -1.0855  0.2594  0.9964
  159SAPS  H19S17826   6.602   1.459   3.862  1.3560  2.6143  0.3973
  159SAPS  C22017827   6.626   1.416   4.065  0.4178 -0.3155  0.2384
  159SAPS  H20R17828   6.611   1.307   4.049 -0.1619 -0.4533  1.5578
  159SAPS  H20S17829   6.590   1.443   4.167 -2.0187  0.3007 -0.7041
  159SAPS  H20T17830   6.733   1.441   4.052  0.3464 -0.2009 -0.1196
  159SAPS   C3317831   5.582   2.066   2.784 -0.3135 -0.5894  0.4439
  159SAPS   H3X17832   5.688   2.032   2.781 -0.8666 -2.3037 -0.8174
  159SAPS   H3Y17833   5.515   1.978   2.782  0.1492 -0.9386 -1.7890
  159SAPS   C3417834   5.562   2.133   2.921 -1.0799  0.0509  0.0639
  159SAPS   H4X17835   5.455   2.163   2.925 -1.5641 -1.3896 -1.0350
  159SAPS   H4Y17836   5.628   2.222   2.913  2.1953 -2.2974 -1.6354
  159SAPS   C3517837   5.614   2.047   3.038 -0.1695  0.8650 -0.9974
  159SAPS   H5X17838   5.723   2.026   3.035 -0.3964 -0.4255 -1.0138
  159SAPS   H5Y17839   5.549   1.958   3.056 -0.1698  0.8060 -1.2866
  159SAPS   C3617840   5.601   2.131   3.173  0.0879  0.1461  0.2613
  159SAPS   H6X17841   5.491   2.140   3.175  0.0826  0.8824 -1.3081
  159SAPS   H6Y17842   5.646   2.231   3.154  0.7062 -0.4590 -1.7285
  159SAPS   C3717843   5.652   2.061   3.295  0.4293 -0.0406  0.0274
  159SAPS   H7X17844   5.759   2.030   3.296  0.7524  0.9183  2.3998
  159SAPS   H7Y17845   5.595   1.966   3.301 -2.0432  1.3531 -0.1689
  159SAPS   C3817846   5.632   2.139   3.426  0.2613  0.1260  0.1203
  159SAPS   H8X17847   5.526   2.151   3.457  0.1716 -2.6147  1.1940
  159SAPS   H8Y17848   5.674   2.241   3.414 -1.0111  0.8286  1.3901
  159SAPS   C3917849   5.702   2.082   3.547 -0.3176 -0.0869  0.0980
  159SAPS   H9X17850   5.811   2.088   3.523 -0.7344 -0.9656 -2.2599
  159SAPS   H9Y17851   5.667   1.979   3.569 -2.7669  0.5751 -0.4030
  159SAPS  C31017852   5.672   2.157   3.678  0.5112 -0.2150  0.0015
  159SAPS  H10X17853   5.562   2.172   3.681  0.5934  0.3332  1.5632
  159SAPS  H10Y17854   5.732   2.250   3.684  1.8798 -0.8494 -2.4224
  159SAPS  C31117855   5.708   2.063   3.796 -0.3192  0.1310  0.3463
  159SAPS  H11X17856   5.644   1.972   3.789 -3.5401  1.8659  3.7663
  159SAPS  H11Y17857   5.681   2.101   3.897  1.4510 -1.6530  1.5781
  159SAPS  C31217858   5.856   2.011   3.787 -0.3949 -0.4265  0.6921
  159SAPS  H12X17859   5.850   1.940   3.702 -0.6066 -0.2297  0.5405
  159SAPS  H12Y17860   5.882   1.952   3.877 -3.1852 -2.2541  0.4105
  159SAPS  C31317861   5.965   2.115   3.765 -0.8571 -0.8569  0.3882
  159SAPS  H13X17862   5.962   2.181   3.855  0.3138  0.1990 -0.3138
  159SAPS  H13Y17863   5.942   2.180   3.678 -2.3689 -0.1942  1.2381
  159SAPS  C31417864   6.116   2.065   3.746 -0.4089  0.7869 -0.2306
  159SAPS  H14X17865   6.127   2.013   3.648  1.5585 -1.3077  0.9722
  159SAPS  H14Y17866   6.131   1.996   3.832 -2.9746 -0.1804 -0.4744
  159SAPS  C31517867   6.220   2.178   3.740  0.1628  0.1666  0.1312
  159SAPS  H15X17868   6.204   2.247   3.826 -1.7140 -4.0905  3.6131
  159SAPS  H15Y17869   6.195   2.228   3.645  0.3938  0.9181  0.4620
  159SAPS  C31617870   6.362   2.133   3.719  0.5022 -0.2415 -1.0254
  159SAPS  H16X17871   6.389   2.072   3.629  0.1319 -2.0809  0.0575
  159SAPS  H16Y17872   6.397   2.068   3.802 -1.1788  1.5300  1.1696
  159SAPS  C31717873   6.464   2.248   3.734 -0.5605  0.3447  0.0335
  159SAPS  H17X17874   6.480   2.286   3.837  1.4268 -1.1379  0.3386
  159SAPS  H17Y17875   6.428   2.327   3.664 -1.0003  0.9459  0.9242
  159SAPS  C31817876   6.609   2.211   3.687  0.2816 -0.1194  0.5805
  159SAPS  H18X17877   6.659   2.136   3.752  1.4982 -1.4587 -1.7693
  159SAPS  H18Y17878   6.600   2.162   3.588  1.6701 -0.5142  0.6259
  159SAPS  H18Z17879   6.669   2.304   3.679  1.1800 -0.6325  1.2119
  160SAPS     N17880   5.960   4.317   1.778  0.0680 -0.1964  0.2460
  160SAPS   HN117881   5.859   4.299   1.763 -0.1611  0.7605  0.5822
  160SAPS   HN217882   6.020   4.232   1.768 -0.2701 -0.5086  0.8214
  160SAPS   HN317883   5.967   4.334   1.880 -0.9984  1.5459  0.0630
  160SAPS   C1217884   6.018   4.433   1.694  0.7582 -0.4846 -0.3368
  160SAPS  H12A17885   6.114   4.465   1.731 -0.3309 -0.7760  3.0542
  160SAPS   C1317886   6.024   4.412   1.540  0.0783 -1.0028 -0.0598
  160SAPS  O13A17887   5.960   4.313   1.488 -0.0739  0.4378 -0.0898
  160SAPS  O13B17888   6.099   4.487   1.471  0.2205  0.2878  0.0177
  160SAPS   C1117889   5.927   4.561   1.724  0.0867  0.5673 -0.3570
  160SAPS  H11A17890   5.828   4.537   1.680 -0.3199 -4.6859  2.5709
  160SAPS  H11B17891   5.968   4.654   1.681 -0.4988  1.1036  0.2217
  160SAPS     P17892   5.822   4.703   1.910 -0.0948 -0.0880 -0.1596
  160SAPS   O1317893   5.919   4.809   1.948 -0.1156  0.6392 -0.3192
  160SAPS   O1417894   5.722   4.737   1.810  0.0477 -0.7989  0.8955
  160SAPS   O1217895   5.907   4.581   1.866  0.6210  0.3774  0.0758
  160SAPS   O1117896   5.750   4.655   2.046 -0.5544 -0.7687 -0.3574
  160SAPS    C117897   5.768   4.531   2.108  0.0505  0.2827 -0.3569
  160SAPS    HA17898   5.674   4.528   2.168 -1.8260  0.2843 -3.0968
  160SAPS    HB17899   5.750   4.445   2.040 -0.4312 -0.6356  0.8938
  160SAPS    C217900   5.903   4.526   2.185 -0.4132  0.5134  0.0016
  160SAPS    HS17901   5.985   4.535   2.110  1.3451  3.3592  2.0595
  160SAPS   O2117902   5.910   4.400   2.254 -0.2706  0.0493 -0.9304
  160SAPS   C2117903   5.936   4.301   2.171 -0.5710 -0.0009 -0.6133
  160SAPS   O2217904   5.951   4.304   2.047  0.2861 -0.0069 -0.5305
  160SAPS   C2217905   5.921   4.178   2.256 -0.1343 -0.0779 -0.4405
  160SAPS   H2R17906   5.819   4.187   2.297  0.4373 -0.9887  1.2851
  160SAPS   H2S17907   5.934   4.088   2.191  3.7128 -0.5902  0.7847
  160SAPS    C317908   5.919   4.644   2.281 -0.1211  0.5999 -0.4222
  160SAPS    HX17909   5.818   4.642   2.328  0.3033  0.9577  0.5383
  160SAPS    HY17910   5.950   4.737   2.229  3.1858  0.3109  0.7614
  160SAPS   O3117911   6.008   4.622   2.391 -0.3252 -0.2937 -0.1773
  160SAPS   C3117912   6.128   4.581   2.369  0.8727 -0.4018  0.2287
  160SAPS   O3217913   6.181   4.568   2.261 -0.1987  0.8272  0.1406
  160SAPS   C3217914   6.191   4.539   2.494  0.5954  0.3392  0.2102
  160SAPS   H2X17915   6.106   4.483   2.539  1.7020 -1.3421  0.2907
  160SAPS   H2Y17916   6.206   4.626   2.561 -2.8516 -0.1924  1.9042
  160SAPS   C2317917   6.008   4.168   2.389 -0.0863  0.2306  0.3971
  160SAPS   H3R17918   5.988   4.249   2.462 -1.5598 -2.2633  2.9450
  160SAPS   H3S17919   6.117   4.163   2.369 -0.0127  1.5071  0.3521
  160SAPS   C2417920   5.973   4.041   2.471 -0.3497 -0.2549  0.2752
  160SAPS   H4R17921   6.063   4.027   2.534  0.4151 -0.9668 -0.9344
  160SAPS   H4S17922   5.988   3.957   2.400  0.1072 -0.2994  0.4194
  160SAPS   C2517923   5.843   4.027   2.558 -0.3906  0.2866  0.3700
  160SAPS   H5R17924   5.752   3.988   2.511 -1.6009  1.3739  1.6861
  160SAPS   C2617925   5.823   4.069   2.685  0.0530  0.0494  0.5775
  160SAPS   H6R17926   5.723   4.057   2.729  0.0753  1.6772  1.1381
  160SAPS   C2717927   5.940   4.105   2.776 -0.4127 -0.2215  0.2589
  160SAPS   H7R17928   6.026   4.148   2.721 -1.0619  0.3415 -0.3446
  160SAPS   H7S17929   5.969   4.005   2.812 -0.5948 -1.7118 -3.3070
  160SAPS   C2817930   5.906   4.208   2.882  0.4357  0.4622  0.1666
  160SAPS   H8R17931   5.882   4.305   2.837  0.7254 -0.1176 -1.3008
  160SAPS   C2917932   5.913   4.177   3.010  0.0485  0.2439  0.1510
  160SAPS   H9R17933   5.877   4.255   3.079  1.2368  0.4156  0.6008
  160SAPS  C21017934   5.929   4.041   3.080 -0.9232 -0.0506  0.1615
  160SAPS  H10R17935   5.928   3.956   3.008 -2.3477  0.2341 -0.1867
  160SAPS  H10S17936   5.845   4.015   3.148 -1.6506  2.2446  0.2350
  160SAPS  C21117937   6.052   4.031   3.168  0.4217 -0.2138  1.1733
  160SAPS  H11R17938   6.145   4.035   3.109  0.8296  0.6521  1.8569
  160SAPS  C21217939   6.062   4.041   3.301 -0.0778  0.1972  0.6856
  160SAPS  H12R17940   6.161   4.018   3.342 -0.4667  0.3282  1.7417
  160SAPS  C21317941   5.951   4.065   3.394  0.3836  0.0838  0.4133
  160SAPS  H13R17942   5.969   4.009   3.488  2.1291  0.0031  0.0563
  160SAPS  H13S17943   5.863   4.012   3.350  1.0433  0.4100 -1.3824
  160SAPS  C21417944   5.914   4.205   3.417 -0.7048  0.4357 -1.1217
  160SAPS  H14R17945   5.845   4.250   3.344 -3.1576  1.7725  1.8226
  160SAPS  C21517946   5.952   4.284   3.526  0.4664 -0.1561  0.0077
  160SAPS  H15R17947   5.902   4.382   3.527 -0.7922 -0.7491 -1.2655
  160SAPS  C21617948   6.033   4.237   3.650 -0.1455 -0.7767  0.2351
  160SAPS  H16R17949   6.121   4.301   3.672 -2.2754  2.6588 -0.4805
  160SAPS  H16S17950   6.081   4.139   3.628  0.6163 -0.3241 -0.1770
  160SAPS  C21717951   5.935   4.246   3.769  0.1773 -0.6298  0.9727
  160SAPS  H17R17952   5.887   4.346   3.775  2.2902  0.4037  1.7608
  160SAPS  H17S17953   5.995   4.230   3.862  2.0354  1.5257  0.2310
  160SAPS  C21817954   5.824   4.138   3.775  0.3196  0.1640  0.9031
  160SAPS  H18R17955   5.857   4.050   3.716 -1.0173 -0.0944  0.5076
  160SAPS  H18S17956   5.737   4.180   3.719  1.1220 -1.9143 -2.1880
  160SAPS  C21917957   5.781   4.100   3.915  0.5518 -0.3102  0.4376
  160SAPS  H19R17958   5.871   4.050   3.957  1.8093  1.1597 -0.4314
  160SAPS  H19S17959   5.714   4.012   3.907  0.9506 -0.4307 -2.1658
  160SAPS  C22017960   5.714   4.208   3.993 -0.2043  0.7907 -0.3722
  160SAPS  H20R17961   5.620   4.237   3.942  0.6530  0.0864 -2.4245
  160SAPS  H20S17962   5.779   4.296   4.016 -0.4286  0.5722  1.2711
  160SAPS  H20T17963   5.702   4.163   4.094 -0.4662  1.7848  0.0599
  160SAPS   C3317964   6.311   4.445   2.502  0.2374  0.3640  0.1131
  160SAPS   H3X17965   6.384   4.500   2.439 -0.6240  1.3804 -0.0370
  160SAPS   H3Y17966   6.285   4.350   2.450  0.9503  0.0464  0.3239
  160SAPS   C3417967   6.375   4.417   2.632  0.3231 -0.1559  0.1624
  160SAPS   H4X17968   6.437   4.504   2.664 -2.0352  1.7294 -0.0899
  160SAPS   H4Y17969   6.432   4.322   2.629 -2.0316 -1.6436  0.3410
  160SAPS   C3517970   6.274   4.388   2.742 -0.1701  0.0609 -0.3004
  160SAPS   H5X17971   6.217   4.294   2.723 -2.5540  0.4871  3.5971
  160SAPS   H5Y17972   6.195   4.465   2.753 -1.0578 -0.7629 -0.6485
  160SAPS   C3617973   6.348   4.370   2.878 -0.0513  0.3890  0.1708
  160SAPS   H6X17974   6.453   4.407   2.870 -0.2183  1.0639  0.9237
  160SAPS   H6Y17975   6.359   4.260   2.887  2.1403  0.5908  0.5370
  160SAPS   C3717976   6.271   4.432   2.990 -0.3628  0.3778 -0.1548
  160SAPS   H7X17977   6.163   4.411   2.974 -0.2514  0.2780 -0.7916
  160SAPS   H7Y17978   6.266   4.543   2.980  0.6129  0.3818 -0.7355
  160SAPS   C3817979   6.304   4.384   3.137 -0.4828  0.0817  0.1906
  160SAPS   H8X17980   6.415   4.382   3.147 -0.2821 -1.6201 -1.6251
  160SAPS   H8Y17981   6.265   4.281   3.154  1.1947 -0.7055 -0.4519
  160SAPS   C3917982   6.228   4.473   3.238  0.7685  0.6416  0.2982
  160SAPS   H9X17983   6.119   4.481   3.220  0.6365 -0.6649  0.4450
  160SAPS   H9Y17984   6.267   4.575   3.213 -0.7364  1.5354  1.4238
  160SAPS  C31017985   6.275   4.452   3.389  0.4563  0.0510 -0.1910
  160SAPS  H10X17986   6.231   4.359   3.432 -0.6530  0.0389 -1.3029
  160SAPS  H10Y17987   6.250   4.547   3.440  1.5471  2.1972 -3.3499
  160SAPS  C31117988   6.420   4.448   3.413  0.0197 -0.5219  0.2771
  160SAPS  H11X17989   6.479   4.522   3.355 -0.3990 -1.1265 -0.9543
  160SAPS  H11Y17990   6.459   4.350   3.378  0.2536 -0.2829 -0.1434
  160SAPS  C31217991   6.465   4.458   3.558 -0.1816  0.3271  0.0877
  160SAPS  H12X17992   6.553   4.397   3.588 -0.3162  0.4905  0.8188
  160SAPS  H12Y17993   6.387   4.426   3.629 -1.5205  0.9425 -1.0528
  160SAPS  C31317994   6.508   4.599   3.594 -0.3102 -0.1308  0.2611
  160SAPS  H13X17995   6.421   4.668   3.587 -1.5269 -1.6826 -0.2990
  160SAPS  H13Y17996   6.581   4.630   3.516 -0.0817 -3.0504 -0.7711
  160SAPS  C31417997   6.576   4.619   3.728  0.5790 -0.2446 -0.3241
  160SAPS  H14X17998   6.632   4.714   3.736 -1.9403  1.2680  0.5448
  160SAPS  H14Y17999   6.646   4.533   3.738  0.0485 -0.5589  0.8010
  160SAPS  C31518000   6.470   4.624   3.841 -0.3843  0.0362 -0.4173
  160SAPS  H15X18001   6.417   4.527   3.849  0.8833 -0.6871 -0.5281
  160SAPS  H15Y18002   6.399   4.705   3.811  2.3046  2.1384 -1.5620
  160SAPS  C31618003   6.533   4.660   3.970 -0.1146  0.2685 -1.0005
  160SAPS  H16X18004   6.580   4.756   3.942  1.7631 -0.0645  0.7308
  160SAPS  H16Y18005   6.619   4.593   3.994 -0.5332 -0.2075 -0.8128
  160SAPS  C31718006   6.427   4.663   4.083 -0.0457  0.2521  0.1004
  160SAPS  H17X18007   6.389   4.563   4.113  2.9604 -0.1393  3.1338
  160SAPS  H17Y18008   6.348   4.734   4.049 -0.7598 -0.2513  0.6656
  160SAPS  C31818009   6.465   4.736   4.218  0.2731 -0.2180 -0.6744
  160SAPS  H18X18010   6.498   4.837   4.188 -0.8438  0.3319 -0.1420
  160SAPS  H18Y18011   6.534   4.674   4.279 -0.8144  0.8744  1.8095
  160SAPS  H18Z18012   6.379   4.742   4.290  0.1824  0.0547 -0.8071
  161SAPE     N18013   4.579   2.849   6.752  0.0032 -0.7502  0.1504
  161SAPE   HN118014   4.513   2.845   6.832 -1.8355 -0.4609 -1.2814
  161SAPE   HN218015   4.528   2.856   6.662 -2.8090 -1.3766  1.5972
  161SAPE   HN318016   4.631   2.759   6.750  1.7672  0.2131 -1.4025
  161SAPE   C1218017   4.694   2.942   6.751 -0.0747 -0.0630 -0.2549
  161SAPE  H12A18018   4.772   2.908   6.822 -0.8039  0.0714  0.6259
  161SAPE  H12B18019   4.652   3.038   6.789  0.3475 -0.7369  2.0779
  161SAPE   C1118020   4.755   2.959   6.610 -0.4747  0.1386 -0.2073
  161SAPE  H11A18021   4.833   2.881   6.593  0.4526  0.6067  1.6412
  161SAPE  H11B18022   4.803   3.059   6.612  2.9503 -1.3234  2.1267
  161SAPE     P18023   4.667   2.995   6.363 -0.4269  0.1976 -0.1515
  161SAPE   O1318024   4.537   2.995   6.290 -0.4812  0.9922 -0.2983
  161SAPE   O1418025   4.736   3.123   6.366  0.4870 -0.4035 -0.2655
  161SAPE   O1218026   4.653   2.942   6.511  0.1166  0.1786 -0.2989
  161SAPE   O1118027   4.762   2.898   6.297 -0.1698 -0.0821  0.2522
  161SAPE    C118028   4.741   2.755   6.268 -0.2048 -0.1046  0.4361
  161SAPE    HA18029   4.804   2.692   6.335  1.4906 -0.3044 -1.2438
  161SAPE    HB18030   4.638   2.717   6.283  0.5275 -2.5545 -0.1612
  161SAPE    C218031   4.781   2.730   6.117  0.1335  0.2980 -0.8086
  161SAPE    HS18032   4.889   2.757   6.111 -0.2117  1.4660 -2.2771
  161SAPE   O2118033   4.699   2.817   6.034 -0.2091 -0.3676 -0.0042
  161SAPE   C2118034   4.747   2.935   6.000  0.2371 -0.4612 -0.0894
  161SAPE   O2218035   4.857   2.978   6.039  0.0665 -0.2292 -0.5290
  161SAPE   C2218036   4.655   3.013   5.907  0.4738  0.0086 -0.1531
  161SAPE   H2R18037   4.577   3.061   5.970  1.5998  0.7685  0.7042
  161SAPE   H2S18038   4.705   3.094   5.851  0.1160 -0.7687 -1.6490
  161SAPE    C318039   4.765   2.588   6.089  0.4576  0.2747  0.5154
  161SAPE    HX18040   4.667   2.553   6.129  1.0083  0.4360  2.0691
  161SAPE    HY18041   4.826   2.531   6.162 -0.5162 -0.1516  1.0120
  161SAPE   O3118042   4.790   2.555   5.948 -0.4618  0.2141  0.1924
  161SAPE   C3118043   4.682   2.552   5.867  0.2393  0.7633  0.1445
  161SAPE   O3218044   4.567   2.579   5.905  0.0090  0.3945 -0.0383
  161SAPE   C3218045   4.736   2.521   5.726  0.2106 -0.3552  1.1452
  161SAPE   H2X18046   4.796   2.427   5.732  1.4053  0.3665  0.8413
  161SAPE   H2Y18047   4.807   2.601   5.696  1.0131 -1.1514  0.8562
  161SAPE   C2318048   4.602   2.921   5.799 -0.3715 -0.5107  0.7218
  161SAPE   H3R18049   4.562   2.827   5.842  1.6386 -1.7364  0.0196
  161SAPE   H3S18050   4.671   2.882   5.722 -1.1465 -0.2963 -0.0962
  161SAPE   C2418051   4.484   2.984   5.724  0.1510 -0.2711  0.3715
  161SAPE   H4R18052   4.512   3.071   5.661 -3.4261  0.0008 -1.0646
  161SAPE   H4S18053   4.427   3.028   5.809  1.2703  1.1478  0.4209
  161SAPE   C2518054   4.411   2.888   5.647 -0.9726 -0.0712  0.7389
  161SAPE   H5R18055   4.346   2.823   5.706 -1.2189  0.6482  1.2768
  161SAPE   C2618056   4.419   2.864   5.516 -0.2881  0.2342 -0.0112
  161SAPE   H6R18057   4.361   2.781   5.475  0.2538 -0.9654  1.5815
  161SAPE   C2718058   4.503   2.941   5.414 -0.1997  0.0519 -0.1128
  161SAPE   H7R18059   4.555   2.866   5.350 -0.5035 -0.0219 -0.2766
  161SAPE   H7S18060   4.587   2.996   5.460 -2.2895  1.7040  1.9987
  161SAPE   C2818061   4.421   3.033   5.330 -0.4387 -0.0289  0.2411
  161SAPE   H8R18062   4.383   3.122   5.383  1.9976  0.5586  1.1222
  161SAPE   C2918063   4.382   3.027   5.198 -0.2914  0.0020 -0.3449
  161SAPE   H9R18064   4.309   3.104   5.170 -0.5866 -0.5520 -1.1071
  161SAPE  C21018065   4.406   2.916   5.101  0.1687 -0.0211  0.4685
  161SAPE  H10R18066   4.349   2.837   5.156  0.6007  0.0360  1.0020
  161SAPE  H10S18067   4.515   2.896   5.099  0.7177  2.4717  1.4480
  161SAPE  C21118068   4.367   2.949   4.961 -0.4420  0.1786 -0.7747
  161SAPE  H11R18069   4.375   3.053   4.925 -0.8998  0.9599  1.2331
  161SAPE  C21218070   4.319   2.859   4.869 -0.2691 -0.3304 -0.7825
  161SAPE  H12R18071   4.295   2.901   4.770  2.2152  1.6266 -0.6582
  161SAPE  C21318072   4.287   2.714   4.884  0.8373 -0.7396  0.3065
  161SAPE  H13R18073   4.376   2.662   4.926  1.3546 -1.7923 -1.9186
  161SAPE  H13S18074   4.268   2.661   4.788 -1.8176 -0.8375  0.8316
  161SAPE  C21418075   4.153   2.698   4.960 -0.2240  0.4710  0.4955
  161SAPE  H14R18076   4.063   2.740   4.912 -0.5072 -0.5885  0.0714
  161SAPE  C21518077   4.125   2.623   5.074 -0.5329 -0.2623 -0.0545
  161SAPE  H15R18078   4.024   2.628   5.117 -0.0961  2.4456  0.8595
  161SAPE  C21618079   4.230   2.544   5.153  0.7583 -0.2679  0.2468
  161SAPE  H16R18080   4.329   2.563   5.108 -0.5320 -0.8407 -3.1824
  161SAPE  H16S18081   4.206   2.436   5.142 -0.1944  0.0613 -1.1379
  161SAPE  C21718082   4.253   2.591   5.294  1.2162 -0.0515  0.0826
  161SAPE  H17R18083   4.273   2.699   5.304  0.6909 -0.0926  2.0919
  161SAPE  H17S18084   4.343   2.539   5.333  0.0760 -1.4124  1.0210
  161SAPE  C21818085   4.136   2.546   5.394  0.2720 -0.5719  0.2665
  161SAPE  H18R18086   4.113   2.438   5.382  1.1502 -0.8156  0.6814
  161SAPE  H18S18087   4.037   2.588   5.367  0.5227  0.2701  0.6225
  161SAPE  C21918088   4.161   2.578   5.541 -0.1286  0.0621  0.5248
  161SAPE  H19R18089   4.158   2.687   5.565  1.1891  0.1861  0.1719
  161SAPE  H19S18090   4.262   2.550   5.576 -0.7075  0.1186  2.3463
  161SAPE  C22018091   4.056   2.516   5.630  0.3645 -0.1242  0.0064
  161SAPE  H20R18092   3.957   2.548   5.592 -0.7477 -4.1739 -1.0261
  161SAPE  H20S18093   4.064   2.558   5.732 -2.7135  0.8610 -0.0680
  161SAPE  H20T18094   4.060   2.405   5.622 -2.5411 -0.4573  1.8669
  161SAPE   C3318095   4.624   2.503   5.614  0.3071  0.1309 -0.7672
  161SAPE   H3X18096   4.563   2.596   5.603  1.6918  1.5817  2.4445
  161SAPE   H3Y18097   4.561   2.423   5.658  1.7178 -0.4375  0.2917
  161SAPE   C3418098   4.691   2.457   5.491  0.3966  0.3548  0.7365
  161SAPE   H4X18099   4.752   2.365   5.506  1.4319  0.3114 -2.8084
  161SAPE   H4Y18100   4.762   2.540   5.471  0.4757  0.4911  1.5624
  161SAPE   C3518101   4.603   2.437   5.372  0.1314 -0.0619  0.7404
  161SAPE   H5X18102   4.543   2.528   5.353  0.3824 -0.4161 -2.1856
  161SAPE   H5Y18103   4.530   2.352   5.376 -0.4670  0.4628  3.4842
  161SAPE   C3618104   4.687   2.427   5.244 -0.3157  0.0193  0.6400
  161SAPE   H6X18105   4.715   2.319   5.233 -1.9670 -0.2830 -0.9368
  161SAPE   H6Y18106   4.776   2.490   5.265  0.2453 -0.3470 -0.5291
  161SAPE   C3718107   4.620   2.489   5.121  0.3647  0.6576  0.3125
  161SAPE   H7X18108   4.605   2.598   5.140 -1.1920  0.7208 -1.0034
  161SAPE   H7Y18109   4.519   2.448   5.102  0.4409  1.4769 -2.1726
  161SAPE   C3818110   4.705   2.467   4.993 -0.2637 -0.2331  0.0205
  161SAPE   H8X18111   4.734   2.360   4.984  1.2237  0.0245  1.2636
  161SAPE   H8Y18112   4.797   2.528   5.004 -1.0630  0.5314  3.7106
  161SAPE   C3918113   4.629   2.518   4.870 -0.1567  0.3969  0.0295
  161SAPE   H9X18114   4.605   2.625   4.890  1.2343  0.7811 -0.2629
  161SAPE   H9Y18115   4.531   2.467   4.858 -1.6420  3.0343  0.1286
  161SAPE  C31018116   4.708   2.521   4.738 -0.2470 -0.5032 -0.3102
  161SAPE  H10X18117   4.752   2.420   4.724  1.6830 -0.0704  1.7776
  161SAPE  H10Y18118   4.790   2.596   4.742 -0.0773 -0.4798 -2.7753
  161SAPE  C31118119   4.622   2.560   4.616  0.6518  0.0863  0.3316
  161SAPE  H11X18120   4.531   2.495   4.614  0.7478 -0.1049  1.3817
  161SAPE  H11Y18121   4.693   2.545   4.532  1.8753  1.5475  1.0516
  161SAPE  C31218122   4.581   2.710   4.635  0.5330  0.2305 -0.2738
  161SAPE  H12X18123   4.672   2.773   4.640  0.7618  0.1285 -2.2711
  161SAPE  H12Y18124   4.521   2.721   4.727 -0.4037  2.1200 -1.0504
  161SAPE  C31318125   4.498   2.765   4.517 -0.9742 -0.8406  0.4504
  161SAPE  H13X18126   4.477   2.874   4.525 -0.1939 -0.4122 -2.3009
  161SAPE  H13Y18127   4.555   2.743   4.424 -1.8361 -0.7587 -0.1044
  161SAPE  C31418128   4.355   2.714   4.488  0.0219  0.1531  0.0602
  161SAPE  H14X18129   4.298   2.695   4.581  2.8031 -1.3608  1.6142
  161SAPE  H14Y18130   4.346   2.618   4.433 -0.0786  1.1704 -1.7661
  161SAPE  C31518131   4.283   2.819   4.405  0.9803 -0.0203 -0.0447
  161SAPE  H15X18132   4.347   2.852   4.320  1.4154 -0.8056 -0.0293
  161SAPE  H15Y18133   4.241   2.900   4.469  1.6938 -1.5454  2.4670
  161SAPE  C31618134   4.165   2.756   4.316  0.1735  0.6446 -0.1778
  161SAPE  H16X18135   4.100   2.703   4.388 -2.5964  2.6036 -1.0802
  161SAPE  H16Y18136   4.212   2.693   4.237  2.0002  1.6971  0.0107
  161SAPE  C31718137   4.064   2.861   4.258  0.2724  0.0036  0.3718
  161SAPE  H17X18138   4.027   2.936   4.331  1.8863 -0.7392  2.0321
  161SAPE  H17Y18139   3.979   2.794   4.232  0.7541 -1.0617  1.4430
  161SAPE  C31818140   4.119   2.931   4.136 -0.2625  0.3717 -0.4027
  161SAPE  H18X18141   4.197   3.005   4.163 -0.7688 -0.1194  2.7607
  161SAPE  H18Y18142   4.040   2.987   4.081  1.4884  0.8607 -2.5924
  161SAPE  H18Z18143   4.174   2.861   4.070  1.3236  0.7362  0.4614
  162SAPE     N18144   5.671   2.382   6.338  0.3893  0.1290  0.1915
  162SAPE   HN118145   5.632   2.285   6.329 -0.0417  0.3703 -0.6069
  162SAPE   HN218146   5.675   2.445   6.256  2.0188  2.6226  2.0709
  162SAPE   HN318147   5.770   2.362   6.363 -0.0511 -1.1742  1.0294
  162SAPE   C1218148   5.607   2.455   6.454 -0.1956 -0.7078 -0.2741
  162SAPE  H12A18149   5.658   2.548   6.487 -0.6891 -1.0734  1.6414
  162SAPE  H12B18150   5.603   2.378   6.534  2.9211 -2.3111 -1.4726
  162SAPE   C1118151   5.456   2.473   6.422  0.3813 -0.0279  0.2754
  162SAPE  H11A18152   5.441   2.514   6.320 -1.5180 -0.7860  0.2191
  162SAPE  H11B18153   5.418   2.546   6.497 -0.7331 -1.8687  1.5919
  162SAPE     P18154   5.254   2.321   6.372  0.0236  0.2186 -0.2921
  162SAPE   O1318155   5.237   2.169   6.362  0.5465  0.0920 -0.0539
  162SAPE   O1418156   5.141   2.390   6.438 -0.2638 -0.2328 -0.0805
  162SAPE   O1218157   5.387   2.353   6.436  0.3442 -0.5349  0.6384
  162SAPE   O1118158   5.252   2.381   6.224 -0.3194  0.1615 -0.2500
  162SAPE    C118159   5.347   2.322   6.135  0.4327  0.3695  0.1000
  162SAPE    HA18160   5.452   2.325   6.173  0.7769 -0.1612 -0.7834
  162SAPE    HB18161   5.328   2.215   6.113  1.5835  0.6312 -2.5051
  162SAPE    C218162   5.349   2.395   5.997 -0.0937  0.7621  0.1341
  162SAPE    HS18163   5.343   2.502   6.026 -2.0689  1.0199 -1.0279
  162SAPE   O2118164   5.232   2.345   5.928  0.3528 -0.3647  0.4012
  162SAPE   C2118165   5.169   2.438   5.865  0.2988 -0.0541 -0.0003
  162SAPE   O2218166   5.209   2.556   5.845  0.1462  0.7652  0.2883
  162SAPE   C2218167   5.049   2.374   5.799 -0.9415  0.6456  0.6145
  162SAPE   H2R18168   4.984   2.328   5.876 -0.3195 -0.2745  0.5975
  162SAPE   H2S18169   4.998   2.458   5.746 -1.0084  0.8499  1.0030
  162SAPE    C318170   5.473   2.368   5.914 -0.2041  0.1656 -0.1205
  162SAPE    HX18171   5.469   2.260   5.888  0.5164  0.9088 -4.0576
  162SAPE    HY18172   5.560   2.387   5.980 -1.1111  0.2504  1.0746
  162SAPE   O3118173   5.481   2.435   5.791 -0.1471 -0.4862 -0.4905
  162SAPE   C3118174   5.564   2.394   5.700  0.0051 -0.3496  0.4874
  162SAPE   O3218175   5.627   2.292   5.715  0.0213 -0.3443  0.3954
  162SAPE   C3218176   5.561   2.483   5.575 -0.3656 -0.4752 -0.0959
  162SAPE   H2X18177   5.650   2.550   5.580 -1.1920  0.5846  0.8442
  162SAPE   H2Y18178   5.466   2.540   5.576 -0.6224 -0.9058  0.7028
  162SAPE   C2318179   5.095   2.267   5.701 -0.6491  0.5867 -0.0442
  162SAPE   H3R18180   5.009   2.201   5.677  0.1013 -1.8524  3.2055
  162SAPE   H3S18181   5.160   2.191   5.749  2.5874  2.5072 -1.0559
  162SAPE   C2418182   5.171   2.331   5.593  0.0091 -0.6140  0.1674
  162SAPE   H4R18183   5.261   2.382   5.634  1.0292 -2.1499 -0.0850
  162SAPE   H4S18184   5.098   2.403   5.549  0.0850  0.0154  1.0299
  162SAPE   C2518185   5.205   2.226   5.492  0.4048 -0.0420  0.4324
  162SAPE   H5R18186   5.266   2.144   5.532  1.3746 -0.5697 -1.9769
  162SAPE   C2618187   5.159   2.214   5.369  0.0381 -0.4902 -0.5104
  162SAPE   H6R18188   5.190   2.128   5.309  1.2450  0.1785 -0.8689
  162SAPE   C2718189   5.058   2.307   5.310  0.2407  0.0129  0.8708
  162SAPE   H7R18190   4.989   2.372   5.368 -2.0641 -2.1431  0.7189
  162SAPE   H7S18191   4.984   2.228   5.286  0.5165 -0.6401  2.0862
  162SAPE   C2818192   5.102   2.380   5.189  0.2386 -0.4004 -0.5825
  162SAPE   H8R18193   5.121   2.484   5.219 -2.1506 -0.0698  0.0443
  162SAPE   C2918194   5.107   2.353   5.055 -0.3798 -0.1155 -0.7175
  162SAPE   H9R18195   5.137   2.443   4.999 -1.5458  0.7284 -0.0428
  162SAPE  C21018196   5.083   2.220   4.998 -0.4258 -0.1243 -0.6945
  162SAPE  H10R18197   5.017   2.160   5.064  0.3023  0.2633  0.4033
  162SAPE  H10S18198   5.183   2.171   5.000 -0.1407  0.3766 -1.7762
  162SAPE  C21118199   5.028   2.241   4.861  0.1559 -0.1009 -0.0411
  162SAPE  H11R18200   4.928   2.286   4.866  0.8809  1.7407 -0.8978
  162SAPE  C21218201   5.072   2.184   4.741  0.1866  0.4344 -0.3830
  162SAPE  H12R18202   5.015   2.205   4.649 -0.6276  1.1115  0.2596
  162SAPE  C21318203   5.193   2.096   4.713 -0.0670  0.1961 -0.4328
  162SAPE  H13R18204   5.228   2.032   4.796  1.0190  2.2437  0.7669
  162SAPE  H13S18205   5.288   2.153   4.707 -0.3374  0.9127  1.4540
  162SAPE  C21418206   5.178   2.016   4.589  0.7441  0.0309 -0.3129
  162SAPE  H14R18207   5.181   1.909   4.615  2.7465 -0.0919 -0.8866
  162SAPE  C21518208   5.156   2.050   4.458 -1.7489  0.2718  0.0079
  162SAPE  H15R18209   5.130   1.964   4.394  0.9315 -0.0788 -0.7310
  162SAPE  C21618210   5.152   2.180   4.394  1.0330 -0.5214  0.9532
  162SAPE  H16R18211   5.207   2.180   4.297  2.1494 -0.9706  1.5602
  162SAPE  H16S18212   5.203   2.259   4.454  0.3247  0.2782  0.5172
  162SAPE  C21718213   5.001   2.213   4.367 -0.4871  0.2619 -0.4966
  162SAPE  H17R18214   4.940   2.216   4.460  0.0905  0.3204 -0.1124
  162SAPE  H17S18215   4.953   2.131   4.310 -0.1327 -3.2099  3.6735
  162SAPE  C21818216   4.980   2.342   4.287  0.3677  0.1408  0.7383
  162SAPE  H18R18217   5.011   2.348   4.180  0.2504  4.2077  0.7910
  162SAPE  H18S18218   5.049   2.415   4.332  0.6215 -1.1413  2.5333
  162SAPE  C21918219   4.842   2.409   4.301 -0.3928 -0.3569  0.4092
  162SAPE  H19R18220   4.812   2.399   4.408  0.8934 -0.0858  0.8118
  162SAPE  H19S18221   4.773   2.343   4.244 -0.6774  1.9184 -2.0722
  162SAPE  C22018222   4.828   2.551   4.255  0.1793 -0.1804  0.6920
  162SAPE  H20R18223   4.882   2.583   4.163 -2.5766 -0.6902 -1.2080
  162SAPE  H20S18224   4.867   2.620   4.334  0.8647  0.8916 -0.5434
  162SAPE  H20T18225   4.724   2.579   4.228  1.1903  1.9087 -1.4251
  162SAPE   C3318226   5.579   2.400   5.449  0.3327  0.1984 -0.0938
  162SAPE   H3X18227   5.507   2.317   5.436 -0.5328  0.9818 -0.4089
  162SAPE   H3Y18228   5.683   2.362   5.461 -0.6149 -2.2394  0.9549
  162SAPE   C3418229   5.586   2.489   5.324 -0.6502  0.2498  0.2874
  162SAPE   H4X18230   5.679   2.457   5.273  0.4096 -4.0310  4.1930
  162SAPE   H4Y18231   5.609   2.596   5.343 -0.7603  0.2224  0.5835
  162SAPE   C3518232   5.471   2.473   5.227  0.8443  0.5274  0.9016
  162SAPE   H5X18233   5.376   2.485   5.282  0.2070  0.4555 -0.1446
  162SAPE   H5Y18234   5.459   2.365   5.201 -0.8715  1.1550 -1.2351
  162SAPE   C3618235   5.478   2.564   5.102 -0.2090  0.3411  0.3883
  162SAPE   H6X18236   5.497   2.671   5.126  2.8022  0.0322 -0.2189
  162SAPE   H6Y18237   5.379   2.563   5.052 -0.5725  2.8808  0.9037
  162SAPE   C3718238   5.583   2.522   5.003 -0.4175 -0.0618 -0.3574
  162SAPE   H7X18239   5.549   2.423   4.965  0.2085 -0.4913  0.1965
  162SAPE   H7Y18240   5.674   2.495   5.059 -2.3574  0.6699  3.5052
  162SAPE   C3818241   5.611   2.610   4.881  0.3668  1.0223  0.5110
  162SAPE   H8X18242   5.683   2.547   4.823 -1.8011 -0.0095 -1.2020
  162SAPE   H8Y18243   5.655   2.703   4.923  0.8100  1.2986 -0.5269
  162SAPE   C3918244   5.488   2.649   4.803  0.0896 -0.0464  0.3508
  162SAPE   H9X18245   5.508   2.735   4.736  1.3649  1.6669  2.7963
  162SAPE   H9Y18246   5.422   2.684   4.885  2.3439  0.0443  2.2324
  162SAPE  C31018247   5.419   2.527   4.741 -0.0767  0.2353 -0.0905
  162SAPE  H10X18248   5.420   2.443   4.814 -2.0212  0.6507  0.4549
  162SAPE  H10Y18249   5.484   2.497   4.655  2.5949  0.0829  1.8396
  162SAPE  C31118250   5.277   2.551   4.701  0.4525  0.2580 -0.4839
  162SAPE  H11X18251   5.219   2.581   4.791 -0.0629  2.5149 -1.4872
  162SAPE  H11Y18252   5.230   2.461   4.656 -1.8233  0.3561  1.5024
  162SAPE  C31218253   5.264   2.657   4.593  0.4316  0.2652 -0.3189
  162SAPE  H12X18254   5.313   2.751   4.627 -1.5354  0.8838  0.9935
  162SAPE  H12Y18255   5.155   2.681   4.591  0.6953  1.6743  0.4708
  162SAPE  C31318256   5.304   2.599   4.456 -0.3403  0.3129  0.2256
  162SAPE  H13X18257   5.251   2.501   4.448 -1.1556  0.5837  1.9849
  162SAPE  H13Y18258   5.413   2.581   4.469 -0.0995  2.0491  0.8539
  162SAPE  C31418259   5.269   2.690   4.340  0.2917  0.2594  0.7579
  162SAPE  H14X18260   5.317   2.790   4.346  0.9592 -0.0976  1.6321
  162SAPE  H14Y18261   5.160   2.708   4.341  0.4246  1.0932  0.6716
  162SAPE  C31518262   5.307   2.632   4.212  0.1509  0.2310 -0.2519
  162SAPE  H15X18263   5.239   2.546   4.192  0.3749  0.3048 -1.4188
  162SAPE  H15Y18264   5.410   2.592   4.207 -0.4510 -1.4699  0.3253
  162SAPE  C31618265   5.290   2.737   4.101  0.4057 -0.4610  0.3998
  162SAPE  H16X18266   5.359   2.821   4.127  0.6451  0.5821 -3.1127
  162SAPE  H16Y18267   5.187   2.776   4.113 -0.8102 -3.3862  0.3112
  162SAPE  C31718268   5.303   2.685   3.958  0.6303  0.5768 -0.6528
  162SAPE  H17X18269   5.230   2.604   3.937 -1.8402  1.7827  2.4482
  162SAPE  H17Y18270   5.397   2.626   3.946 -0.7081 -1.8038 -0.1978
  162SAPE  C31818271   5.302   2.787   3.850  0.4817 -0.4280  0.8155
  162SAPE  H18X18272   5.286   2.740   3.750 -1.5413 -0.8726  1.2891
  162SAPE  H18Y18273   5.395   2.846   3.859  1.6089 -1.9666 -0.1691
  162SAPE  H18Z18274   5.214   2.852   3.871 -0.0352 -1.1832  1.0536
  163SAPE     N18275   4.155   6.691   6.351  0.2967 -0.2196 -0.4094
  163SAPE   HN118276   4.204   6.668   6.439  1.5353  2.1594 -0.4057
  163SAPE   HN218277   4.198   6.774   6.306  0.2111  0.0663  0.0274
  163SAPE   HN318278   4.060   6.707   6.390  0.6402  2.8446 -0.5471
  163SAPE   C1218279   4.158   6.570   6.263 -0.0658  0.3724  0.8395
  163SAPE  H12A18280   4.263   6.571   6.225  0.6552  0.3104  2.6944
  163SAPE  H12B18281   4.082   6.581   6.183  0.5933  0.6311  0.2374
  163SAPE   C1118282   4.119   6.442   6.351  0.4875 -0.3067 -0.2118
  163SAPE  H11A18283   4.187   6.434   6.438  1.4167  1.2186 -0.7637
  163SAPE  H11B18284   4.141   6.348   6.294 -0.2156 -0.8802  0.4414
  163SAPE     P18285   3.911   6.310   6.426 -0.1511  0.4253  0.4707
  163SAPE   O1318286   3.999   6.224   6.513 -0.1762 -0.0458  0.6232
  163SAPE   O1418287   3.773   6.342   6.469 -0.4267  0.1986 -0.0120
  163SAPE   O1218288   3.986   6.446   6.393 -0.0988 -0.6532 -0.3027
  163SAPE   O1118289   3.911   6.248   6.279 -0.3398 -0.2235 -0.3118
  163SAPE    C118290   3.831   6.321   6.182  0.2728  0.1890  0.8855
  163SAPE    HA18291   3.855   6.429   6.196  2.0402 -0.3991  2.9916
  163SAPE    HB18292   3.862   6.307   6.077 -0.3321 -0.4291  0.7836
  163SAPE    C218293   3.679   6.283   6.185  0.7333  0.6249  0.4653
  163SAPE    HS18294   3.635   6.283   6.287 -1.0155 -1.0473 -0.2304
  163SAPE   O2118295   3.670   6.150   6.130  0.5377 -0.0857 -0.3010
  163SAPE   C2118296   3.573   6.071   6.167 -0.0032 -0.3623 -0.3207
  163SAPE   O2218297   3.493   6.088   6.259 -0.2615 -0.6606  0.1698
  163SAPE   C2218298   3.570   5.952   6.080 -0.0757 -0.9106 -0.0547
  163SAPE   H2R18299   3.651   5.940   6.006  0.7838 -1.9410  1.0123
  163SAPE   H2S18300   3.575   5.859   6.141 -0.6369 -0.7292  0.2757
  163SAPE    C318301   3.588   6.381   6.112  0.4344 -0.2606 -0.3260
  163SAPE    HX18302   3.610   6.377   6.003  0.9415  0.6720 -0.2725
  163SAPE    HY18303   3.619   6.484   6.141  0.8942 -0.4531 -0.1297
  163SAPE   O3118304   3.445   6.354   6.135 -0.1634  0.2484  0.2258
  163SAPE   C3118305   3.395   6.395   6.243  0.0922 -0.2957  0.2685
  163SAPE   O3218306   3.442   6.479   6.322 -0.4354 -0.0621  0.2463
  163SAPE   C3218307   3.250   6.336   6.237 -0.4279 -0.0081 -0.3929
  163SAPE   H2X18308   3.187   6.366   6.324 -1.4538  0.0987 -1.1594
  163SAPE   H2Y18309   3.267   6.227   6.249  0.0258  0.0462 -0.5316
  163SAPE   C2318310   3.434   5.954   6.001 -0.2878 -0.3789 -0.7781
  163SAPE   H3R18311   3.341   5.973   6.058 -0.9702 -1.4401 -1.5200
  163SAPE   H3S18312   3.424   5.861   5.941  0.1944 -1.6418  1.0339
  163SAPE   C2418313   3.439   6.073   5.892 -0.0187  0.5124 -0.9101
  163SAPE   H4R18314   3.456   6.170   5.943 -0.5069  0.5099 -0.7398
  163SAPE   H4S18315   3.336   6.088   5.853 -0.1508  2.1659 -0.0233
  163SAPE   C2518316   3.541   6.060   5.785  0.2840  0.5969  0.0352
  163SAPE   H5R18317   3.646   6.087   5.804  0.2992 -0.4939  1.7325
  163SAPE   C2618318   3.506   6.019   5.658 -0.7276  0.0597  1.0139
  163SAPE   H6R18319   3.591   6.001   5.589 -0.0968  1.6113  1.3506
  163SAPE   C2718320   3.371   5.979   5.604 -0.5240  0.3996 -0.3798
  163SAPE   H7R18321   3.310   6.071   5.596  0.6777  1.5309  2.4504
  163SAPE   H7S18322   3.324   5.921   5.686  0.2620  0.8361  0.3919
  163SAPE   C2818323   3.359   5.883   5.486 -0.4370 -0.9700  0.5840
  163SAPE   H8R18324   3.339   5.778   5.512  0.4893 -1.6405 -1.2457
  163SAPE   C2918325   3.370   5.917   5.353 -0.4075 -0.4221 -0.5267
  163SAPE   H9R18326   3.344   5.840   5.279 -2.6853  0.5933 -0.8502
  163SAPE  C21018327   3.405   6.048   5.291  0.0983  0.0860  0.2208
  163SAPE  H10R18328   3.496   6.038   5.228 -0.0142 -0.7222  0.1833
  163SAPE  H10S18329   3.440   6.116   5.372  0.7672  0.5903 -0.4798
  163SAPE  C21118330   3.278   6.105   5.228  0.1209  0.1075  0.7011
  163SAPE  H11R18331   3.195   6.128   5.298  0.1962  2.6982  0.0299
  163SAPE  C21218332   3.246   6.126   5.100 -0.2164  0.1790 -0.0141
  163SAPE  H12R18333   3.151   6.179   5.084 -0.5543 -0.4253 -0.0119
  163SAPE  C21318334   3.323   6.110   4.973 -0.0356  0.0947  0.5657
  163SAPE  H13R18335   3.275   6.027   4.918  0.7083 -0.4325  0.6896
  163SAPE  H13S18336   3.429   6.075   4.979  0.0320  0.2242  0.1495
  163SAPE  C21418337   3.319   6.240   4.887 -0.4167 -0.1566  0.0247
  163SAPE  H14R18338   3.360   6.338   4.919  1.2337 -0.4613 -1.0703
  163SAPE  C21518339   3.318   6.239   4.749  0.9425 -0.3127  0.7995
  163SAPE  H15R18340   3.314   6.330   4.687 -0.9679 -2.6863 -2.8705
  163SAPE  C21618341   3.309   6.115   4.661 -0.6752 -0.6811  0.1002
  163SAPE  H16R18342   3.250   6.032   4.705 -1.6797 -0.2796 -0.4475
  163SAPE  H16S18343   3.410   6.070   4.651 -0.1839  0.1210  1.2376
  163SAPE  C21718344   3.254   6.139   4.518  0.4336 -0.2092  0.2920
  163SAPE  H17R18345   3.324   6.192   4.450 -1.5803  1.3863 -0.6496
  163SAPE  H17S18346   3.158   6.195   4.508 -1.0276 -2.7930 -1.3509
  163SAPE  C21818347   3.243   6.010   4.444 -0.8957 -0.1639 -0.6146
  163SAPE  H18R18348   3.167   5.953   4.502  1.3995 -3.6412 -0.7226
  163SAPE  H18S18349   3.338   5.952   4.449  0.3263  1.7889  0.2261
  163SAPE  C21918350   3.199   6.024   4.296  0.3035 -0.2525  0.2358
  163SAPE  H19R18351   3.191   5.928   4.242 -0.1150 -0.8566  1.3451
  163SAPE  H19S18352   3.274   6.090   4.246 -2.2271  1.8016 -1.1016
  163SAPE  C22018353   3.071   6.099   4.280  0.1424  0.7764 -0.4121
  163SAPE  H20R18354   3.084   6.204   4.312  0.3999  1.0793 -1.4562
  163SAPE  H20S18355   2.997   6.051   4.348  2.2560 -2.7872 -0.3420
  163SAPE  H20T18356   3.051   6.105   4.171 -0.2025 -0.5963 -0.4439
  163SAPE   C3318357   3.179   6.340   6.103 -0.3808 -0.8049 -0.1167
  163SAPE   H3X18358   3.074   6.303   6.109 -0.5953 -0.3341 -0.8939
  163SAPE   H3Y18359   3.229   6.278   6.025  1.3257  1.5338 -0.9850
  163SAPE   C3418360   3.174   6.483   6.056 -0.0167  0.5575 -0.0034
  163SAPE   H4X18361   3.267   6.542   6.063 -0.3121  0.9520  0.6857
  163SAPE   H4Y18362   3.107   6.542   6.122  0.2623 -0.8127  1.5740
  163SAPE   C3518363   3.126   6.497   5.904  0.5569  0.1675  0.8100
  163SAPE   H5X18364   3.095   6.603   5.895  0.0471 -0.0367  0.0768
  163SAPE   H5Y18365   3.039   6.428   5.895  0.2585  0.7018 -0.6356
  163SAPE   C3618366   3.220   6.459   5.786 -0.5327 -0.0685 -0.0160
  163SAPE   H6X18367   3.237   6.349   5.788  0.3562  0.0546 -0.5286
  163SAPE   H6Y18368   3.311   6.515   5.816 -2.5414  2.1655  2.4358
  163SAPE   C3718369   3.160   6.499   5.650  0.5932  0.2980  0.2101
  163SAPE   H7X18370   3.121   6.603   5.646 -0.6423 -0.1693 -1.4868
  163SAPE   H7Y18371   3.076   6.431   5.625  1.3155 -0.1198 -1.2416
  163SAPE   C3818372   3.255   6.501   5.528  0.3431  0.4401  0.4141
  163SAPE   H8X18373   3.282   6.393   5.526 -0.0992  0.2868  1.7519
  163SAPE   H8Y18374   3.337   6.566   5.566  1.9225  0.7646 -3.1714
  163SAPE   C3918375   3.194   6.549   5.394  0.5919  0.3731  0.4136
  163SAPE   H9X18376   3.279   6.550   5.322 -1.1394  1.1718 -1.6997
  163SAPE   H9Y18377   3.153   6.651   5.412  0.3953  0.3987 -0.1768
  163SAPE  C31018378   3.089   6.465   5.313  0.1039 -0.4707  0.6940
  163SAPE  H10X18379   2.981   6.488   5.330 -0.5187 -2.4360 -0.2550
  163SAPE  H10Y18380   3.102   6.357   5.337 -1.1627 -1.3357 -2.0386
  163SAPE  C31118381   3.118   6.485   5.160  0.5007  0.3964 -0.1381
  163SAPE  H11X18382   3.204   6.418   5.142  0.1909 -0.0931  0.1919
  163SAPE  H11Y18383   3.146   6.589   5.130  3.4114 -0.1196  0.5191
  163SAPE  C31218384   3.002   6.451   5.069  0.1918 -0.7636  0.2723
  163SAPE  H12X18385   2.921   6.523   5.094  0.2309 -0.4145 -0.5994
  163SAPE  H12Y18386   2.957   6.350   5.084 -4.5384  0.9102 -0.9941
  163SAPE  C31318387   3.038   6.461   4.923  0.0505  0.0016  0.1386
  163SAPE  H13X18388   3.095   6.367   4.907  0.0198 -0.0578  0.3838
  163SAPE  H13Y18389   3.095   6.556   4.912  0.2565 -0.2447 -1.0715
  163SAPE  C31418390   2.915   6.468   4.833 -0.2036 -0.7869  0.2198
  163SAPE  H14X18391   2.852   6.558   4.850 -1.3422 -0.8930 -2.8067
  163SAPE  H14Y18392   2.847   6.381   4.844 -0.9483 -0.3062 -0.5103
  163SAPE  C31518393   2.967   6.480   4.690  0.1879 -0.3201  0.0412
  163SAPE  H15X18394   3.010   6.380   4.664  0.4805 -0.6735  1.7947
  163SAPE  H15Y18395   3.039   6.563   4.675 -0.4637 -0.1199 -2.3234
  163SAPE  C31618396   2.851   6.510   4.592 -0.5661  0.3513  0.4252
  163SAPE  H16X18397   2.778   6.573   4.647  0.1848  0.8385  0.8706
  163SAPE  H16Y18398   2.805   6.410   4.572 -1.5707  1.1821 -1.7245
  163SAPE  C31718399   2.891   6.574   4.461  0.4067  0.2209 -0.0496
  163SAPE  H17X18400   2.932   6.674   4.487 -0.5573  0.1647  1.9225
  163SAPE  H17Y18401   2.801   6.589   4.398  0.6924 -2.6269 -1.2869
  163SAPE  C31818402   2.985   6.495   4.378 -0.5889  0.4274 -0.3316
  163SAPE  H18X18403   2.948   6.390   4.369 -0.1851  0.3022 -0.5580
  163SAPE  H18Y18404   3.080   6.496   4.434 -0.6181  0.4787 -0.2840
  163SAPE  H18Z18405   3.000   6.542   4.278 -2.0643 -0.5565 -1.0675
  164SAPE     N18406   1.259   0.626   6.742  0.1005 -0.2077  0.3290
  164SAPE   HN118407   1.227   0.614   6.644  1.1366  0.6254 -0.1321
  164SAPE   HN218408   1.242   0.542   6.802  2.2813 -0.5965  0.4864
  164SAPE   HN318409   1.216   0.703   6.797 -1.2155 -0.8481  0.2487
  164SAPE   C1218410   1.407   0.647   6.750 -0.1993  0.0360  0.1396
  164SAPE  H12A18411   1.447   0.561   6.691 -1.1854 -0.9404  0.8389
  164SAPE  H12B18412   1.446   0.654   6.854  2.0873 -4.8863 -0.0718
  164SAPE   C1118413   1.456   0.773   6.669 -0.2418  0.1452 -0.6064
  164SAPE  H11A18414   1.421   0.758   6.565  0.7137  0.2759 -0.9553
  164SAPE  H11B18415   1.566   0.785   6.679 -0.3320 -0.2313  1.3426
  164SAPE     P18416   1.470   0.985   6.828  0.1358 -0.2500 -0.0967
  164SAPE   O1318417   1.370   1.074   6.886  0.2042 -0.1748  0.3587
  164SAPE   O1418418   1.551   0.906   6.916 -0.2754  0.0517 -0.1286
  164SAPE   O1218419   1.397   0.888   6.726 -0.3598 -0.3268  0.4015
  164SAPE   O1118420   1.567   1.068   6.735 -0.5705 -0.1163 -0.1890
  164SAPE    C118421   1.508   1.139   6.622  0.4973 -0.1121 -0.3282
  164SAPE    HA18422   1.505   1.070   6.534  1.9019 -2.9672  1.6960
  164SAPE    HB18423   1.404   1.174   6.638  0.0518 -2.0834  1.4245
  164SAPE    C218424   1.585   1.267   6.585  0.6826  0.1255 -0.0869
  164SAPE    HS18425   1.515   1.344   6.546 -0.2555 -0.4472  0.4259
  164SAPE   O2118426   1.688   1.239   6.494 -0.1972 -1.0638 -0.1160
  164SAPE   C2118427   1.637   1.225   6.374 -0.3892 -0.5349  0.4845
  164SAPE   O2218428   1.523   1.245   6.343  0.1974  0.2485  1.1108
  164SAPE   C2218429   1.749   1.177   6.284  0.0945  0.6568  0.7587
  164SAPE   H2R18430   1.823   1.256   6.262 -0.7846  0.9568 -1.3034
  164SAPE   H2S18431   1.792   1.095   6.346 -4.3548 -1.0112  1.9881
  164SAPE    C318432   1.640   1.338   6.710  0.8217 -0.5083  0.1748
  164SAPE    HX18433   1.698   1.266   6.772  1.3563 -2.4836 -2.4505
  164SAPE    HY18434   1.552   1.360   6.775 -0.0675  1.7666 -1.6664
  164SAPE   O3118435   1.687   1.471   6.676  0.3747 -0.7251 -0.4627
  164SAPE   C3118436   1.813   1.492   6.709  0.6488 -0.6343  0.3397
  164SAPE   O3218437   1.891   1.419   6.773  0.3161 -0.1644 -0.5700
  164SAPE   C3218438   1.852   1.628   6.649 -0.6714 -0.3046 -0.3049
  164SAPE   H2X18439   1.833   1.707   6.725 -1.4052  0.6439 -1.4389
  164SAPE   H2Y18440   1.790   1.658   6.562  2.6536  3.4359 -1.7051
  164SAPE   C2318441   1.688   1.113   6.151  0.0958  0.2910 -0.5498
  164SAPE   H3R18442   1.578   1.121   6.139 -0.1521 -2.2306 -0.4133
  164SAPE   H3S18443   1.722   1.008   6.147 -0.4799  0.0295  0.8174
  164SAPE   C2418444   1.733   1.188   6.026  0.0117  0.0160  0.7392
  164SAPE   H4R18445   1.844   1.187   6.034  0.2721  4.5463  0.2533
  164SAPE   H4S18446   1.698   1.293   6.038  1.9113  0.6304  1.3582
  164SAPE   C2518447   1.685   1.126   5.897 -0.1327  0.7897  0.5807
  164SAPE   H5R18448   1.575   1.116   5.898 -0.3059  2.2263 -0.6127
  164SAPE   C2618449   1.765   1.087   5.790  0.3052  0.1671  1.0640
  164SAPE   H6R18450   1.722   1.047   5.697  1.7002  2.8537 -0.9087
  164SAPE   C2718451   1.919   1.080   5.797 -0.3655  0.7256  1.4924
  164SAPE   H7R18452   1.948   1.049   5.899  0.9969 -0.9188  0.6618
  164SAPE   H7S18453   1.960   1.183   5.788 -1.7524  1.3478  2.0032
  164SAPE   C2818454   1.990   0.987   5.699 -0.3072  0.3357  0.0778
  164SAPE   H8R18455   2.054   0.913   5.749  1.2832  0.0846 -2.1561
  164SAPE   C2918456   1.993   0.980   5.564 -1.3300 -0.3135  0.3424
  164SAPE   H9R18457   2.065   0.909   5.520 -3.3833 -1.0696 -2.0531
  164SAPE  C21018458   1.931   1.079   5.468 -0.1354 -0.0324  0.0712
  164SAPE  H10R18459   2.005   1.159   5.445  0.1510 -0.3970 -0.3001
  164SAPE  H10S18460   1.846   1.135   5.512 -0.1964 -1.7588  2.2814
  164SAPE  C21118461   1.879   1.026   5.338  0.0943 -0.7933  0.4633
  164SAPE  H11R18462   1.772   1.004   5.345 -0.2739  0.9069  0.4711
  164SAPE  C21218463   1.957   0.983   5.233  0.2180  0.7989 -0.2612
  164SAPE  H12R18464   1.897   0.947   5.148  1.7005  1.3431 -1.5850
  164SAPE  C21318465   2.109   0.982   5.209  0.5888 -0.0808  0.4914
  164SAPE  H13R18466   2.130   0.876   5.188  1.8028  0.1896  0.2882
  164SAPE  H13S18467   2.164   0.996   5.304  0.9401 -2.4582  0.6906
  164SAPE  C21418468   2.145   1.081   5.102 -0.1769  0.4750 -0.7685
  164SAPE  H14R18469   2.080   1.170   5.097 -1.2114 -0.2123 -0.0027
  164SAPE  C21518470   2.230   1.065   4.998 -0.5839 -0.4605 -0.2848
  164SAPE  H15R18471   2.238   1.142   4.920 -0.6658 -1.4663 -1.3105
  164SAPE  C21618472   2.321   0.951   4.970 -0.0834 -0.2894 -0.1132
  164SAPE  H16R18473   2.345   0.903   5.067 -1.5430 -0.1682  0.3369
  164SAPE  H16S18474   2.413   0.997   4.928  1.7956 -1.3916  2.4934
  164SAPE  C21718475   2.270   0.843   4.869  0.6468 -0.1555  0.1236
  164SAPE  H17R18476   2.237   0.886   4.772 -3.8086 -2.0829  0.5222
  164SAPE  H17S18477   2.171   0.809   4.906  0.2423  2.0503  1.2330
  164SAPE  C21818478   2.368   0.729   4.839  0.6336  0.3875  0.2980
  164SAPE  H18R18479   2.377   0.665   4.929  3.0445  0.0957 -0.0795
  164SAPE  H18S18480   2.468   0.776   4.826  0.6787  0.3565  0.5271
  164SAPE  C21918481   2.349   0.631   4.724  0.2609 -0.1390 -0.2200
  164SAPE  H19R18482   2.416   0.543   4.735  0.9068  0.5746  2.2855
  164SAPE  H19S18483   2.365   0.676   4.624 -2.5806  1.0336 -0.2222
  164SAPE  C22018484   2.202   0.577   4.714 -0.3392 -0.2692 -0.5975
  164SAPE  H20R18485   2.184   0.502   4.635 -0.7700 -2.1890  1.2457
  164SAPE  H20S18486   2.127   0.659   4.705  2.9037  2.9227 -1.0749
  164SAPE  H20T18487   2.180   0.514   4.802  1.4005 -0.7415 -0.4596
  164SAPE   C3318488   1.999   1.634   6.612 -0.2659 -0.6671  0.5860
  164SAPE   H3X18489   2.060   1.548   6.647  0.3119 -0.9311 -0.9844
  164SAPE   H3Y18490   2.058   1.724   6.639 -0.3761 -0.6026  0.6115
  164SAPE   C3418491   2.026   1.624   6.458 -0.9062 -1.0901  0.2472
  164SAPE   H4X18492   2.134   1.643   6.440 -1.2589  1.1212  0.1176
  164SAPE   H4Y18493   1.983   1.714   6.410 -0.8256 -1.1360  0.0904
  164SAPE   C3518494   1.984   1.492   6.392  0.3359 -0.0360  0.3086
  164SAPE   H5X18495   1.873   1.481   6.391  0.4595 -1.8551  1.3406
  164SAPE   H5Y18496   2.012   1.408   6.459 -0.0714 -0.3237  0.1203
  164SAPE   C3618497   2.025   1.473   6.243  0.1644  0.0931 -0.0796
  164SAPE   H6X18498   2.016   1.364   6.223 -0.5420 -0.1600  1.4595
  164SAPE   H6Y18499   2.128   1.516   6.238 -0.2610  1.3416  1.0286
  164SAPE   C3718500   1.932   1.540   6.138 -0.0684  0.5411 -0.6837
  164SAPE   H7X18501   1.952   1.648   6.154  0.6595  0.0651  1.9458
  164SAPE   H7Y18502   1.823   1.531   6.161  0.1692 -0.8154  0.0200
  164SAPE   C3818503   1.958   1.500   5.992 -0.4358  0.3920 -0.0088
  164SAPE   H8X18504   1.938   1.393   5.969 -0.3417  0.4154 -0.2054
  164SAPE   H8Y18505   2.066   1.502   5.967 -0.2740  2.9763  0.5339
  164SAPE   C3918506   1.868   1.559   5.876 -0.5149  0.5587 -0.3300
  164SAPE   H9X18507   1.885   1.668   5.880 -0.8461  0.5873  0.5259
  164SAPE   H9Y18508   1.766   1.523   5.900  0.1632 -0.1122  1.7311
  164SAPE  C31018509   1.900   1.503   5.741 -0.3469 -0.4239  1.2382
  164SAPE  H10X18510   1.865   1.398   5.740 -0.9550 -0.2529 -0.6771
  164SAPE  H10Y18511   2.005   1.499   5.705  0.1791  0.0013  2.6698
  164SAPE  C31118512   1.819   1.569   5.624 -0.0522 -0.0179  1.0691
  164SAPE  H11X18513   1.869   1.660   5.586 -0.3891 -0.1338  0.3315
  164SAPE  H11Y18514   1.722   1.603   5.666 -0.7664 -0.3233 -0.2646
  164SAPE  C31218515   1.783   1.472   5.515 -0.1261  0.2277  0.2800
  164SAPE  H12X18516   1.712   1.525   5.447 -1.0935  0.8858  1.7490
  164SAPE  H12Y18517   1.725   1.383   5.547 -0.2742 -0.2705 -1.2639
  164SAPE  C31318518   1.908   1.438   5.431  0.5240 -0.6559  0.7008
  164SAPE  H13X18519   1.962   1.378   5.507  0.5108 -0.6826  0.6891
  164SAPE  H13Y18520   1.959   1.535   5.413 -1.1956  0.2261  0.2941
  164SAPE  C31418521   1.893   1.370   5.296  0.1693 -0.0882  0.1280
  164SAPE  H14X18522   1.839   1.275   5.318  1.8947 -1.0287  0.5092
  164SAPE  H14Y18523   1.992   1.330   5.265 -0.8283 -1.1099 -1.9811
  164SAPE  C31518524   1.828   1.444   5.178  0.1897  0.4670  0.2018
  164SAPE  H15X18525   1.894   1.523   5.136  0.5343 -0.9198 -2.0467
  164SAPE  H15Y18526   1.730   1.485   5.212 -1.8030 -1.0018 -3.2623
  164SAPE  C31618527   1.798   1.347   5.060 -0.1175  0.0874 -0.8663
  164SAPE  H16X18528   1.752   1.260   5.113 -0.8170  0.5255 -0.7409
  164SAPE  H16Y18529   1.901   1.329   5.025  0.7516  2.6040  0.1677
  164SAPE  C31718530   1.706   1.395   4.945 -0.1406  0.0830 -0.6298
  164SAPE  H17X18531   1.644   1.481   4.976 -1.2080 -0.7169 -0.4930
  164SAPE  H17Y18532   1.633   1.313   4.930 -1.0583  0.2233  2.4499
  164SAPE  C31818533   1.784   1.425   4.816 -0.5031  0.1052 -0.0487
  164SAPE  H18X18534   1.863   1.353   4.785 -0.4659 -0.2445  0.8182
  164SAPE  H18Y18535   1.838   1.520   4.837 -2.1326  0.9998  0.2512
  164SAPE  H18Z18536   1.715   1.430   4.729 -0.2264  0.2789 -0.2577
  165SAPE     N18537   5.038   2.959   6.238 -0.3770 -0.5581 -0.2884
  165SAPE   HN118538   5.048   2.903   6.325  1.3350  0.0631 -0.0629
  165SAPE   HN218539   4.940   2.974   6.205 -0.7002  0.0424  0.8577
  165SAPE   HN318540   5.100   2.913   6.169  0.1272 -0.4468  0.0802
  165SAPE   C1218541   5.083   3.092   6.290  0.5419 -0.3895  0.1529
  165SAPE  H12A18542   5.008   3.140   6.356  2.0273  0.4007  1.3515
  165SAPE  H12B18543   5.093   3.165   6.207 -0.3199 -1.0047 -0.5141
  165SAPE   C1118544   5.211   3.076   6.371 -0.3799 -0.2212  0.3486
  165SAPE  H11A18545   5.242   3.179   6.400 -0.1601 -0.4369  0.8851
  165SAPE  H11B18546   5.291   3.033   6.308 -0.6301 -0.4595  0.1932
  165SAPE     P18547   5.222   2.852   6.516  0.0384 -0.0131 -0.4593
  165SAPE   O1318548   5.246   2.837   6.664  0.1758  0.2958 -0.0975
  165SAPE   O1418549   5.112   2.773   6.460  0.5171 -0.1729  0.4003
  165SAPE   O1218550   5.196   3.004   6.487  0.1401  0.0812  0.3079
  165SAPE   O1118551   5.358   2.825   6.437  0.5393 -0.7037  0.3524
  165SAPE    C118552   5.477   2.898   6.474  0.2241  0.9205 -0.1027
  165SAPE    HA18553   5.469   3.008   6.464  1.1128  1.0202  0.2831
  165SAPE    HB18554   5.516   2.862   6.572  3.3195 -1.4867 -2.0348
  165SAPE    C218555   5.584   2.861   6.372 -0.2379  0.8788  0.0884
  165SAPE    HS18556   5.613   2.755   6.383  0.4806  1.0603 -0.0143
  165SAPE   O2118557   5.707   2.940   6.383  0.1200 -0.8474  0.1380
  165SAPE   C2118558   5.777   2.914   6.490  0.0779  0.1027 -1.0818
  165SAPE   O2218559   5.755   2.839   6.581 -0.4135  0.5748  0.4618
  165SAPE   C2218560   5.887   3.033   6.491 -0.5006 -0.1494  0.6656
  165SAPE   H2R18561   5.943   3.024   6.396  1.7896  1.5525  1.7526
  165SAPE   H2S18562   5.832   3.129   6.498  0.2995  0.2790  1.1258
  165SAPE    C318563   5.526   2.873   6.229 -0.0395 -0.0328  0.3712
  165SAPE    HX18564   5.502   2.980   6.216 -0.3749 -0.1372  0.1116
  165SAPE    HY18565   5.435   2.814   6.205  0.1084  0.4009 -1.3471
  165SAPE   O3118566   5.631   2.847   6.129  0.4902 -0.2595 -0.1764
  165SAPE   C3118567   5.645   2.721   6.097 -0.0766 -0.4782 -0.6357
  165SAPE   O3218568   5.595   2.621   6.146  0.2392 -0.7643 -0.1352
  165SAPE   C3218569   5.736   2.713   5.971  0.7124 -0.0512 -0.3739
  165SAPE   H2X18570   5.805   2.801   5.968  1.2451 -0.4389  0.2417
  165SAPE   H2Y18571   5.674   2.732   5.880  0.7266  0.9980 -0.1785
  165SAPE   C2318572   5.979   3.018   6.608  0.4185 -0.6549  0.2879
  165SAPE   H3R18573   6.020   2.914   6.612  1.3683 -0.3346 -0.6777
  165SAPE   H3S18574   5.923   3.033   6.703  0.1066  0.1143 -0.0157
  165SAPE   C2418575   6.104   3.115   6.606 -0.4732  0.0632  0.1397
  165SAPE   H4R18576   6.165   3.098   6.515 -0.2661 -1.1947  0.5006
  165SAPE   H4S18577   6.167   3.079   6.690 -3.8382 -3.2734  1.5060
  165SAPE   C2518578   6.062   3.258   6.622  0.5301  0.1556 -0.0695
  165SAPE   H5R18579   6.051   3.293   6.725  1.4707  0.2880 -0.0055
  165SAPE   C2618580   6.040   3.342   6.521 -0.3155  0.4215 -0.5671
  165SAPE   H6R18581   6.016   3.448   6.539 -0.4106  0.2607  0.2707
  165SAPE   C2718582   6.041   3.308   6.371 -0.4179  0.2244  0.7308
  165SAPE   H7R18583   5.951   3.250   6.342 -0.2371  0.2038  0.1865
  165SAPE   H7S18584   6.121   3.232   6.356 -0.8605 -0.1090 -0.0045
  165SAPE   C2818585   6.059   3.424   6.268 -0.5590 -0.4788  0.1091
  165SAPE   H8R18586   6.116   3.513   6.301 -0.6228 -0.7505  0.9812
  165SAPE   C2918587   6.024   3.428   6.138  0.4708 -0.1550 -0.1360
  165SAPE   H9R18588   6.046   3.514   6.074  1.7043 -1.9409 -2.2914
  165SAPE  C21018589   5.950   3.323   6.061  0.0103  0.3145 -0.0640
  165SAPE  H10R18590   5.919   3.363   5.962 -0.7754 -2.3861 -0.9782
  165SAPE  H10S18591   5.854   3.300   6.112  0.6553 -0.7687  0.6823
  165SAPE  C21118592   6.017   3.186   6.042  0.1565  0.3315 -0.0310
  165SAPE  H11R18593   6.069   3.141   6.127  0.7059  1.0570  0.0290
  165SAPE  C21218594   6.001   3.102   5.931 -0.4793  0.0994  0.0849
  165SAPE  H12R18595   6.061   3.010   5.924  0.1187  0.4433  0.5818
  165SAPE  C21318596   5.908   3.125   5.813  0.1187 -0.2087 -0.3318
  165SAPE  H13R18597   5.962   3.127   5.717  1.2353  0.9324  0.2907
  165SAPE  H13S18598   5.866   3.228   5.823  1.8566  0.4096  1.1116
  165SAPE  C21418599   5.791   3.032   5.821 -0.5403  0.6479 -0.1706
  165SAPE  H14R18600   5.744   3.026   5.920  0.4566 -0.4649  0.2729
  165SAPE  C21518601   5.733   2.959   5.728 -0.6824  0.3413 -0.0908
  165SAPE  H15R18602   5.636   2.908   5.733 -0.8938  0.6472 -0.8887
  165SAPE  C21618603   5.783   2.956   5.583  0.3349 -0.2345 -0.0742
  165SAPE  H16R18604   5.854   3.037   5.555 -0.0707  0.4023  0.6870
  165SAPE  H16S18605   5.693   2.978   5.522 -0.9397 -1.3700  1.3039
  165SAPE  C21718606   5.833   2.816   5.538  0.8582 -0.3532  0.5037
  165SAPE  H17R18607   5.754   2.739   5.546  0.2474 -0.4609 -3.9606
  165SAPE  H17S18608   5.916   2.784   5.604 -1.1810 -1.2069  2.7804
  165SAPE  C21818609   5.882   2.818   5.391 -0.0119  0.1592  0.1046
  165SAPE  H18R18610   5.912   2.716   5.358 -0.3043 -0.2485  1.0656
  165SAPE  H18S18611   5.965   2.890   5.375 -1.0789  1.5785  0.8037
  165SAPE  C21918612   5.762   2.866   5.303 -0.3137 -0.2492 -0.0677
  165SAPE  H19R18613   5.745   2.973   5.325 -0.4318 -0.4739  1.0274
  165SAPE  H19S18614   5.667   2.816   5.332  0.6389 -1.4056  1.2575
  165SAPE  C22018615   5.784   2.850   5.151 -0.2314 -0.6816 -0.1856
  165SAPE  H20R18616   5.792   2.744   5.118 -3.8390 -1.4037  0.7911
  165SAPE  H20S18617   5.868   2.913   5.116 -1.2054  1.2445  0.7780
  165SAPE  H20T18618   5.691   2.893   5.107  0.2177  1.3612  0.7578
  165SAPE   C3318619   5.807   2.579   5.955 -0.4270 -0.3002 -0.2349
  165SAPE   H3X18620   5.732   2.497   5.956 -0.1791 -0.5560 -1.2780
  165SAPE   H3Y18621   5.861   2.566   6.051 -2.0044 -1.8272  0.5187
  165SAPE   C3418622   5.906   2.584   5.842 -0.3664  0.6090  0.0505
  165SAPE   H4X18623   5.982   2.657   5.876  0.9388 -0.7016  0.0013
  165SAPE   H4Y18624   5.853   2.622   5.751  0.5316 -0.5142 -0.9638
  165SAPE   C3518625   5.965   2.452   5.806  0.1465 -0.2573 -0.6009
  165SAPE   H5X18626   5.879   2.389   5.776 -0.0890 -0.4065  0.3358
  165SAPE   H5Y18627   6.010   2.421   5.903  1.0895  1.3973 -0.4757
  165SAPE   C3618628   6.067   2.452   5.688  0.4934  0.1160 -0.0808
  165SAPE   H6X18629   6.126   2.360   5.709 -0.7042 -0.0808  2.8285
  165SAPE   H6Y18630   6.140   2.536   5.697 -0.5601  1.0730 -0.2498
  165SAPE   C3718631   5.988   2.456   5.557 -0.3264  0.0246  0.2762
  165SAPE   H7X18632   5.922   2.546   5.553 -0.2697  0.0216 -1.5139
  165SAPE   H7Y18633   5.912   2.375   5.556 -1.6161  1.1421 -2.0799
  165SAPE   C3818634   6.070   2.445   5.430 -0.0772 -0.1467 -0.3206
  165SAPE   H8X18635   6.143   2.527   5.410  0.6658 -0.8939 -0.7394
  165SAPE   H8Y18636   5.994   2.449   5.349  0.7604 -0.9798 -1.1656
  165SAPE   C3918637   6.156   2.320   5.421  0.6962  0.2967  0.1896
  165SAPE   H9X18638   6.096   2.232   5.453 -0.4140 -0.1496 -2.7406
  165SAPE   H9Y18639   6.249   2.324   5.481  0.4843 -1.5479  0.6894
  165SAPE  C31018640   6.201   2.301   5.283 -0.7235  0.0443  1.7543
  165SAPE  H10X18641   6.116   2.273   5.217  0.3424 -1.5610  1.0101
  165SAPE  H10Y18642   6.264   2.210   5.289 -0.8618 -0.0957  1.1828
  165SAPE  C31118643   6.286   2.411   5.215 -0.1437 -0.4089 -0.3419
  165SAPE  H11X18644   6.340   2.468   5.295 -1.2293 -1.0383  0.8760
  165SAPE  H11Y18645   6.206   2.482   5.184 -0.6014 -0.9701 -0.4469
  165SAPE  C31218646   6.386   2.375   5.106  0.0448 -0.6301  0.6718
  165SAPE  H12X18647   6.328   2.333   5.020 -1.6246  0.4131  1.2580
  165SAPE  H12Y18648   6.457   2.299   5.147  0.8709  0.2044  0.8230
  165SAPE  C31318649   6.480   2.489   5.060  0.1515 -0.3102  0.2798
  165SAPE  H13X18650   6.533   2.508   5.156 -0.3998  1.2153  0.3010
  165SAPE  H13Y18651   6.429   2.584   5.034  1.4697  0.7418  1.3758
  165SAPE  C31418652   6.577   2.439   4.944 -1.0098  0.0489 -0.3853
  165SAPE  H14X18653   6.615   2.336   4.963  0.1164  0.2500 -1.3947
  165SAPE  H14Y18654   6.673   2.493   4.960 -0.5917 -0.8065  0.0701
  165SAPE  C31518655   6.537   2.483   4.807 -0.3697  0.1765  0.0747
  165SAPE  H15X18656   6.588   2.431   4.723 -1.4174  0.3490 -0.6997
  165SAPE  H15Y18657   6.547   2.592   4.784  0.0527  0.9033  3.1957
  165SAPE  C31618658   6.392   2.458   4.774  0.1053  0.3035 -0.5682
  165SAPE  H16X18659   6.324   2.511   4.844 -2.3131 -0.8370 -1.9334
  165SAPE  H16Y18660   6.371   2.353   4.803 -0.7612  0.2497 -1.3284
  165SAPE  C31718661   6.341   2.489   4.634 -0.3879  0.1744  0.5679
  165SAPE  H17X18662   6.232   2.474   4.622 -0.5665  1.2101  0.8307
  165SAPE  H17Y18663   6.395   2.420   4.566 -0.8446  1.0226 -0.6931
  165SAPE  C31818664   6.373   2.637   4.596  1.1843  0.6762  0.0779
  165SAPE  H18X18665   6.336   2.647   4.492 -0.4070 -0.7402  0.4703
  165SAPE  H18Y18666   6.480   2.668   4.593  0.9688  1.3930 -1.3911
  165SAPE  H18Z18667   6.311   2.698   4.665 -1.3315 -1.4322 -0.1821
  166SAPE     N18668   4.024   0.944   6.707 -0.0776 -0.6951 -0.6488
  166SAPE   HN118669   4.013   0.988   6.613 -1.5346  1.0396  0.2746
  166SAPE   HN218670   4.123   0.962   6.733 -0.4942  0.8582 -0.0217
  166SAPE   HN318671   3.982   0.849   6.704 -0.9085 -0.3958  0.7183
  166SAPE   C1218672   3.945   1.030   6.803  0.7518 -0.0404  0.3451
  166SAPE  H12A18673   3.948   1.136   6.769  0.5183  0.8755  2.9291
  166SAPE  H12B18674   4.004   1.030   6.897  0.5054 -2.0561  0.5378
  166SAPE   C1118675   3.796   0.981   6.821 -0.5043  0.0216 -0.3434
  166SAPE  H11A18676   3.755   0.983   6.718 -1.8357  0.6820  0.1734
  166SAPE  H11B18677   3.739   1.045   6.892 -0.1837 -0.9546  0.8154
  166SAPE     P18678   3.790   0.713   6.793 -0.1017  0.0328  0.0084
  166SAPE   O1318679   3.917   0.709   6.712  0.1175  0.7389 -0.0937
  166SAPE   O1418680   3.752   0.595   6.881 -0.1721  0.0115  0.2736
  166SAPE   O1218681   3.794   0.846   6.876  0.8660  0.4014 -0.3726
  166SAPE   O1118682   3.674   0.739   6.683 -0.8582  0.4665 -0.2733
  166SAPE    C118683   3.543   0.717   6.720  0.2492  0.1224  0.0324
  166SAPE    HA18684   3.521   0.608   6.722 -2.2569  0.4505  5.0736
  166SAPE    HB18685   3.520   0.764   6.818 -0.4825  1.2980 -0.6763
  166SAPE    C218686   3.437   0.771   6.617  0.0144 -0.1563  0.5644
  166SAPE    HS18687   3.349   0.703   6.620 -0.8005  0.8177 -0.3357
  166SAPE   O2118688   3.488   0.768   6.473 -0.0532  0.0458 -0.3219
  166SAPE   C2118689   3.491   0.646   6.421 -0.6747 -0.3022 -0.3600
  166SAPE   O2218690   3.451   0.547   6.482 -0.8821  0.4174 -0.1855
  166SAPE   C2218691   3.571   0.640   6.285 -0.0762  0.2773 -0.6184
  166SAPE   H2R18692   3.665   0.699   6.291  0.4750 -0.2007 -3.3782
  166SAPE   H2S18693   3.599   0.534   6.271 -1.4145 -0.4552  1.6177
  166SAPE    C318694   3.397   0.908   6.653 -0.0073 -0.2826  0.7509
  166SAPE    HX18695   3.486   0.974   6.658 -1.4677  1.7034  2.1389
  166SAPE    HY18696   3.342   0.911   6.750 -1.8056 -0.8274 -0.2092
  166SAPE   O3118697   3.292   0.945   6.556 -0.1249 -0.6930  0.3337
  166SAPE   C3118698   3.297   1.077   6.516 -0.2115  0.7833  0.4526
  166SAPE   O3218699   3.359   1.165   6.571 -0.0121  0.1526  0.1583
  166SAPE   C3218700   3.205   1.101   6.398 -0.3720 -0.3680  0.8943
  166SAPE   H2X18701   3.182   1.209   6.398  0.9437 -0.0428 -0.7655
  166SAPE   H2Y18702   3.109   1.050   6.422  0.1596 -1.2140  1.2579
  166SAPE   C2318703   3.496   0.702   6.176 -0.3128  0.5056  0.2768
  166SAPE   H3R18704   3.450   0.795   6.214 -1.0304  0.6299 -0.8419
  166SAPE   H3S18705   3.420   0.631   6.137 -0.4188  1.2458 -0.9173
  166SAPE   C2418706   3.593   0.746   6.058  0.0034  0.4960 -0.4818
  166SAPE   H4R18707   3.655   0.828   6.100 -0.2452  0.3866  0.1057
  166SAPE   H4S18708   3.535   0.801   5.980  1.8834 -0.4568 -2.6933
  166SAPE   C2518709   3.679   0.628   6.018 -0.1741 -0.4609 -0.0420
  166SAPE   H5R18710   3.777   0.619   6.066  0.7879 -0.8594 -1.9700
  166SAPE   C2618711   3.672   0.553   5.913  0.0636 -0.1103  0.3822
  166SAPE   H6R18712   3.756   0.484   5.891  0.3743  0.2230  0.5173
  166SAPE   C2718713   3.570   0.546   5.796 -0.8169  0.4378 -0.2924
  166SAPE   H7R18714   3.627   0.490   5.719  0.4976  2.0094 -0.5131
  166SAPE   H7S18715   3.535   0.644   5.756 -1.2570  1.1137  1.6517
  166SAPE   C2818716   3.449   0.469   5.847  0.8741 -0.7660 -0.8140
  166SAPE   H8R18717   3.406   0.518   5.935  0.8770 -1.0388 -0.6627
  166SAPE   C2918718   3.390   0.357   5.795 -0.1242 -0.7066  0.0159
  166SAPE   H9R18719   3.302   0.316   5.847  0.0802  1.0589  1.8902
  166SAPE  C21018720   3.425   0.299   5.658 -0.4731  0.0648  0.1278
  166SAPE  H10R18721   3.417   0.189   5.669 -0.2589  0.0925  0.5692
  166SAPE  H10S18722   3.527   0.317   5.619 -0.3898 -1.4487 -0.3954
  166SAPE  C21118723   3.323   0.338   5.551 -0.1800  0.1742 -0.2778
  166SAPE  H11R18724   3.239   0.267   5.546 -0.7534  0.7773  0.4652
  166SAPE  C21218725   3.303   0.448   5.473 -0.2944 -0.3274  0.2734
  166SAPE  H12R18726   3.206   0.459   5.422 -0.4257  0.4694  0.6873
  166SAPE  C21318727   3.390   0.570   5.463  0.2099 -0.4504  1.2100
  166SAPE  H13R18728   3.385   0.618   5.563 -1.1984  2.7959 -0.2535
  166SAPE  H13S18729   3.332   0.638   5.396  0.8655 -2.4579 -1.5280
  166SAPE  C21418730   3.531   0.557   5.407 -0.1510  0.5747 -0.3292
  166SAPE  H14R18731   3.611   0.556   5.483 -1.6761  0.9035  1.3646
  166SAPE  C21518732   3.575   0.535   5.278  0.1170  0.6519 -0.2961
  166SAPE  H15R18733   3.682   0.542   5.253 -0.7030  0.3649 -4.6531
  166SAPE  C21618734   3.491   0.534   5.152 -0.2279  0.1640 -0.2076
  166SAPE  H16R18735   3.535   0.605   5.079  0.9695  1.0042  1.2634
  166SAPE  H16S18736   3.387   0.555   5.187  0.3711 -0.2403  1.9718
  166SAPE  C21718737   3.468   0.398   5.087  0.4240 -0.4546  0.2214
  166SAPE  H17R18738   3.393   0.408   5.006 -0.0513  0.4225  0.7523
  166SAPE  H17S18739   3.435   0.322   5.162 -0.3261  0.2086  0.5710
  166SAPE  C21818740   3.584   0.349   5.002  0.0736 -0.1961  0.0227
  166SAPE  H18R18741   3.665   0.342   5.078  1.0391 -3.2358 -1.1261
  166SAPE  H18S18742   3.616   0.416   4.919  0.2719 -2.8549 -2.1697
  166SAPE  C21918743   3.565   0.208   4.947 -0.4152  0.1122 -0.4239
  166SAPE  H19R18744   3.503   0.216   4.855 -1.9049  1.0963  0.6065
  166SAPE  H19S18745   3.488   0.157   5.008  0.6602 -2.4600 -1.1024
  166SAPE  C22018746   3.695   0.135   4.921 -0.6813 -0.1868 -0.3786
  166SAPE  H20R18747   3.764   0.163   5.004  1.0153  0.0066 -1.8026
  166SAPE  H20S18748   3.721   0.190   4.829  2.1019  0.0468  0.4705
  166SAPE  H20T18749   3.694   0.025   4.905  1.8943 -0.8932  3.0649
  166SAPE   C3318750   3.257   1.058   6.257  0.2373  0.6846 -0.3014
  166SAPE   H3X18751   3.323   0.969   6.258  0.2716  0.6776  1.6921
  166SAPE   H3Y18752   3.325   1.139   6.222  0.8302 -0.4851 -1.9168
  166SAPE   C3418753   3.148   1.040   6.151  0.6512 -0.1854 -0.2960
  166SAPE   H4X18754   3.098   1.139   6.142  0.3247 -0.0533  2.1720
  166SAPE   H4Y18755   3.076   0.963   6.187 -1.4536  1.0220 -1.7044
  166SAPE   C3518756   3.211   1.002   6.023 -0.1927  0.6518  0.0887
  166SAPE   H5X18757   3.259   0.903   6.034 -0.7039  0.4469  0.5092
  166SAPE   H5Y18758   3.288   1.079   6.000  0.4368 -0.0559 -0.2176
  166SAPE   C3618759   3.116   0.985   5.908 -0.3138 -0.4059  0.6259
  166SAPE   H6X18760   3.037   1.063   5.902 -3.0335 -3.0671 -2.3259
  166SAPE   H6Y18761   3.061   0.888   5.913  0.6450 -1.0446 -0.6169
  166SAPE   C3718762   3.187   0.982   5.771  0.3040  0.4408  0.9214
  166SAPE   H7X18763   3.270   0.908   5.770  0.8612  1.0275 -0.6287
  166SAPE   H7Y18764   3.237   1.080   5.754 -0.1358  0.1919 -2.6562
  166SAPE   C3818765   3.096   0.957   5.649 -0.6794  0.2320 -0.0078
  166SAPE   H8X18766   3.027   1.043   5.637 -2.2815 -1.0516 -0.4222
  166SAPE   H8Y18767   3.035   0.872   5.686  1.0344  0.1016  2.7792
  166SAPE   C3918768   3.167   0.942   5.512 -0.4302  0.2135  0.1417
  166SAPE   H9X18769   3.235   0.855   5.516 -1.9431 -1.0126  0.0898
  166SAPE   H9Y18770   3.224   1.037   5.508 -0.0847  0.0025  0.1141
  166SAPE  C31018771   3.077   0.930   5.386 -0.3435  0.1383  0.2406
  166SAPE  H10X18772   2.997   1.006   5.375 -3.1728 -2.3078  2.4710
  166SAPE  H10Y18773   3.022   0.834   5.394 -0.4956  0.2887  1.0670
  166SAPE  C31118774   3.153   0.922   5.256 -0.0922  0.0319  0.8094
  166SAPE  H11X18775   3.231   0.844   5.264  0.3740  0.4222  0.1602
  166SAPE  H11Y18776   3.202   1.017   5.228  0.4338 -0.4324  0.1041
  166SAPE  C31218777   3.077   0.874   5.127 -0.0816  0.3605 -0.0270
  166SAPE  H12X18778   2.984   0.935   5.125 -0.8512 -0.7511  0.7139
  166SAPE  H12Y18779   3.054   0.765   5.132 -1.5582  0.4382 -2.8726
  166SAPE  C31318780   3.150   0.901   4.994  0.4324 -0.0849  0.7774
  166SAPE  H13X18781   3.236   0.831   4.994  0.0637 -0.5788  2.5185
  166SAPE  H13Y18782   3.184   1.006   4.993 -1.8566  0.7751 -2.3763
  166SAPE  C31418783   3.086   0.858   4.864 -0.3791 -0.0226  0.3843
  166SAPE  H14X18784   3.154   0.883   4.779  1.1502  0.6782  1.7466
  166SAPE  H14Y18785   2.994   0.918   4.851  0.7540  1.5222 -1.1816
  166SAPE  C31518786   3.071   0.706   4.843  0.4569  0.1838  0.0286
  166SAPE  H15X18787   3.001   0.695   4.758 -1.0441  1.1328  1.0897
  166SAPE  H15Y18788   3.028   0.655   4.931  2.6447 -1.9056 -0.0236
  166SAPE  C31618789   3.201   0.627   4.808  0.3850  0.3866  0.5169
  166SAPE  H16X18790   3.266   0.620   4.898  0.5492  0.3898  0.4000
  166SAPE  H16Y18791   3.263   0.680   4.733 -0.9797 -0.7602 -1.4955
  166SAPE  C31718792   3.162   0.489   4.751 -0.3763  0.5392  0.1899
  166SAPE  H17X18793   3.128   0.506   4.647 -0.6247 -0.1376  0.1611
  166SAPE  H17Y18794   3.087   0.425   4.802 -1.6750  0.6393 -1.5355
  166SAPE  C31818795   3.282   0.399   4.727 -0.6603  0.2906 -0.2853
  166SAPE  H18X18796   3.363   0.449   4.669  0.0641  0.2165  0.6391
  166SAPE  H18Y18797   3.245   0.315   4.665  0.8377  1.2457 -2.6190
  166SAPE  H18Z18798   3.330   0.355   4.817  3.1549  1.0484 -1.7223
  167SAPE     N18799   6.003   1.860   6.350 -0.4318 -0.6572  0.2105
  167SAPE   HN118800   6.012   1.960   6.377  1.8232 -1.4061  2.7098
  167SAPE   HN218801   6.084   1.807   6.386  0.3905  0.9395  0.8305
  167SAPE   HN318802   5.998   1.863   6.247 -0.1499  0.5509  0.2119
  167SAPE   C1218803   5.871   1.793   6.391  0.8169 -0.0925  0.4945
  167SAPE  H12A18804   5.805   1.877   6.421  2.1796  0.8212  0.9788
  167SAPE  H12B18805   5.896   1.721   6.471 -0.5090 -0.9024  0.2211
  167SAPE   C1118806   5.809   1.713   6.268  0.6552  0.0234 -0.1157
  167SAPE  H11A18807   5.710   1.665   6.285  1.9528 -3.2943 -1.2033
  167SAPE  H11B18808   5.867   1.622   6.243 -1.4156 -1.3722 -0.1409
  167SAPE     P18809   5.677   1.877   6.097 -0.1591  0.2093 -0.2218
  167SAPE   O1318810   5.550   1.826   6.147  0.3202  0.3037  0.2128
  167SAPE   O1418811   5.698   2.022   6.113  0.3674 -0.5814  0.3042
  167SAPE   O1218812   5.795   1.798   6.162  0.3594 -0.3611 -0.0403
  167SAPE   O1118813   5.676   1.842   5.949  0.1473  0.4479  0.3992
  167SAPE    C118814   5.725   1.727   5.888  0.6997 -0.1303  0.4582
  167SAPE    HA18815   5.716   1.643   5.961 -0.1873 -0.5479 -0.1215
  167SAPE    HB18816   5.685   1.704   5.787  0.6230  1.1466  0.1808
  167SAPE    C218817   5.887   1.745   5.863  0.7967  0.9471 -0.1147
  167SAPE    HS18818   5.931   1.765   5.962 -1.4448 -0.8158  1.3418
  167SAPE   O2118819   5.922   1.855   5.776 -0.0275  0.2392 -0.2713
  167SAPE   C2118820   6.037   1.913   5.799 -0.1219 -0.0849  0.0896
  167SAPE   O2218821   6.114   1.891   5.888  0.2374  0.1077  0.1382
  167SAPE   C2218822   6.062   2.014   5.684 -0.7980 -0.4997 -0.2018
  167SAPE   H2R18823   5.978   2.021   5.612 -0.4689  2.3413 -0.4474
  167SAPE   H2S18824   6.072   2.117   5.725 -2.2168 -0.6074  0.4840
  167SAPE    C318825   5.945   1.608   5.817  0.2390 -0.5849  0.0742
  167SAPE    HX18826   5.890   1.526   5.868 -0.6582 -0.2233 -0.2900
  167SAPE    HY18827   6.044   1.626   5.863  0.7739 -1.8186 -0.5402
  167SAPE   O3118828   5.950   1.586   5.679  0.3067 -0.0242  0.9797
  167SAPE   C3118829   6.039   1.493   5.636 -0.6202  0.3762 -0.0287
  167SAPE   O3218830   6.112   1.423   5.707  0.4129 -0.4184 -0.0122
  167SAPE   C3218831   6.042   1.466   5.481 -0.2326 -0.6010 -0.8200
  167SAPE   H2X18832   5.966   1.536   5.439 -0.9846  1.6819  3.7316
  167SAPE   H2Y18833   6.009   1.360   5.487 -0.0556 -0.5756  1.8749
  167SAPE   C2318834   6.204   1.992   5.630  0.7385  0.5822  0.1889
  167SAPE   H3R18835   6.267   1.948   5.710 -0.7141  0.8084  1.5076
  167SAPE   H3S18836   6.248   2.090   5.598  0.0535  0.6513 -0.5654
  167SAPE   C2418837   6.211   1.897   5.506  0.0765 -0.4371  0.3215
  167SAPE   H4R18838   6.181   1.795   5.538 -1.0278  0.1171  1.0839
  167SAPE   H4S18839   6.317   1.891   5.473 -0.7021 -1.2900 -2.2396
  167SAPE   C2518840   6.128   1.941   5.387  0.0538 -0.1037  0.1934
  167SAPE   H5R18841   6.023   1.957   5.416  0.6133  0.1820  2.2195
  167SAPE   C2618842   6.164   1.964   5.259  0.0252 -0.1284 -0.5673
  167SAPE   H6R18843   6.097   2.011   5.185 -2.0518 -1.0701  0.6497
  167SAPE   C2718844   6.305   1.964   5.215  0.0890  0.4172 -0.1318
  167SAPE   H7R18845   6.336   1.857   5.219 -2.8829 -0.7225 -2.9998
  167SAPE   H7S18846   6.366   2.017   5.291  0.2634 -1.3014  0.9634
  167SAPE   C2818847   6.340   2.021   5.075 -0.9718  1.1722  0.0804
  167SAPE   H8R18848   6.271   2.092   5.028  0.3967  3.1676  0.9690
  167SAPE   C2918849   6.445   1.962   5.000  0.4984  0.6381  0.6930
  167SAPE   H9R18850   6.466   1.989   4.895  0.0526 -0.4569  0.3058
  167SAPE  C21018851   6.529   1.845   5.042  0.0544  0.1099  0.3202
  167SAPE  H10R18852   6.582   1.802   4.954 -0.4843  1.8694 -0.9253
  167SAPE  H10S18853   6.458   1.763   5.066 -1.2975  1.1941  0.1329
  167SAPE  C21118854   6.630   1.873   5.142  0.2665  0.2485 -0.7203
  167SAPE  H11R18855   6.601   1.854   5.246 -0.7751 -0.9395 -1.2025
  167SAPE  C21218856   6.757   1.909   5.114  0.0386  0.2291  0.1071
  167SAPE  H12R18857   6.819   1.944   5.198 -1.4244 -0.5878  1.5667
  167SAPE  C21318858   6.826   1.928   4.983 -0.3150 -0.6621 -0.6066
  167SAPE  H13R18859   6.883   2.024   4.976  1.0274 -1.5378 -4.3960
  167SAPE  H13S18860   6.749   1.942   4.904  0.8378  0.5552 -1.5826
  167SAPE  C21418861   6.920   1.814   4.954 -0.4261  0.9365 -0.0754
  167SAPE  H14R18862   6.868   1.724   4.918  0.9478  0.1588 -0.1997
  167SAPE  C21518863   7.059   1.818   4.962 -0.0573  0.3143  0.6777
  167SAPE  H15R18864   7.118   1.725   4.951 -1.5806 -0.5896 -0.2306
  167SAPE  C21618865   7.137   1.927   5.034 -0.0881  0.6319 -1.1038
  167SAPE  H16R18866   7.204   1.875   5.107 -0.1176 -1.0760 -2.2627
  167SAPE  H16S18867   7.074   2.003   5.086 -1.3655 -0.6712 -0.6903
  167SAPE  C21718868   7.239   1.998   4.941 -0.4434  0.1338 -0.8803
  167SAPE  H17R18869   7.177   2.047   4.863 -2.0752  2.5529  1.7508
  167SAPE  H17S18870   7.316   1.928   4.902 -0.1811 -0.9149  1.3886
  167SAPE  C21818871   7.317   2.110   5.019  0.4603  0.1951  0.4756
  167SAPE  H18R18872   7.240   2.155   5.085  0.8056  2.4356 -0.5458
  167SAPE  H18S18873   7.327   2.184   4.936  0.5850 -1.2763 -0.8745
  167SAPE  C21918874   7.448   2.076   5.075  0.5770  0.3085  0.7958
  167SAPE  H19R18875   7.499   2.020   4.994  0.4437 -0.6703  1.3670
  167SAPE  H19S18876   7.437   2.015   5.168  2.3834  1.8779  2.1109
  167SAPE  C22018877   7.519   2.204   5.115 -0.1612  0.5462 -0.1147
  167SAPE  H20R18878   7.556   2.264   5.030  2.1114 -0.0159  0.4072
  167SAPE  H20S18879   7.612   2.172   5.167 -0.6179 -2.7949 -1.1108
  167SAPE  H20T18880   7.457   2.256   5.191  0.0485  0.8297 -0.1338
  167SAPE   C3318881   6.181   1.495   5.424 -0.0778 -0.2163 -0.0234
  167SAPE   H3X18882   6.257   1.433   5.476 -0.8382 -0.7346  0.4975
  167SAPE   H3Y18883   6.201   1.604   5.432 -0.7574  0.0629 -1.6820
  167SAPE   C3418884   6.181   1.465   5.269  0.2503  0.3106 -0.6466
  167SAPE   H4X18885   6.113   1.377   5.260 -0.2309  0.3335  1.9903
  167SAPE   H4Y18886   6.281   1.435   5.231 -0.2818 -0.3687 -1.5570
  167SAPE   C3518887   6.130   1.585   5.191 -1.0469  0.6054  0.9441
  167SAPE   H5X18888   6.195   1.673   5.209 -1.8676  0.9153  2.6157
  167SAPE   H5Y18889   6.023   1.601   5.219 -1.2594 -0.2114  0.6280
  167SAPE   C3618890   6.121   1.551   5.036 -0.0576  0.4629  0.0075
  167SAPE   H6X18891   6.076   1.453   5.012 -2.3465  1.4764 -0.1197
  167SAPE   H6Y18892   6.227   1.536   5.004  0.1768 -0.5956  1.2110
  167SAPE   C3718893   6.053   1.671   4.965 -0.2721  0.6389 -0.3915
  167SAPE   H7X18894   6.096   1.766   5.003  0.0336  0.0431  0.8296
  167SAPE   H7Y18895   5.947   1.667   4.997 -0.3047 -0.6952 -0.5969
  167SAPE   C3818896   6.062   1.662   4.811 -0.5142  0.1005 -1.0771
  167SAPE   H8X18897   5.990   1.585   4.775 -0.3609  0.2848 -1.7947
  167SAPE   H8Y18898   6.166   1.642   4.778 -1.0627 -1.0582 -2.2135
  167SAPE   C3918899   6.015   1.788   4.743  0.1566 -0.1960  0.1264
  167SAPE   H9X18900   5.911   1.810   4.778  0.2097  0.0885  0.1106
  167SAPE   H9Y18901   6.005   1.764   4.635 -0.6748  0.7454 -0.0283
  167SAPE  C31018902   6.105   1.909   4.762 -1.6319  0.0757 -0.1240
  167SAPE  H10X18903   6.148   1.917   4.865 -1.3565  2.4996 -0.3739
  167SAPE  H10Y18904   6.051   2.006   4.760  0.4576  1.3108  0.0196
  167SAPE  C31118905   6.218   1.908   4.652  0.1998 -0.6629  0.0661
  167SAPE  H11X18906   6.166   1.888   4.556 -0.8549 -0.6258  0.6089
  167SAPE  H11Y18907   6.296   1.834   4.679  1.3026  0.1575 -0.7514
  167SAPE  C31218908   6.285   2.050   4.643 -0.2253  0.0260  0.0247
  167SAPE  H12X18909   6.325   2.084   4.741 -2.0132  2.5252 -0.0152
  167SAPE  H12Y18910   6.201   2.121   4.628 -1.2057 -0.6003  2.1707
  167SAPE  C31318911   6.384   2.071   4.526 -0.3159 -0.3711  0.1594
  167SAPE  H13X18912   6.475   2.006   4.528 -1.3940 -2.0770 -1.8289
  167SAPE  H13Y18913   6.423   2.174   4.536  0.1344 -0.4253 -0.8628
  167SAPE  C31418914   6.318   2.053   4.392  0.3572  0.5355 -0.6297
  167SAPE  H14X18915   6.258   1.959   4.392 -2.1631  2.0164  1.2734
  167SAPE  H14Y18916   6.401   2.053   4.318 -0.3053 -1.4612 -1.4456
  167SAPE  C31518917   6.227   2.172   4.355 -0.6475  0.0094 -0.3352
  167SAPE  H15X18918   6.288   2.264   4.338  1.6950 -1.8842 -3.2868
  167SAPE  H15Y18919   6.153   2.201   4.432 -2.4234  1.7964 -2.5441
  167SAPE  C31618920   6.151   2.147   4.228 -0.1340 -0.1821  0.7860
  167SAPE  H16X18921   6.209   2.083   4.159  1.8798  1.5980  0.7528
  167SAPE  H16Y18922   6.115   2.241   4.181 -0.3970 -0.9706 -0.6229
  167SAPE  C31718923   6.015   2.077   4.262 -0.4206  0.1267  0.0366
  167SAPE  H17X18924   5.948   2.155   4.304  0.6467  1.8755 -1.3723
  167SAPE  H17Y18925   6.024   1.994   4.336  1.4741  0.0813 -0.1791
  167SAPE  C31818926   5.955   2.002   4.139 -0.7210  0.1972  0.5480
  167SAPE  H18X18927   6.043   1.942   4.107 -1.4013 -0.3167 -0.4158
  167SAPE  H18Y18928   5.932   2.081   4.064  1.8879  0.4729 -0.0476
  167SAPE  H18Z18929   5.864   1.940   4.155 -0.8885 -0.3453 -2.0286
  168SAPE     N18930   6.175   4.431   6.671  0.3415  0.0294  0.1781
  168SAPE   HN118931   6.163   4.412   6.773  0.3185 -0.3800  0.0993
  168SAPE   HN218932   6.270   4.468   6.649  0.4031 -0.6690 -0.7847
  168SAPE   HN318933   6.116   4.515   6.653  0.0697 -0.4982 -1.5046
  168SAPE   C1218934   6.136   4.319   6.576  0.2989  0.3261 -0.1860
  168SAPE  H12A18935   6.198   4.228   6.585 -1.0445 -0.8441 -2.0667
  168SAPE  H12B18936   6.154   4.363   6.476  2.2458 -0.1242 -0.0682
  168SAPE   C1118937   5.986   4.281   6.595 -0.4663 -0.1549 -0.0574
  168SAPE  H11A18938   5.973   4.233   6.694  0.7468 -2.1589 -0.8141
  168SAPE  H11B18939   5.960   4.200   6.524  0.5859  0.1706 -0.8384
  168SAPE     P18940   5.748   4.375   6.611 -0.2156 -0.1111  0.2018
  168SAPE   O1318941   5.741   4.373   6.760  0.3432 -0.2086  0.2646
  168SAPE   O1418942   5.668   4.484   6.546 -0.5100 -0.0144 -0.2856
  168SAPE   O1218943   5.894   4.383   6.563  0.0758  0.2642  0.2120
  168SAPE   O1118944   5.716   4.239   6.549 -0.3975 -0.0784  0.2824
  168SAPE    C118945   5.690   4.217   6.405  0.4206 -0.1494 -0.0267
  168SAPE    HA18946   5.697   4.303   6.336 -3.1843  0.1285 -0.2580
  168SAPE    HB18947   5.764   4.144   6.366  0.4984  0.4650 -1.0663
  168SAPE    C218948   5.545   4.152   6.391 -0.4750  0.4704  0.0243
  168SAPE    HS18949   5.537   4.114   6.287 -0.1288  2.8762 -0.9445
  168SAPE   O2118950   5.445   4.253   6.401  0.3150  0.0936 -0.0442
  168SAPE   C2118951   5.337   4.244   6.334 -0.2342  0.2521  0.1260
  168SAPE   O2218952   5.305   4.159   6.250 -0.1134  0.5023 -0.3292
  168SAPE   C2218953   5.247   4.370   6.358  0.1013 -0.0911 -0.1066
  168SAPE   H2R18954   5.229   4.373   6.468 -2.0854  0.5863 -0.4300
  168SAPE   H2S18955   5.313   4.457   6.337 -1.6194  1.3633  0.1865
  168SAPE    C318956   5.523   4.035   6.492  0.0214  0.4725 -0.1905
  168SAPE    HX18957   5.522   4.079   6.594 -2.5395 -0.5897  0.3146
  168SAPE    HY18958   5.612   3.968   6.489  0.2634  0.8105 -1.5134
  168SAPE   O3118959   5.407   3.960   6.459  0.3660 -0.0155  0.0432
  168SAPE   C3118960   5.411   3.886   6.348  0.0208  0.3258 -0.5976
  168SAPE   O3218961   5.513   3.853   6.293  0.2962  0.4666 -0.1433
  168SAPE   C3218962   5.273   3.860   6.289  0.0674 -0.3335 -0.4898
  168SAPE   H2X18963   5.238   3.955   6.245  1.2394 -0.1578 -1.0764
  168SAPE   H2Y18964   5.208   3.812   6.366 -0.1303  0.8911  0.1325
  168SAPE   C2318965   5.111   4.381   6.281  0.3169 -0.5980  1.0247
  168SAPE   H3R18966   5.032   4.437   6.336 -3.8657 -2.5877 -2.3780
  168SAPE   H3S18967   5.065   4.282   6.260 -0.8568  0.1209  0.0783
  168SAPE   C2418968   5.130   4.453   6.145 -0.9558  0.3564 -0.5493
  168SAPE   H4R18969   5.193   4.393   6.076  1.6287  0.3870  1.6093
  168SAPE   H4S18970   5.185   4.549   6.147 -0.4192  0.0411  0.3844
  168SAPE   C2518971   5.000   4.480   6.086  0.4774 -0.3243  0.1628
  168SAPE   H5R18972   4.940   4.561   6.131 -1.0672 -2.5942  2.4895
  168SAPE   C2618973   4.934   4.409   5.992 -0.0705 -0.6960  0.4810
  168SAPE   H6R18974   4.833   4.445   5.967  0.6851 -0.0608 -1.9171
  168SAPE   C2718975   4.988   4.282   5.921 -0.0192 -0.4364  0.5325
  168SAPE   H7R18976   4.945   4.192   5.971 -1.9043  1.0252  1.6758
  168SAPE   H7S18977   5.096   4.267   5.945 -0.0924  0.1705  1.2789
  168SAPE   C2818978   4.956   4.278   5.776 -0.4718 -0.4893  0.6277
  168SAPE   H8R18979   4.849   4.280   5.747 -0.3882  2.4173  0.2141
  168SAPE   C2918980   5.043   4.287   5.668 -0.4288 -0.4235  0.1443
  168SAPE   H9R18981   4.990   4.291   5.572 -1.4049 -1.4952  0.6200
  168SAPE  C21018982   5.199   4.291   5.667  0.2882  0.5172 -0.6251
  168SAPE  H10R18983   5.225   4.187   5.641  2.3928  0.2068  2.1957
  168SAPE  H10S18984   5.238   4.305   5.771  0.4611  3.4294 -0.9992
  168SAPE  C21118985   5.267   4.384   5.564  0.1312  0.6331  0.4454
  168SAPE  H11R18986   5.332   4.461   5.609  1.3572 -0.1056 -0.0110
  168SAPE  C21218987   5.276   4.359   5.430 -1.0758 -0.3983 -0.4735
  168SAPE  H12R18988   5.340   4.421   5.366  1.4247 -1.3044  1.0255
  168SAPE  C21318989   5.210   4.248   5.352 -0.4245  0.0505 -0.4831
  168SAPE  H13R18990   5.146   4.189   5.420  1.2470  0.8046  1.8989
  168SAPE  H13S18991   5.288   4.181   5.309 -0.6900  1.0549 -2.6927
  168SAPE  C21418992   5.128   4.298   5.235 -0.6518  0.4310  0.3747
  168SAPE  H14R18993   5.020   4.302   5.260 -0.5436 -0.2736  1.0048
  168SAPE  C21518994   5.161   4.317   5.108  0.3016  0.6018  0.3115
  168SAPE  H15R18995   5.086   4.356   5.037  1.7174  2.5859 -0.1605
  168SAPE  C21618996   5.305   4.306   5.055 -0.2852 -0.1615 -0.0402
  168SAPE  H16R18997   5.373   4.243   5.115  0.3329 -0.8793 -1.4529
  168SAPE  H16S18998   5.357   4.404   5.053  1.9869 -1.3030  0.6749
  168SAPE  C21718999   5.310   4.258   4.908 -0.0564  0.3333 -0.3476
  168SAPE  H17R19000   5.239   4.317   4.847  1.8042  0.2698 -2.7134
  168SAPE  H17S19001   5.280   4.151   4.914  1.2102 -0.0381 -0.4070
  168SAPE  C21819002   5.444   4.287   4.852 -0.2558 -0.1351  0.1529
  168SAPE  H18R19003   5.523   4.253   4.922 -0.4303 -0.8960 -0.0079
  168SAPE  H18S19004   5.465   4.396   4.845 -0.5461 -0.0855  0.0369
  168SAPE  C21919005   5.461   4.213   4.721 -0.4125 -0.0954  0.3876
  168SAPE  H19R19006   5.397   4.264   4.646 -0.6323  0.1119  0.7139
  168SAPE  H19S19007   5.429   4.107   4.720  0.4243 -0.3628 -0.9874
  168SAPE  C22019008   5.609   4.218   4.676 -0.1916 -0.4416 -0.0486
  168SAPE  H20R19009   5.671   4.177   4.759 -0.7407 -0.8803  0.1464
  168SAPE  H20S19010   5.646   4.320   4.651 -1.2795 -0.3169 -1.2103
  168SAPE  H20T19011   5.634   4.153   4.590 -1.8067 -0.1241 -0.7873
  168SAPE   C3319012   5.273   3.762   6.163  0.3225 -0.7725 -0.2073
  168SAPE   H3X19013   5.310   3.660   6.186 -0.1818 -0.7490  0.7306
  168SAPE   H3Y19014   5.346   3.800   6.088  0.9853  1.3143  1.3867
  168SAPE   C3419015   5.126   3.743   6.107  0.5185 -0.4374 -0.2052
  168SAPE   H4X19016   5.075   3.842   6.100  0.8399 -0.2362  0.2543
  168SAPE   H4Y19017   5.066   3.679   6.175 -0.1631 -0.4502 -0.8178
  168SAPE   C3519018   5.121   3.676   5.968 -0.1965  0.0921 -0.1156
  168SAPE   H5X19019   5.017   3.651   5.939 -0.9493 -0.2490  2.6455
  168SAPE   H5Y19020   5.182   3.583   5.966 -0.6601 -0.2330  0.7189
  168SAPE   C3619021   5.188   3.761   5.860 -0.1639 -0.1876 -0.8245
  168SAPE   H6X19022   5.289   3.797   5.892 -0.3540 -1.8227  2.0266
  168SAPE   H6Y19023   5.118   3.844   5.838 -1.0086 -1.0092 -1.3025
  168SAPE   C3719024   5.212   3.688   5.728 -0.5976 -0.5842  0.6232
  168SAPE   H7X19025   5.122   3.634   5.692 -1.2422 -1.9165  3.9306
  168SAPE   H7Y19026   5.294   3.613   5.739  0.6295 -0.3347 -4.2727
  168SAPE   C3819027   5.271   3.785   5.620 -0.5890 -0.2249  0.3978
  168SAPE   H8X19028   5.371   3.817   5.657 -0.3900 -0.4727  0.0781
  168SAPE   H8Y19029   5.193   3.865   5.622 -0.5852 -0.1983  3.0618
  168SAPE   C3919030   5.292   3.724   5.485 -0.0625  0.0675  0.1581
  168SAPE   H9X19031   5.199   3.670   5.455  1.4479 -0.4568 -4.4284
  168SAPE   H9Y19032   5.374   3.649   5.494  0.0940  0.2791  0.4802
  168SAPE  C31019033   5.317   3.836   5.381 -0.3167 -0.1831  0.7523
  168SAPE  H10X19034   5.416   3.881   5.403 -0.1617 -0.7495  1.2176
  168SAPE  H10Y19035   5.231   3.906   5.392 -1.5161 -1.6116  0.8098
  168SAPE  C31119036   5.315   3.791   5.229 -0.6408  0.3883 -0.3993
  168SAPE  H11X19037   5.207   3.780   5.205 -1.2080  0.1072  2.0420
  168SAPE  H11Y19038   5.368   3.694   5.240  1.8050  1.8120  1.2093
  168SAPE  C31219039   5.388   3.878   5.130  0.6516  0.7802 -0.3004
  168SAPE  H12X19040   5.479   3.905   5.188 -0.5193 -0.1750  2.1113
  168SAPE  H12Y19041   5.338   3.973   5.101 -0.5143  0.7563  1.4729
  168SAPE  C31319042   5.452   3.795   5.004  0.2715  0.0738  0.8731
  168SAPE  H13X19043   5.506   3.709   5.048  0.7021  0.4326  1.0596
  168SAPE  H13Y19044   5.530   3.851   4.948 -0.5479  0.9971  0.6326
  168SAPE  C31419045   5.353   3.726   4.905  0.5712  0.0300  0.5589
  168SAPE  H14X19046   5.303   3.640   4.954  0.6261  0.0010  0.5639
  168SAPE  H14Y19047   5.406   3.688   4.816 -2.0950  0.0890 -1.1500
  168SAPE  C31519048   5.238   3.813   4.857  0.0417 -0.3366 -0.1197
  168SAPE  H15X19049   5.270   3.904   4.802  0.4192 -0.2314  0.2668
  168SAPE  H15Y19050   5.180   3.839   4.948  1.1542 -0.6464  0.7036
  168SAPE  C31619051   5.145   3.746   4.756  0.4665 -0.7033  0.1028
  168SAPE  H16X19052   5.046   3.793   4.741  1.3549  0.7532 -1.5239
  168SAPE  H16Y19053   5.126   3.650   4.809  0.1658 -0.4869  0.3925
  168SAPE  C31719054   5.212   3.721   4.618 -0.4193 -0.1503 -0.5622
  168SAPE  H17X19055   5.321   3.725   4.636 -0.8238  0.3951  2.3870
  168SAPE  H17Y19056   5.184   3.798   4.543  1.1713 -0.5416 -1.6027
  168SAPE  C31819057   5.170   3.593   4.554  0.0344  0.0839  0.5609
  168SAPE  H18X19058   5.252   3.519   4.569 -0.2526 -0.5372 -0.7172
  168SAPE  H18Y19059   5.167   3.599   4.443 -3.2062  1.5334  0.6315
  168SAPE  H18Z19060   5.083   3.535   4.591 -0.0872  0.9998  1.7446
  169SAPE     N19061   4.416   4.937   6.722  0.5495  0.5137  0.4377
  169SAPE   HN119062   4.364   4.911   6.809 -1.1262 -0.3816 -0.7643
  169SAPE   HN219063   4.513   4.963   6.747  0.2814  0.5411  1.5219
  169SAPE   HN319064   4.367   5.016   6.677  0.0328 -1.2541 -2.3370
  169SAPE   C1219065   4.419   4.819   6.622  0.0547  0.0575 -0.2535
  169SAPE  H12A19066   4.312   4.797   6.605  0.4226 -2.1640  0.0688
  169SAPE  H12B19067   4.470   4.734   6.672  0.1571 -0.0198 -0.4910
  169SAPE   C1119068   4.488   4.848   6.491 -0.6843 -0.1521 -0.1002
  169SAPE  H11A19069   4.512   4.757   6.432  0.4984  0.2001 -0.1851
  169SAPE  H11B19070   4.584   4.896   6.517 -0.0140 -1.4922  0.0016
  169SAPE     P19071   4.426   5.081   6.391  0.0309  0.0868  0.4066
  169SAPE   O1319072   4.352   5.137   6.269  0.2183  0.0907 -0.4087
  169SAPE   O1419073   4.387   5.142   6.525 -0.3683  0.1973  0.5953
  169SAPE   O1219074   4.409   4.925   6.398  0.0843  0.5168 -0.2573
  169SAPE   O1119075   4.579   5.105   6.373  0.3475 -0.1634  0.5296
  169SAPE    C119076   4.636   5.233   6.349  0.3579  0.3840 -0.0704
  169SAPE    HA19077   4.572   5.298   6.285 -0.1236 -1.2676 -1.3327
  169SAPE    HB19078   4.676   5.284   6.440  0.4165 -1.5177  1.0211
  169SAPE    C219079   4.767   5.216   6.266 -0.4527  0.4786  0.3129
  169SAPE    HS19080   4.818   5.315   6.261 -2.0019  1.2784 -0.2081
  169SAPE   O2119081   4.725   5.175   6.137  0.7010 -0.1120  0.1850
  169SAPE   C2119082   4.705   5.275   6.049 -0.4004  1.0101  0.0076
  169SAPE   O2219083   4.737   5.389   6.070  0.0877  0.4013 -0.3731
  169SAPE   C2219084   4.637   5.221   5.922  0.4014  0.2524 -0.1327
  169SAPE   H2R19085   4.712   5.170   5.858 -0.4841 -2.1406  0.6398
  169SAPE   H2S19086   4.560   5.145   5.947 -0.5645  1.6383  1.3114
  169SAPE    C319087   4.868   5.118   6.335  0.2689  0.0158 -0.5309
  169SAPE    HX19088   4.814   5.028   6.371  1.3311 -0.8949 -1.1709
  169SAPE    HY19089   4.897   5.179   6.423  1.5831 -0.5868 -0.5317
  169SAPE   O3119090   4.987   5.091   6.257  0.1221  0.1719  0.2679
  169SAPE   C3119091   4.998   4.976   6.199  0.9478  0.3842  0.6781
  169SAPE   O3219092   4.920   4.878   6.200 -0.0448 -0.3598 -0.7374
  169SAPE   C3219093   5.128   4.977   6.114 -0.2603  0.1424 -1.3364
  169SAPE   H2X19094   5.090   4.936   6.017 -1.2529  0.9260 -1.2947
  169SAPE   H2Y19095   5.196   4.904   6.162  0.0562  1.8148  0.8813
  169SAPE   C2319096   4.557   5.321   5.832  0.4199 -0.1575  0.4259
  169SAPE   H3R19097   4.530   5.284   5.731 -2.2393  1.9679  0.2400
  169SAPE   H3S19098   4.620   5.411   5.813  0.5395 -0.3408 -0.0524
  169SAPE   C2419099   4.418   5.355   5.900 -0.1065 -0.4990 -0.3508
  169SAPE   H4R19100   4.427   5.400   6.001 -2.0079 -2.0444  0.5689
  169SAPE   H4S19101   4.369   5.256   5.909 -0.3145 -0.5198 -1.5224
  169SAPE   C2519102   4.349   5.457   5.821  0.3352  0.0686  0.2473
  169SAPE   H5R19103   4.385   5.559   5.841 -0.6549  0.3868  0.4673
  169SAPE   C2619104   4.267   5.435   5.718  0.1812 -0.3468 -1.1039
  169SAPE   H6R19105   4.227   5.523   5.665 -0.3541 -0.1711 -0.4137
  169SAPE   C2719106   4.212   5.304   5.668 -1.2548  0.1927 -0.1595
  169SAPE   H7R19107   4.268   5.216   5.706  0.4137  0.9041 -0.8818
  169SAPE   H7S19108   4.229   5.300   5.559 -1.1462  0.1459 -0.1413
  169SAPE   C2819109   4.060   5.289   5.679 -0.3860 -0.0668 -0.6314
  169SAPE   H8R19110   4.015   5.325   5.773 -3.2348 -0.6199 -1.6936
  169SAPE   C2919111   3.969   5.249   5.590  0.0572  0.5159  0.4884
  169SAPE   H9R19112   3.863   5.256   5.618 -0.3232 -3.5504  0.5901
  169SAPE  C21019113   3.990   5.190   5.451 -0.1020 -0.1261  0.4821
  169SAPE  H10R19114   4.009   5.081   5.466 -0.8839 -0.2615  0.5482
  169SAPE  H10S19115   4.084   5.228   5.406 -0.6767 -0.0981 -0.7266
  169SAPE  C21119116   3.868   5.199   5.363  0.0998 -0.4354 -1.1922
  169SAPE  H11R19117   3.776   5.187   5.422 -0.0118 -1.9583 -1.6440
  169SAPE  C21219118   3.868   5.243   5.238  0.2234  0.6673  0.3060
  169SAPE  H12R19119   3.779   5.233   5.175 -0.0480  2.1652  0.4113
  169SAPE  C21319120   3.992   5.271   5.151 -0.0041  0.3316  0.5398
  169SAPE  H13R19121   4.077   5.275   5.223  0.7964 -1.5553 -0.2466
  169SAPE  H13S19122   3.987   5.379   5.124 -2.6567  0.2783  0.5471
  169SAPE  C21419123   4.037   5.175   5.044 -0.1267 -0.1589  0.4752
  169SAPE  H14R19124   4.131   5.121   5.065 -0.0094  0.1895  0.8555
  169SAPE  C21519125   3.971   5.151   4.922 -0.2574  0.3461 -0.8379
  169SAPE  H15R19126   4.016   5.069   4.864  0.3849 -1.6531  2.2306
  169SAPE  C21619127   3.836   5.217   4.881  0.0122  0.0734 -0.2234
  169SAPE  H16R19128   3.789   5.277   4.962 -1.0932 -2.2751  0.9485
  169SAPE  H16S19129   3.754   5.144   4.866 -1.1426  0.9834  1.3412
  169SAPE  C21719130   3.863   5.315   4.764  0.2578 -0.8470 -0.1036
  169SAPE  H17R19131   3.916   5.403   4.806  0.4207 -1.1784  0.3852
  169SAPE  H17S19132   3.758   5.346   4.742  0.5177  0.4427  0.3581
  169SAPE  C21819133   3.931   5.271   4.645 -0.0424  0.4769  0.3690
  169SAPE  H18R19134   3.907   5.166   4.618  0.0662 -0.0698  2.2463
  169SAPE  H18S19135   4.042   5.278   4.656 -0.0202  1.9953 -0.4274
  169SAPE  C21919136   3.909   5.374   4.532  0.4081 -0.3211  0.9881
  169SAPE  H19R19137   3.805   5.361   4.497  0.4207  3.1263 -0.7288
  169SAPE  H19S19138   3.969   5.344   4.444  1.8183  1.0331  1.4310
  169SAPE  C22019139   3.946   5.521   4.564 -0.1448 -0.0036  0.4936
  169SAPE  H20R19140   4.055   5.526   4.586  0.3179 -0.0378 -1.5623
  169SAPE  H20S19141   3.891   5.572   4.646  1.4428  4.2735 -0.7912
  169SAPE  H20T19142   3.931   5.583   4.473  2.7580  2.2665  1.4025
  169SAPE   C3319143   5.171   5.123   6.084 -0.4640  0.2642 -0.4648
  169SAPE   H3X19144   5.216   5.163   6.177  1.3728 -0.9176 -0.7881
  169SAPE   H3Y19145   5.089   5.193   6.058 -0.0133  0.6026 -0.9861
  169SAPE   C3419146   5.285   5.131   5.983  0.1163  0.4836 -0.8221
  169SAPE   H4X19147   5.264   5.064   5.898 -0.8292 -0.0055 -0.2229
  169SAPE   H4Y19148   5.376   5.081   6.023  1.5414  1.7471 -2.3317
  169SAPE   C3519149   5.335   5.269   5.959 -0.3141  0.1555  0.0308
  169SAPE   H5X19150   5.335   5.318   6.058  0.3717  0.0695  0.0817
  169SAPE   H5Y19151   5.264   5.327   5.896  1.7261  0.5838 -2.0315
  169SAPE   C3619152   5.471   5.277   5.898 -0.7487 -0.1399  0.1259
  169SAPE   H6X19153   5.537   5.240   5.980 -1.8691 -1.4897  0.4436
  169SAPE   H6Y19154   5.515   5.369   5.854  1.6616 -2.4928 -2.8414
  169SAPE   C3719155   5.479   5.174   5.785 -0.5369  0.0730 -0.4173
  169SAPE   H7X19156   5.466   5.072   5.827  0.7896 -0.8199 -2.0360
  169SAPE   H7Y19157   5.579   5.176   5.737  0.4414  2.1682  1.5401
  169SAPE   C3819158   5.386   5.184   5.666 -0.3570  0.4404  0.4098
  169SAPE   H8X19159   5.386   5.286   5.623 -0.2364  0.8717  1.4163
  169SAPE   H8Y19160   5.286   5.150   5.700  0.9404 -1.5506  2.4880
  169SAPE   C3919161   5.420   5.084   5.549 -0.0540 -0.2993 -0.2616
  169SAPE   H9X19162   5.406   4.979   5.582  1.4211  0.1404  1.9730
  169SAPE   H9Y19163   5.525   5.100   5.515 -0.9125  1.4936 -2.3097
  169SAPE  C31019164   5.329   5.113   5.422  0.7244 -0.7910 -0.1922
  169SAPE  H10X19165   5.355   5.208   5.371  0.0746  0.5669  1.8329
  169SAPE  H10Y19166   5.221   5.126   5.447  1.1594 -0.1285  1.5101
  169SAPE  C31119167   5.327   4.999   5.315 -0.2140 -0.3041  0.3860
  169SAPE  H11X19168   5.244   5.024   5.245 -2.2534  0.1050  2.8180
  169SAPE  H11Y19169   5.291   4.903   5.360 -1.1798  0.4763  1.3236
  169SAPE  C31219170   5.458   4.983   5.239 -0.5412  0.6500  0.3672
  169SAPE  H12X19171   5.533   4.939   5.308 -1.4119 -1.2148  0.1794
  169SAPE  H12Y19172   5.500   5.081   5.208  0.0441  0.7778  1.5165
  169SAPE  C31319173   5.435   4.895   5.110  0.5373 -0.3333  0.3111
  169SAPE  H13X19174   5.396   4.977   5.046  1.7569 -1.2581 -1.7349
  169SAPE  H13Y19175   5.369   4.811   5.140 -0.0566 -0.0418 -0.1666
  169SAPE  C31419176   5.557   4.840   5.045 -0.1833 -0.7272 -0.2296
  169SAPE  H14X19177   5.596   4.752   5.101 -2.1888 -0.2310  2.0868
  169SAPE  H14Y19178   5.639   4.913   5.025 -1.3593  0.0552 -2.4500
  169SAPE  C31519179   5.516   4.792   4.903  0.1420 -0.1895  0.3104
  169SAPE  H15X19180   5.495   4.877   4.835  1.0215 -0.1442  0.0847
  169SAPE  H15Y19181   5.424   4.732   4.917 -1.3187  1.9290  0.2788
  169SAPE  C31619182   5.623   4.696   4.848 -0.1954  0.4834  0.0472
  169SAPE  H16X19183   5.636   4.600   4.904 -1.0899 -0.5946 -1.5336
  169SAPE  H16Y19184   5.722   4.746   4.848  0.9024 -1.5787 -0.9841
  169SAPE  C31719185   5.597   4.664   4.696  0.5464  0.1337 -0.1732
  169SAPE  H17X19186   5.517   4.729   4.653  2.4370  1.6348 -1.6304
  169SAPE  H17Y19187   5.545   4.566   4.689 -0.4717  0.6040  0.5828
  169SAPE  C31819188   5.731   4.646   4.620 -0.4386  0.1871 -0.1125
  169SAPE  H18X19189   5.708   4.607   4.518 -2.2453 -2.0329  1.0547
  169SAPE  H18Y19190   5.789   4.574   4.681 -1.1591 -0.5284 -0.2424
  169SAPE  H18Z19191   5.778   4.746   4.624 -2.9701  1.4406  0.4902
  170SAPE     N19192   0.398   0.944   6.734 -0.0380 -0.3142 -0.0705
  170SAPE   HN119193   0.500   0.926   6.745  0.0627  0.0870 -0.3193
  170SAPE   HN219194   0.361   1.009   6.806 -1.0040  1.9989 -2.4888
  170SAPE   HN319195   0.356   0.850   6.750  2.8178 -1.6691  0.1947
  170SAPE   C1219196   0.366   0.982   6.597 -0.0894  0.0859 -1.1890
  170SAPE  H12A19197   0.262   1.020   6.591 -0.1875 -0.1881 -1.2220
  170SAPE  H12B19198   0.378   0.898   6.525  1.2655 -1.4080  0.6730
  170SAPE   C1119199   0.450   1.113   6.561 -0.0604  0.4633  0.3739
  170SAPE  H11A19200   0.413   1.157   6.465  0.8009  0.9409  0.2523
  170SAPE  H11B19201   0.555   1.083   6.542 -1.4196 -3.1661 -2.8244
  170SAPE     P19202   0.350   1.334   6.666 -0.0692 -0.0347  0.2172
  170SAPE   O1319203   0.210   1.296   6.655  0.3118 -0.5920  0.1465
  170SAPE   O1419204   0.399   1.411   6.785 -0.0790 -0.3449  0.3715
  170SAPE   O1219205   0.445   1.209   6.663  0.2236  0.5455  0.2014
  170SAPE   O1119206   0.408   1.401   6.535 -0.0052 -0.0085  0.4941
  170SAPE    C119207   0.537   1.470   6.537  0.1977  0.6314  0.2053
  170SAPE    HA19208   0.603   1.440   6.620 -1.7766  0.2939  1.7431
  170SAPE    HB19209   0.593   1.456   6.442 -1.3607 -2.1823 -0.4465
  170SAPE    C219210   0.512   1.619   6.554 -0.3782  0.3252 -0.5876
  170SAPE    HS19211   0.449   1.620   6.646 -0.0971 -0.9029 -0.3520
  170SAPE   O2119212   0.440   1.669   6.440 -0.4689 -0.5370  0.3799
  170SAPE   C2119213   0.372   1.781   6.457  0.6724 -0.6515 -0.0623
  170SAPE   O2219214   0.366   1.844   6.561 -0.0192 -0.0195 -0.5331
  170SAPE   C2219215   0.306   1.830   6.322 -0.1688  0.5930  0.2985
  170SAPE   H2R19216   0.372   1.818   6.234 -1.0749 -1.4353 -0.1479
  170SAPE   H2S19217   0.233   1.750   6.299  1.4049 -0.7225 -0.3925
  170SAPE    C319218   0.644   1.694   6.577  0.5404  0.1417  0.7136
  170SAPE    HX19219   0.700   1.635   6.653  1.8292 -0.4953 -0.6811
  170SAPE    HY19220   0.633   1.797   6.618  1.4247  1.2959 -1.7680
  170SAPE   O3119221   0.720   1.687   6.457 -0.2627 -0.1913  0.9297
  170SAPE   C3119222   0.743   1.799   6.385  0.4205  0.3017  0.2249
  170SAPE   O3219223   0.699   1.907   6.417 -0.6685  0.8628  0.6291
  170SAPE   C3219224   0.844   1.782   6.267 -0.4468 -0.0619  0.1445
  170SAPE   H2X19225   0.830   1.681   6.224  1.9397 -1.2565  1.8826
  170SAPE   H2Y19226   0.944   1.796   6.313 -0.8517  0.7174  0.8034
  170SAPE   C2319227   0.253   1.972   6.341 -1.0264 -0.0421  0.1095
  170SAPE   H3R19228   0.211   1.986   6.442  1.8639  3.5643  1.0450
  170SAPE   H3S19229   0.166   1.992   6.275 -1.9027  2.3502  1.8525
  170SAPE   C2419230   0.365   2.077   6.313  0.3338 -0.1375  0.2588
  170SAPE   H4R19231   0.363   2.084   6.202  3.2209  1.1761  0.2011
  170SAPE   H4S19232   0.467   2.034   6.326  1.0117  0.3185 -2.7968
  170SAPE   C2519233   0.368   2.209   6.377 -0.1181 -0.2698 -0.2298
  170SAPE   H5R19234   0.444   2.214   6.456 -0.4842 -0.2168  0.1248
  170SAPE   C2619235   0.312   2.326   6.343 -0.0721 -0.4940 -0.6332
  170SAPE   H6R19236   0.324   2.420   6.399 -1.8463 -1.2470  1.1061
  170SAPE   C2719237   0.209   2.347   6.239  0.0509  0.2413  0.5369
  170SAPE   H7R19238   0.125   2.402   6.286  2.5954  0.4856  5.3306
  170SAPE   H7S19239   0.161   2.256   6.196 -0.2096  0.2191  0.8775
  170SAPE   C2819240   0.275   2.421   6.125  0.3650  0.2523 -0.0838
  170SAPE   H8R19241   0.313   2.519   6.160  2.4129 -0.7297  0.5621
  170SAPE   C2919242   0.321   2.370   6.009  0.1698  0.5995  0.1547
  170SAPE   H9R19243   0.377   2.434   5.938 -0.3447  0.2764 -0.5541
  170SAPE  C21019244   0.290   2.232   5.954  0.2894  0.1701 -0.0682
  170SAPE  H10R19245   0.208   2.236   5.880 -1.7966 -0.0675  2.1073
  170SAPE  H10S19246   0.245   2.168   6.034 -0.7448 -0.6509 -1.2703
  170SAPE  C21119247   0.413   2.160   5.908 -0.2117 -0.1724 -0.8266
  170SAPE  H11R19248   0.481   2.126   5.987 -0.2161 -0.4754 -0.9487
  170SAPE  C21219249   0.442   2.146   5.780 -0.0398  0.2142 -0.3980
  170SAPE  H12R19250   0.538   2.095   5.763  0.2986 -0.1801  2.2658
  170SAPE  C21319251   0.367   2.218   5.666  0.2284 -0.0398  0.2736
  170SAPE  H13R19252   0.368   2.329   5.668  0.1456 -0.0371  0.1845
  170SAPE  H13S19253   0.264   2.182   5.688  0.9336 -0.3223  3.6659
  170SAPE  C21419254   0.398   2.168   5.525  0.4055  0.4233 -0.3064
  170SAPE  H14R19255   0.501   2.129   5.524  1.1268  2.1941  0.6459
  170SAPE  C21519256   0.353   2.208   5.400 -0.2206  0.1498  0.3841
  170SAPE  H15R19257   0.397   2.160   5.312  0.3067 -0.5799  1.0255
  170SAPE  C21619258   0.231   2.289   5.372  0.5334  0.7950  0.3113
  170SAPE  H16R19259   0.248   2.384   5.317  1.0184  1.0152  0.8288
  170SAPE  H16S19260   0.168   2.312   5.460 -1.8025 -0.5011 -0.9210
  170SAPE  C21719261   0.142   2.203   5.288  0.7378 -0.2576  0.1468
  170SAPE  H17R19262   0.107   2.121   5.354  2.9983 -0.2756  1.4376
  170SAPE  H17S19263   0.200   2.165   5.202  0.1030  3.5882 -2.2367
  170SAPE  C21819264   0.018   2.290   5.233 -0.9934 -0.3773 -0.5218
  170SAPE  H18R19265  -0.057   2.231   5.176  0.1799 -1.5373 -0.9241
  170SAPE  H18S19266   0.056   2.370   5.167 -1.6137  0.0991 -0.3143
  170SAPE  C21919267  -0.065   2.343   5.346 -0.1815  0.0902 -0.0765
  170SAPE  H19R19268  -0.125   2.411   5.282 -1.6881 -1.2868 -0.1813
  170SAPE  H19S19269   0.005   2.403   5.408  1.8514 -0.9881 -1.2176
  170SAPE  C22019270  -0.153   2.245   5.422 -0.7551 -0.5758  0.3765
  170SAPE  H20R19271  -0.101   2.173   5.490 -0.0754 -1.2851 -0.8649
  170SAPE  H20S19272  -0.222   2.186   5.359 -1.1301  1.2354 -0.9736
  170SAPE  H20T19273  -0.214   2.306   5.493  0.5345  0.5724  0.5510
  170SAPE   C3319274   0.824   1.891   6.169  0.2528 -0.3411 -0.5890
  170SAPE   H3X19275   0.909   1.892   6.097 -0.1423 -0.5720 -1.0662
  170SAPE   H3Y19276   0.830   1.990   6.219 -1.1242  0.8618 -2.6319
  170SAPE   C3419277   0.712   1.883   6.071 -0.2672  0.5854  0.4626
  170SAPE   H4X19278   0.710   1.981   6.019  1.1745 -0.4142 -1.5965
  170SAPE   H4Y19279   0.615   1.868   6.125 -0.8195  0.6288 -0.4941
  170SAPE   C3519280   0.722   1.759   5.978 -0.1550 -0.1467 -0.2678
  170SAPE   H5X19281   0.696   1.665   6.032  0.9094 -1.2315 -1.5678
  170SAPE   H5Y19282   0.824   1.737   5.942 -0.0033 -1.0737  0.6683
  170SAPE   C3619283   0.629   1.766   5.859  0.5592 -0.2195 -0.0728
  170SAPE   H6X19284   0.536   1.824   5.879 -1.5523 -2.5337 -2.4359
  170SAPE   H6Y19285   0.588   1.664   5.848 -1.3595  0.3649  1.1358
  170SAPE   C3719286   0.687   1.809   5.725 -0.8017  0.3527 -0.2657
  170SAPE   H7X19287   0.787   1.763   5.717 -1.4011 -1.2895  1.0117
  170SAPE   H7Y19288   0.688   1.920   5.726 -0.4058  0.3406  0.5452
  170SAPE   C3819289   0.601   1.766   5.612 -0.6079 -0.8466  1.2317
  170SAPE   H8X19290   0.499   1.806   5.626 -0.7305  1.0248 -3.3324
  170SAPE   H8Y19291   0.589   1.655   5.607 -0.8340 -1.0038  3.7264
  170SAPE   C3919292   0.637   1.831   5.472 -0.3156  0.0085 -0.1297
  170SAPE   H9X19293   0.719   1.907   5.479  0.9682 -1.0907 -2.3446
  170SAPE   H9Y19294   0.543   1.865   5.425 -2.1458 -0.9667  2.6054
  170SAPE  C31019295   0.692   1.716   5.389  0.2897 -0.0818 -0.5879
  170SAPE  H10X19296   0.623   1.629   5.392  1.2191 -0.8535 -1.0133
  170SAPE  H10Y19297   0.783   1.675   5.437 -2.1971 -2.5238  2.4018
  170SAPE  C31119298   0.691   1.747   5.236 -0.2323  0.0006 -0.1971
  170SAPE  H11X19299   0.766   1.828   5.223  1.0806 -0.7294  2.1517
  170SAPE  H11Y19300   0.597   1.790   5.196 -0.6581 -1.8325 -1.2468
  170SAPE  C31219301   0.739   1.623   5.160  0.2516 -0.1991 -0.1128
  170SAPE  H12X19302   0.677   1.533   5.179  0.9816 -0.3058  1.9375
  170SAPE  H12Y19303   0.841   1.589   5.186 -0.1051 -0.7666  0.5598
  170SAPE  C31319304   0.727   1.662   5.011 -0.5293  0.7355  0.0037
  170SAPE  H13X19305   0.809   1.735   4.997 -0.3628  0.5497  0.0092
  170SAPE  H13Y19306   0.637   1.723   4.986  1.6868  4.3440  0.1266
  170SAPE  C31419307   0.757   1.544   4.919 -0.4062  0.0783 -1.5499
  170SAPE  H14X19308   0.685   1.463   4.944 -1.7970  1.3225 -1.3550
  170SAPE  H14Y19309   0.860   1.509   4.938 -0.1023  1.6829 -0.0028
  170SAPE  C31519310   0.754   1.579   4.768 -0.1302  0.8088  0.4536
  170SAPE  H15X19311   0.817   1.668   4.750  1.2274 -0.4740 -1.5668
  170SAPE  H15Y19312   0.657   1.623   4.736 -0.3797 -0.5044 -0.6819
  170SAPE  C31619313   0.805   1.464   4.682  0.2938  0.1861  0.0276
  170SAPE  H16X19314   0.900   1.416   4.715 -0.7753 -0.9281  1.5656
  170SAPE  H16Y19315   0.813   1.511   4.581 -1.0325  0.5557  0.0769
  170SAPE  C31719316   0.693   1.353   4.668  0.2874 -0.1885  0.2495
  170SAPE  H17X19317   0.604   1.398   4.618 -2.5328 -2.7816  2.5141
  170SAPE  H17Y19318   0.660   1.315   4.767 -1.7372  1.1916  0.1668
  170SAPE  C31819319   0.750   1.238   4.576  0.2972 -1.0555 -0.4721
  170SAPE  H18X19320   0.828   1.179   4.629  1.0475  0.0265 -0.3399
  170SAPE  H18Y19321   0.801   1.292   4.493 -0.2046  2.0486  1.0948
  170SAPE  H18Z19322   0.665   1.173   4.549  0.2783  0.1646 -3.7971
  171SAPE     N19323   3.790   4.317   6.369 -0.0049 -0.1182 -0.5456
  171SAPE   HN119324   3.840   4.226   6.365 -1.5783 -1.2202  2.1657
  171SAPE   HN219325   3.850   4.395   6.403 -0.5062  0.0012  0.0766
  171SAPE   HN319326   3.721   4.294   6.443 -0.9338  1.8386 -0.7398
  171SAPE   C1219327   3.732   4.369   6.239 -0.0552  0.1291  0.5314
  171SAPE  H12A19328   3.814   4.417   6.181 -1.2433 -1.1297 -2.4116
  171SAPE  H12B19329   3.660   4.449   6.267  0.8812  0.4009  2.3256
  171SAPE   C1119330   3.644   4.265   6.161 -0.4309  0.0576 -0.7198
  171SAPE  H11A19331   3.710   4.184   6.122 -1.1036 -1.1944  0.6135
  171SAPE  H11B19332   3.590   4.317   6.079 -0.2463  0.7022 -0.4410
  171SAPE     P19333   3.495   4.072   6.275 -0.3642  0.2848 -0.4580
  171SAPE   O1319334   3.585   3.968   6.211 -0.2138 -0.4784 -0.3021
  171SAPE   O1419335   3.467   4.057   6.420  0.5781 -0.1674 -0.0855
  171SAPE   O1219336   3.542   4.214   6.251  0.1845  0.1293  0.1328
  171SAPE   O1119337   3.354   4.062   6.198 -0.1669 -0.6786 -0.3301
  171SAPE    C119338   3.277   4.184   6.176 -0.1007 -0.4879 -0.3461
  171SAPE    HA19339   3.185   4.175   6.239  0.6997 -0.7003  0.8217
  171SAPE    HB19340   3.327   4.269   6.227  0.9661 -2.8327  2.8241
  171SAPE    C219341   3.248   4.200   6.028 -0.4466  0.4027 -0.0271
  171SAPE    HS19342   3.182   4.116   6.000 -0.5854  0.3423  0.4795
  171SAPE   O2119343   3.376   4.205   5.953 -0.3356  0.3335  0.5972
  171SAPE   C2119344   3.412   4.117   5.862  0.1370 -0.0527  0.3633
  171SAPE   O2219345   3.356   4.013   5.839 -0.7980 -0.2202 -0.1599
  171SAPE   C2219346   3.523   4.176   5.777  0.7637 -1.1502 -0.6852
  171SAPE   H2R19347   3.526   4.287   5.776 -1.4476 -0.9180  2.3104
  171SAPE   H2S19348   3.610   4.157   5.844  0.0571 -0.4164  0.4720
  171SAPE    C319349   3.178   4.333   6.005  0.0592  0.6957  0.3114
  171SAPE    HX19350   3.252   4.405   6.045 -0.8450  0.6206  2.2253
  171SAPE    HY19351   3.079   4.345   6.054 -0.5143  0.4856 -0.7585
  171SAPE   O3119352   3.142   4.350   5.867  0.1056  0.1911  0.8856
  171SAPE   C3119353   3.045   4.278   5.815  0.0740  0.3767 -0.0639
  171SAPE   O3219354   2.985   4.186   5.869 -0.2442  0.1897  0.2864
  171SAPE   C3219355   3.019   4.320   5.674 -0.0155  0.1630  0.2376
  171SAPE   H2X19356   3.122   4.319   5.632  0.4129  3.3896  1.0044
  171SAPE   H2Y19357   2.986   4.425   5.682  1.9926  0.9830 -1.4398
  171SAPE   C2319358   3.547   4.098   5.653  0.4832 -0.1851  0.6750
  171SAPE   H3R19359   3.448   4.076   5.606  0.0912  0.6033  1.1010
  171SAPE   H3S19360   3.580   3.995   5.676  0.3134 -0.1695  0.9869
  171SAPE   C2419361   3.650   4.158   5.559 -0.3250 -0.2894  0.5229
  171SAPE   H4R19362   3.677   4.090   5.475  0.1166  1.8237 -1.1169
  171SAPE   H4S19363   3.748   4.170   5.610  1.1868  0.4151 -2.3484
  171SAPE   C2519364   3.612   4.285   5.497  0.2443 -0.2596  0.2374
  171SAPE   H5R19365   3.616   4.368   5.569  1.2925 -2.6964  3.2147
  171SAPE   C2619366   3.578   4.298   5.366 -0.0885 -0.9298 -0.6025
  171SAPE   H6R19367   3.571   4.401   5.328  1.0140 -0.6945 -0.2265
  171SAPE   C2719368   3.588   4.188   5.260 -0.2175 -0.5681  0.2675
  171SAPE   H7R19369   3.530   4.224   5.173 -0.2029 -0.4464  0.3077
  171SAPE   H7S19370   3.528   4.100   5.292  0.4963 -1.4019 -0.6443
  171SAPE   C2819371   3.736   4.152   5.220  0.8157  0.0676 -0.2556
  171SAPE   H8R19372   3.794   4.100   5.298  0.7966  3.0889  1.9716
  171SAPE   C2919373   3.783   4.161   5.097 -0.2899 -0.1832 -0.0964
  171SAPE   H9R19374   3.885   4.124   5.081  0.1217  0.7227  0.3650
  171SAPE  C21019375   3.720   4.213   4.967 -0.3673  0.4504  0.0573
  171SAPE  H10R19376   3.612   4.232   4.985 -0.7792 -0.9362 -0.7617
  171SAPE  H10S19377   3.721   4.135   4.888  1.1047  1.4033 -0.9080
  171SAPE  C21119378   3.792   4.335   4.924  0.3087 -0.1916  0.5584
  171SAPE  H11R19379   3.840   4.401   4.998 -0.8365  2.0600 -0.6127
  171SAPE  C21219380   3.803   4.369   4.791  0.1279 -0.1345  0.1014
  171SAPE  H12R19381   3.861   4.458   4.763 -1.5344 -0.0047 -3.5709
  171SAPE  C21319382   3.751   4.292   4.664  0.9911 -0.1262 -0.1404
  171SAPE  H13R19383   3.647   4.257   4.685  0.3683  0.3447 -2.1421
  171SAPE  H13S19384   3.821   4.206   4.656  1.0004  0.0229 -2.4898
  171SAPE  C21419385   3.739   4.384   4.544  0.1866 -0.4494 -0.1741
  171SAPE  H14R19386   3.728   4.492   4.564  1.1858 -0.5052  0.7886
  171SAPE  C21519387   3.738   4.339   4.416 -0.4125  0.5553  0.3894
  171SAPE  H15R19388   3.734   4.414   4.335  0.2775 -1.2732 -1.4514
  171SAPE  C21619389   3.764   4.203   4.357  0.1816 -0.0943  0.2765
  171SAPE  H16R19390   3.777   4.127   4.437 -1.6272 -1.4903 -0.6905
  171SAPE  H16S19391   3.856   4.209   4.296  0.1691 -0.4169  0.2254
  171SAPE  C21719392   3.652   4.152   4.267  0.1833 -0.2458  0.6669
  171SAPE  H17R19393   3.620   4.230   4.195  2.4502  0.6006  0.4928
  171SAPE  H17S19394   3.560   4.125   4.323  0.3366 -0.5962  0.7490
  171SAPE  C21819395   3.698   4.030   4.188 -0.7407  0.1533  0.2596
  171SAPE  H18R19396   3.727   3.937   4.242 -1.9685 -0.7016 -0.5065
  171SAPE  H18S19397   3.783   4.055   4.121  1.2161 -0.2340  2.4739
  171SAPE  C21919398   3.581   3.991   4.087  0.0296 -0.5024 -0.6746
  171SAPE  H19R19399   3.631   3.942   4.001 -0.8587 -0.9070 -0.9718
  171SAPE  H19S19400   3.532   4.087   4.058  1.4127  0.3210 -0.4033
  171SAPE  C22019401   3.474   3.900   4.142  0.3206  0.3811  0.6283
  171SAPE  H20R19402   3.523   3.816   4.196 -1.8666 -0.1696  1.8668
  171SAPE  H20S19403   3.407   3.960   4.208  1.4422  0.0470  2.1294
  171SAPE  H20T19404   3.412   3.845   4.068 -0.4739  0.2391  1.3858
  171SAPE   C3319405   2.912   4.224   5.604 -0.2420 -0.6867  0.4097
  171SAPE   H3X19406   2.880   4.275   5.511  2.9340  1.7493  0.4719
  171SAPE   H3Y19407   2.833   4.212   5.682 -1.1996 -2.4609 -0.7867
  171SAPE   C3419408   2.972   4.090   5.568  0.8746  0.2129 -1.1292
  171SAPE   H4X19409   3.040   4.056   5.649  3.0533  0.0084 -2.9449
  171SAPE   H4Y19410   3.049   4.103   5.489  1.7816 -1.1913 -0.5162
  171SAPE   C3519411   2.877   3.984   5.516 -0.1378 -0.6329  0.7113
  171SAPE   H5X19412   2.799   3.975   5.594 -0.4240  0.1925  0.5279
  171SAPE   H5Y19413   2.938   3.892   5.508  0.3964 -0.1337 -1.8615
  171SAPE   C3619414   2.813   4.009   5.378  0.4077  0.4954  0.3915
  171SAPE   H6X19415   2.752   4.100   5.395  0.7504  0.8934 -0.4384
  171SAPE   H6Y19416   2.741   3.927   5.356 -0.6242  2.2960 -3.8721
  171SAPE   C3719417   2.905   4.009   5.257  0.0713 -0.0819 -0.3744
  171SAPE   H7X19418   2.965   3.916   5.240  1.0618  0.2354  1.2232
  171SAPE   H7Y19419   2.979   4.092   5.265 -2.7216  2.9374 -2.9352
  171SAPE   C3819420   2.826   4.045   5.127 -0.4055 -0.1382 -0.3819
  171SAPE   H8X19421   2.782   4.144   5.152  2.6409  1.0170  0.9219
  171SAPE   H8Y19422   2.759   3.957   5.117 -0.0499 -0.7939  2.3375
  171SAPE   C3919423   2.903   4.062   5.000  0.6644  0.5112  0.4518
  171SAPE   H9X19424   2.934   3.965   4.955  1.0794  0.8207  0.0630
  171SAPE   H9Y19425   3.008   4.094   5.019  2.1356 -2.5900 -1.5074
  171SAPE  C31019426   2.844   4.158   4.897  0.5144 -0.1110 -0.0108
  171SAPE  H10X19427   2.818   4.248   4.957 -1.9764 -1.7988  1.7232
  171SAPE  H10Y19428   2.745   4.119   4.865  0.1313  0.7622  0.0860
  171SAPE  C31119429   2.919   4.179   4.771 -0.4153  1.0007 -0.6577
  171SAPE  H11X19430   2.953   4.081   4.732 -3.1775  0.4736 -2.0273
  171SAPE  H11Y19431   3.011   4.237   4.794 -1.6865  2.6375  0.5809
  171SAPE  C31219432   2.832   4.231   4.657 -0.5525 -0.0570  0.9173
  171SAPE  H12X19433   2.738   4.174   4.669 -0.8232 -0.7344 -3.1392
  171SAPE  H12Y19434   2.884   4.209   4.561 -1.0499  1.2669  0.3213
  171SAPE  C31319435   2.823   4.383   4.672  0.1980 -0.2649 -0.2554
  171SAPE  H13X19436   2.920   4.432   4.690 -0.7999  0.6780  3.4528
  171SAPE  H13Y19437   2.780   4.414   4.770  0.2594  1.7457 -0.8224
  171SAPE  C31419438   2.763   4.448   4.547 -0.4320 -0.6786 -0.2869
  171SAPE  H14X19439   2.817   4.402   4.461  0.8556  2.0447 -1.0382
  171SAPE  H14Y19440   2.794   4.555   4.543  0.9289 -1.0952 -1.4215
  171SAPE  C31519441   2.611   4.439   4.534 -0.3425 -0.1895  0.3786
  171SAPE  H15X19442   2.578   4.515   4.608  1.0102  1.8954 -1.0344
  171SAPE  H15Y19443   2.571   4.337   4.552 -0.7910 -0.4834 -1.9172
  171SAPE  C31619444   2.559   4.487   4.396 -0.6068  0.6405 -0.0628
  171SAPE  H16X19445   2.584   4.412   4.317 -4.5884  0.7757 -1.6785
  171SAPE  H16Y19446   2.600   4.588   4.379 -0.3459  0.7084  0.9329
  171SAPE  C31719447   2.402   4.499   4.390 -0.7995  0.1931  0.0161
  171SAPE  H17X19448   2.370   4.566   4.473 -0.2065  1.1283 -0.4886
  171SAPE  H17Y19449   2.363   4.397   4.407  1.0004 -0.6897 -0.8689
  171SAPE  C31819450   2.347   4.571   4.266 -0.2866 -0.0587 -0.0086
  171SAPE  H18X19451   2.245   4.609   4.287 -0.1843  0.0822  0.2377
  171SAPE  H18Y19452   2.355   4.508   4.175 -0.1751  0.1650 -0.1536
  171SAPE  H18Z19453   2.409   4.663   4.259 -0.1546 -0.2108 -0.9522
  172SAPE     N19454   1.676   3.851   7.019 -0.1446  0.4298 -0.2165
  172SAPE   HN119455   1.581   3.809   7.013 -0.3830  0.5729  1.7945
  172SAPE   HN219456   1.748   3.799   6.965 -1.3530 -1.1116 -0.4166
  172SAPE   HN319457   1.692   3.845   7.122 -0.4512 -0.9771 -0.2242
  172SAPE   C1219458   1.663   4.006   7.004  0.0098  1.5147 -0.5157
  172SAPE  H12A19459   1.751   4.055   7.051  1.0099  0.3972 -1.1706
  172SAPE  H12B19460   1.580   4.029   7.075  1.9457  1.0902  2.0503
  172SAPE   C1119461   1.649   4.061   6.861 -0.3964 -0.5030 -0.8577
  172SAPE  H11A19462   1.738   4.036   6.799 -0.4002  2.1000 -2.0570
  172SAPE  H11B19463   1.657   4.172   6.860 -1.0595 -0.4510 -1.4741
  172SAPE     P19464   1.528   3.904   6.684  0.3510 -0.0745  0.2445
  172SAPE   O1319465   1.612   3.792   6.731 -0.2942  0.4316 -0.6650
  172SAPE   O1419466   1.381   3.891   6.645 -0.4635  0.0497  0.1940
  172SAPE   O1219467   1.529   4.002   6.805  0.3077 -0.0250  0.1788
  172SAPE   O1119468   1.609   3.975   6.568  0.1424 -0.2333 -0.4417
  172SAPE    C119469   1.594   4.112   6.530  0.1991  0.6517 -0.8974
  172SAPE    HA19470   1.565   4.172   6.619  1.4441 -2.3141  1.7139
  172SAPE    HB19471   1.697   4.147   6.510  0.7239  0.1307  0.7202
  172SAPE    C219472   1.499   4.112   6.406  0.3177 -0.4121 -1.4544
  172SAPE    HS19473   1.397   4.099   6.448  1.4122 -0.3893  1.4244
  172SAPE   O2119474   1.536   4.001   6.326  0.4916  0.4883 -0.0319
  172SAPE   C2119475   1.442   3.948   6.246  0.0955 -0.5372  0.3828
  172SAPE   O2219476   1.327   3.982   6.228  0.1335  0.1062  0.0134
  172SAPE   C2219477   1.510   3.838   6.171  0.0762  0.3810 -0.4298
  172SAPE   H2R19478   1.590   3.887   6.112 -2.4775  2.8857 -2.0732
  172SAPE   H2S19479   1.562   3.772   6.243  2.3613 -0.2674 -2.5165
  172SAPE    C319480   1.504   4.252   6.333  0.1870  0.4054 -0.1736
  172SAPE    HX19481   1.611   4.282   6.339  0.2477 -0.0337  1.4642
  172SAPE    HY19482   1.458   4.331   6.396 -1.6659 -1.5068  1.0210
  172SAPE   O3119483   1.464   4.249   6.194 -0.2868  0.1535 -0.2992
  172SAPE   C3119484   1.339   4.268   6.173  0.3544  0.2911  0.4627
  172SAPE   O3219485   1.254   4.301   6.255 -0.4322  0.4338 -0.2242
  172SAPE   C3219486   1.303   4.241   6.027  0.0365  0.1322 -0.4670
  172SAPE   H2X19487   1.263   4.334   5.981 -1.7194  0.2208  1.0817
  172SAPE   H2Y19488   1.223   4.164   6.035  0.0815  0.1455  0.2469
  172SAPE   C2319489   1.411   3.761   6.088 -0.4594  0.0840 -0.9793
  172SAPE   H3R19490   1.364   3.831   6.015 -0.4411 -0.6958 -1.7527
  172SAPE   H3S19491   1.333   3.724   6.156  0.0441  1.3544  0.3482
  172SAPE   C2419492   1.482   3.646   6.017  0.5191 -0.6382 -0.5222
  172SAPE   H4R19493   1.404   3.587   5.963  0.3051 -0.8906  0.0577
  172SAPE   H4S19494   1.520   3.568   6.086  0.5633  0.2981  0.5340
  172SAPE   C2519495   1.598   3.684   5.930  0.9454 -0.8854  0.0859
  172SAPE   H5R19496   1.693   3.699   5.982  0.9153  0.1841 -0.1458
  172SAPE   C2619497   1.590   3.714   5.799  0.0218 -0.1188 -0.4094
  172SAPE   H6R19498   1.683   3.751   5.752  0.3234 -1.7408 -1.1326
  172SAPE   C2719499   1.464   3.712   5.724 -0.0861  0.1328 -0.3635
  172SAPE   H7R19500   1.418   3.812   5.715 -1.4075 -0.5206 -1.1242
  172SAPE   H7S19501   1.393   3.645   5.776  1.6828 -2.0521 -0.6105
  172SAPE   C2819502   1.495   3.656   5.584  0.5238  0.0177 -0.3657
  172SAPE   H8R19503   1.596   3.688   5.553  1.5942 -1.7345  1.0754
  172SAPE   C2919504   1.408   3.598   5.497  0.6019 -0.1906 -0.7122
  172SAPE   H9R19505   1.444   3.566   5.398  0.6028 -1.6498 -0.2612
  172SAPE  C21019506   1.268   3.552   5.518 -0.0207 -1.1706 -0.1029
  172SAPE  H10R19507   1.195   3.635   5.507 -1.4885 -2.1372  1.6421
  172SAPE  H10S19508   1.257   3.514   5.622  0.1314 -1.0065 -0.0291
  172SAPE  C21119509   1.230   3.441   5.427  0.7851 -0.0273 -0.1520
  172SAPE  H11R19510   1.232   3.341   5.473  2.9345 -0.9528 -2.0683
  172SAPE  C21219511   1.188   3.441   5.302 -1.6911  0.6913  0.3433
  172SAPE  H12R19512   1.151   3.345   5.264  0.5318 -0.9235  1.9591
  172SAPE  C21319513   1.159   3.562   5.215 -0.1078  0.1137  0.0152
  172SAPE  H13R19514   1.203   3.540   5.116  1.5552 -0.6971  0.8823
  172SAPE  H13S19515   1.207   3.651   5.261  0.5339 -0.4880  0.5349
  172SAPE  C21419516   1.011   3.588   5.219  0.2248  0.1108  0.2728
  172SAPE  H14R19517   0.967   3.592   5.319  2.2202  1.2243  1.1739
  172SAPE  C21519518   0.939   3.623   5.111 -0.0951  0.6329  0.3501
  172SAPE  H15R19519   0.830   3.637   5.124 -0.7864 -0.6951 -2.9604
  172SAPE  C21619520   0.985   3.630   4.967  0.1015  0.0374 -0.1779
  172SAPE  H16R19521   1.094   3.649   4.973  0.3004 -0.9271 -0.5858
  172SAPE  H16S19522   0.947   3.723   4.918 -0.2516  0.3712  0.7143
  172SAPE  C21719523   0.949   3.505   4.875 -0.0464  0.3903  0.6911
  172SAPE  H17R19524   0.971   3.413   4.933 -0.8143 -0.9629 -1.0626
  172SAPE  H17S19525   1.020   3.515   4.791  2.2779 -0.4235  2.4473
  172SAPE  C21819526   0.801   3.509   4.822 -1.1792  0.0240 -0.1562
  172SAPE  H18R19527   0.786   3.611   4.780  4.0883  1.7240  1.2522
  172SAPE  H18S19528   0.725   3.490   4.901 -2.5748 -1.9825 -1.9096
  172SAPE  C21919529   0.777   3.408   4.718 -0.6165  0.8528  0.0192
  172SAPE  H19R19530   0.810   3.309   4.755  1.2375  0.9953 -1.1131
  172SAPE  H19S19531   0.834   3.418   4.623 -0.7185  2.3796  0.0996
  172SAPE  C22019532   0.629   3.387   4.681 -0.4646  0.4316 -0.0961
  172SAPE  H20R19533   0.620   3.332   4.585 -2.2746  1.6813 -0.7041
  172SAPE  H20S19534   0.579   3.483   4.655 -0.8873  0.2870  0.1786
  172SAPE  H20T19535   0.579   3.333   4.764  0.6481  3.3368  2.7012
  172SAPE   C3319536   1.416   4.185   5.938 -0.7399  0.2674 -0.2144
  172SAPE   H3X19537   1.465   4.100   5.992  1.5136  1.6702  0.0936
  172SAPE   H3Y19538   1.498   4.255   5.912 -0.5822  0.0962 -0.1871
  172SAPE   C3419539   1.353   4.108   5.819 -0.3085  0.7811 -0.1381
  172SAPE   H4X19540   1.257   4.060   5.846 -0.3079 -0.6672 -2.4370
  172SAPE   H4Y19541   1.418   4.027   5.778 -1.8403  0.9542 -3.1457
  172SAPE   C3519542   1.320   4.207   5.703  0.4677  1.0610 -0.8393
  172SAPE   H5X19543   1.419   4.247   5.670  1.8164 -0.0672  1.5903
  172SAPE   H5Y19544   1.262   4.295   5.738  0.0844  0.3321  0.4311
  172SAPE   C3619545   1.248   4.145   5.585  0.0163 -0.4592 -0.8707
  172SAPE   H6X19546   1.229   4.230   5.516  2.5643  0.5288 -0.4964
  172SAPE   H6Y19547   1.160   4.091   5.625  0.3231  0.5035  1.2858
  172SAPE   C3719548   1.338   4.041   5.510  0.2893  0.0555 -0.2386
  172SAPE   H7X19549   1.365   3.958   5.578 -0.4050  1.5458  1.9495
  172SAPE   H7Y19550   1.430   4.100   5.492  0.9601 -0.5571  1.0950
  172SAPE   C3819551   1.270   3.978   5.392  0.3163 -0.1663  0.2034
  172SAPE   H8X19552   1.161   3.965   5.407 -0.4513  3.8181 -0.6773
  172SAPE   H8Y19553   1.318   3.879   5.381  1.8737  0.4012  1.3666
  172SAPE   C3919554   1.287   4.051   5.258  0.1739 -0.2249 -0.3248
  172SAPE   H9X19555   1.392   4.086   5.251 -0.7046  2.4919 -1.5395
  172SAPE   H9Y19556   1.226   4.144   5.263  0.7721  0.2975 -2.0227
  172SAPE  C31019557   1.260   3.966   5.129 -0.7157  0.4580 -0.2715
  172SAPE  H10X19558   1.165   3.908   5.136 -0.2266 -0.7387 -2.5540
  172SAPE  H10Y19559   1.337   3.886   5.120 -1.7830 -0.7185  0.5350
  172SAPE  C31119560   1.274   4.050   5.002  0.5492 -0.5789 -0.0811
  172SAPE  H11X19561   1.367   4.111   5.001 -0.9730  1.8757 -1.1988
  172SAPE  H11Y19562   1.196   4.128   5.017 -0.0032 -0.9676 -0.8708
  172SAPE  C31219563   1.251   3.971   4.871 -0.3952 -0.8460  0.3023
  172SAPE  H12X19564   1.157   3.917   4.893 -1.2152  1.0482  1.7230
  172SAPE  H12Y19565   1.331   3.895   4.862  2.5641  2.0262  0.3291
  172SAPE  C31319566   1.240   4.057   4.746 -0.2566  0.2113 -0.6847
  172SAPE  H13X19567   1.344   4.086   4.720 -0.1032 -0.7864 -1.2332
  172SAPE  H13Y19568   1.175   4.146   4.760 -1.4150 -0.3512 -2.1138
  172SAPE  C31419569   1.182   3.974   4.623 -0.7497 -0.1007  0.0404
  172SAPE  H14X19570   1.081   3.934   4.643 -0.0002 -2.3750 -0.4570
  172SAPE  H14Y19571   1.254   3.889   4.616 -1.4907 -1.0280  2.4900
  172SAPE  C31519572   1.180   4.046   4.488  0.3776 -0.7315  0.4962
  172SAPE  H15X19573   1.111   4.132   4.501 -0.6605 -1.6234  1.0382
  172SAPE  H15Y19574   1.139   3.977   4.412 -0.6615  2.3526 -1.9916
  172SAPE  C31619575   1.322   4.098   4.448 -0.0663 -0.1909  0.1261
  172SAPE  H16X19576   1.391   4.011   4.441  1.8363  1.0678  2.0095
  172SAPE  H16Y19577   1.353   4.168   4.529 -1.6868 -0.6703  1.2120
  172SAPE  C31719578   1.332   4.184   4.324 -0.3900  0.7507  1.1043
  172SAPE  H17X19579   1.436   4.222   4.313 -0.8581  1.8289  0.2331
  172SAPE  H17Y19580   1.267   4.273   4.339 -0.2101  1.6929 -2.6898
  172SAPE  C31819581   1.305   4.109   4.190  0.1569  0.1896 -0.0342
  172SAPE  H18X19582   1.321   4.174   4.102 -1.9863 -0.8678 -1.2865
  172SAPE  H18Y19583   1.207   4.060   4.174  0.3664  0.0622 -0.9533
  172SAPE  H18Z19584   1.369   4.017   4.185  1.5472  1.0837  0.5839
  173SAPE     N19585   1.185   2.851   6.573  0.6997  0.4493 -0.0002
  173SAPE   HN119586   1.285   2.840   6.597  0.5740  0.0237  0.3387
  173SAPE   HN219587   1.137   2.769   6.616 -0.3318 -0.0313 -1.9529
  173SAPE   HN319588   1.178   2.831   6.471 -0.9381 -1.3091  0.4030
  173SAPE   C1219589   1.125   2.978   6.613  0.4216  0.2600  0.7228
  173SAPE  H12A19590   1.176   3.057   6.554  0.2212  0.5134  0.8880
  173SAPE  H12B19591   1.158   3.000   6.717  0.7692  0.9955  0.4617
  173SAPE   C1119592   0.982   2.982   6.561  0.1574 -0.0816 -0.1000
  173SAPE  H11A19593   0.969   2.953   6.455  1.2159 -0.8564 -0.0281
  173SAPE  H11B19594   0.955   3.089   6.551  1.1276  0.1942  0.1198
  173SAPE     P19595   0.747   2.929   6.652  0.0709 -0.0297 -0.1494
  173SAPE   O1319596   0.677   2.839   6.743  0.1290 -0.2933  0.0153
  173SAPE   O1419597   0.719   3.070   6.680 -0.1023 -0.2850 -0.4282
  173SAPE   O1219598   0.904   2.901   6.650 -0.0649 -0.1286 -0.0182
  173SAPE   O1119599   0.705   2.899   6.499 -0.0181 -0.5920 -0.6516
  173SAPE    C119600   0.734   2.775   6.433 -0.0975 -0.0165 -0.2704
  173SAPE    HA19601   0.842   2.752   6.437  0.0176  0.6166  2.4841
  173SAPE    HB19602   0.692   2.687   6.486  2.0828 -1.6446 -1.0976
  173SAPE    C219603   0.686   2.781   6.283 -0.1994 -0.4410 -0.7254
  173SAPE    HS19604   0.726   2.686   6.241 -0.7791 -1.8784  1.7860
  173SAPE   O2119605   0.723   2.897   6.210  0.0664 -0.1479  0.2283
  173SAPE   C2119606   0.850   2.915   6.186 -0.4188 -0.5031  0.1627
  173SAPE   O2219607   0.936   2.831   6.213  0.0285  0.0717  0.3693
  173SAPE   C2219608   0.877   3.050   6.110 -0.1613  0.3170 -0.5392
  173SAPE   H2R19609   0.785   3.112   6.105  0.8326  1.8972  0.2572
  173SAPE   H2S19610   0.953   3.102   6.172 -0.9906 -0.5998  1.3399
  173SAPE    C319611   0.530   2.776   6.283 -0.9823  0.1278  0.0075
  173SAPE    HX19612   0.501   2.882   6.299  0.8335  0.8510 -1.1868
  173SAPE    HY19613   0.492   2.708   6.362 -0.3598 -1.5501 -1.0721
  173SAPE   O3119614   0.481   2.729   6.157 -0.2846 -0.5002  0.2365
  173SAPE   C3119615   0.463   2.818   6.061  0.1225  0.6367  0.8673
  173SAPE   O3219616   0.453   2.938   6.078 -0.1735 -0.0046 -0.1824
  173SAPE   C3219617   0.455   2.746   5.924  0.4555 -0.0732  0.6711
  173SAPE   H2X19618   0.436   2.832   5.856  2.7141 -0.0259  0.0300
  173SAPE   H2Y19619   0.369   2.677   5.932 -0.7626  1.1992 -0.6872
  173SAPE   C2319620   0.918   3.024   5.959  0.2955 -0.3940  0.2351
  173SAPE   H3R19621   0.998   2.947   5.958  0.1886 -0.4970 -0.6610
  173SAPE   H3S19622   0.950   3.117   5.907 -0.8607  0.0934  0.3702
  173SAPE   C2419623   0.794   2.977   5.874 -0.1139 -0.2246  0.0824
  173SAPE   H4R19624   0.756   2.893   5.936  3.4230 -1.8931  0.2523
  173SAPE   H4S19625   0.829   2.935   5.777 -1.3454 -0.8808 -0.1010
  173SAPE   C2519626   0.690   3.083   5.847  0.3670  0.0612  0.5766
  173SAPE   H5R19627   0.633   3.111   5.937  0.2993 -1.2473  0.9664
  173SAPE   C2619628   0.680   3.154   5.739  0.0726  0.0141  0.0066
  173SAPE   H6R19629   0.593   3.220   5.729  0.7044  0.9819  0.7255
  173SAPE   C2719630   0.775   3.142   5.619 -0.1499  0.3094  0.5367
  173SAPE   H7R19631   0.721   3.067   5.557  0.4481 -0.2145  0.6422
  173SAPE   H7S19632   0.870   3.092   5.646  0.4038  1.9121  1.7024
  173SAPE   C2819633   0.806   3.270   5.546  0.2127 -0.4638 -0.0998
  173SAPE   H8R19634   0.836   3.355   5.609  0.2312  0.0475 -0.7796
  173SAPE   C2919635   0.793   3.289   5.415 -0.0186 -0.3397 -1.0389
  173SAPE   H9R19636   0.817   3.386   5.368  1.3407 -0.4886 -0.7045
  173SAPE  C21019637   0.746   3.184   5.318 -0.7545  0.3461 -0.1695
  173SAPE  H10R19638   0.637   3.165   5.326 -0.6806 -0.6560 -1.3214
  173SAPE  H10S19639   0.791   3.083   5.331  0.3049  0.7004 -0.9333
  173SAPE  C21119640   0.780   3.242   5.182 -0.6054 -0.6788  0.0992
  173SAPE  H11R19641   0.788   3.351   5.172 -0.4355 -0.6783  0.2442
  173SAPE  C21219642   0.780   3.180   5.054  0.5177  0.4616  0.2364
  173SAPE  H12R19643   0.827   3.237   4.973  3.0905  0.1031  1.3704
  173SAPE  C21319644   0.756   3.029   5.023 -0.1631 -0.2989 -0.2818
  173SAPE  H13R19645   0.818   2.984   5.104 -1.5960  0.2318  1.1752
  173SAPE  H13S19646   0.813   3.013   4.929 -0.7794  2.0881 -1.1312
  173SAPE  C21419647   0.618   2.970   5.031 -0.0700 -0.0609  0.2203
  173SAPE  H14R19648   0.604   2.908   5.120  1.4783  0.3794  0.7917
  173SAPE  C21519649   0.519   2.987   4.941 -0.2070 -0.3313  0.7233
  173SAPE  H15R19650   0.424   2.931   4.936 -0.9039  0.8594 -3.6763
  173SAPE  C21619651   0.529   3.062   4.812 -0.1633 -0.3641  0.2076
  173SAPE  H16R19652   0.629   3.110   4.801 -0.2538 -0.1073  0.5096
  173SAPE  H16S19653   0.457   3.146   4.802  0.5391  0.1906 -0.3938
  173SAPE  C21719654   0.504   2.969   4.689  0.0288 -0.0255  0.2881
  173SAPE  H17R19655   0.509   3.032   4.598 -0.9808 -0.7914 -0.3332
  173SAPE  H17S19656   0.407   2.914   4.693 -0.4588  0.5763 -1.8126
  173SAPE  C21819657   0.613   2.862   4.674  0.8228  0.0751  0.2975
  173SAPE  H18R19658   0.605   2.798   4.764 -0.0966  0.2578  0.3551
  173SAPE  H18S19659   0.717   2.900   4.676  0.0655  2.2589  1.0078
  173SAPE  C21919660   0.585   2.769   4.551 -0.3209  0.1049 -0.7353
  173SAPE  H19R19661   0.670   2.699   4.534 -0.0272 -0.7880  3.2487
  173SAPE  H19S19662   0.595   2.836   4.463  0.0244  2.3341  0.9244
  173SAPE  C22019663   0.451   2.695   4.547 -0.0784  0.6239  0.1328
  173SAPE  H20R19664   0.368   2.765   4.522 -1.2811 -1.4789 -2.2018
  173SAPE  H20S19665   0.437   2.648   4.647 -0.0405  0.6594  0.1548
  173SAPE  H20T19666   0.454   2.609   4.478 -0.3171  0.7733 -0.0642
  173SAPE   C3319667   0.581   2.665   5.892 -0.5965 -0.0724  0.3910
  173SAPE   H3X19668   0.587   2.604   5.985  0.0617 -1.7906 -0.7388
  173SAPE   H3Y19669   0.674   2.724   5.904 -0.2777 -0.4326 -0.3102
  173SAPE   C3419670   0.581   2.579   5.762  0.2208  0.2277  0.3040
  173SAPE   H4X19671   0.494   2.511   5.775 -0.9932  1.4008 -1.2641
  173SAPE   H4Y19672   0.676   2.524   5.753  0.6194  0.9285  0.1307
  173SAPE   C3519673   0.577   2.675   5.636  0.2327 -0.3095  0.0642
  173SAPE   H5X19674   0.670   2.734   5.628  0.6304 -0.9608 -0.1916
  173SAPE   H5Y19675   0.509   2.759   5.661  1.3243  0.7263 -0.3470
  173SAPE   C3619676   0.524   2.612   5.504  0.2088 -0.4738 -0.1649
  173SAPE   H6X19677   0.414   2.597   5.501 -0.0530  1.1920  0.2483
  173SAPE   H6Y19678   0.574   2.514   5.487  1.5730  0.3372 -1.0176
  173SAPE   C3719679   0.575   2.687   5.382 -0.3451 -0.8126  0.7429
  173SAPE   H7X19680   0.683   2.711   5.389 -0.1608 -1.0282 -0.8850
  173SAPE   H7Y19681   0.516   2.781   5.386  1.0974  0.2279 -0.9066
  173SAPE   C3819682   0.541   2.616   5.248  0.0118  0.1971 -0.2446
  173SAPE   H8X19683   0.560   2.509   5.272  2.7826  1.1203  2.2889
  173SAPE   H8Y19684   0.612   2.659   5.174 -1.2146  1.3898 -0.7638
  173SAPE   C3919685   0.400   2.651   5.203 -0.0069  0.2799 -0.3050
  173SAPE   H9X19686   0.375   2.758   5.211 -0.9408  0.1378 -1.1562
  173SAPE   H9Y19687   0.324   2.599   5.265  1.5239  0.3866  1.7668
  173SAPE  C31019688   0.375   2.611   5.049 -0.4908 -0.2407 -0.1817
  173SAPE  H10X19689   0.449   2.660   4.982 -0.9555  0.7681  0.0253
  173SAPE  H10Y19690   0.277   2.657   5.026  1.0679  3.8191  0.4357
  173SAPE  C31119691   0.349   2.458   5.027  0.5791  0.1874  0.2956
  173SAPE  H11X19692   0.261   2.433   5.090 -0.3368  0.0297 -0.9941
  173SAPE  H11Y19693   0.433   2.389   5.048 -0.4708 -0.9500  0.8794
  173SAPE  C31219694   0.322   2.429   4.878 -0.2482 -0.5069  0.3274
  173SAPE  H12X19695   0.333   2.323   4.846 -0.1715 -0.5344  0.4475
  173SAPE  H12Y19696   0.398   2.482   4.816 -2.0142  0.0836 -1.4667
  173SAPE  C31319697   0.183   2.469   4.826  0.4131  0.5910 -0.3331
  173SAPE  H13X19698   0.187   2.578   4.809  0.1782  0.7579  0.6284
  173SAPE  H13Y19699   0.119   2.449   4.914  0.8699  2.4589  0.4620
  173SAPE  C31419700   0.136   2.409   4.692 -0.1952 -0.3443  0.0063
  173SAPE  H14X19701   0.218   2.408   4.617 -1.6191  0.8005 -1.6298
  173SAPE  H14Y19702   0.057   2.462   4.635 -0.0405 -1.8590 -1.7307
  173SAPE  C31519703   0.090   2.264   4.715 -0.9915 -0.5844 -0.2105
  173SAPE  H15X19704   0.027   2.254   4.806 -1.6498 -2.6431 -0.8339
  173SAPE  H15Y19705   0.182   2.206   4.736  1.4057  3.5347  1.6438
  173SAPE  C31619706   0.005   2.223   4.598 -0.0405  0.3721  0.1288
  173SAPE  H16X19707   0.048   2.250   4.498  0.0974  0.5685  0.2400
  173SAPE  H16Y19708  -0.088   2.283   4.604 -0.8670 -0.9920  1.7459
  173SAPE  C31719709  -0.023   2.072   4.588  0.0083 -0.2559  0.2613
  173SAPE  H17X19710  -0.073   2.053   4.491  0.3017 -0.7765  0.2066
  173SAPE  H17Y19711  -0.086   2.050   4.678 -1.4751  1.9318 -0.1520
  173SAPE  C31819712   0.104   1.979   4.586  0.2754 -0.7912 -0.3840
  173SAPE  H18X19713   0.077   1.876   4.554  2.1704 -0.5781 -2.8733
  173SAPE  H18Y19714   0.159   1.980   4.682  0.0641 -1.2490 -0.2539
  173SAPE  H18Z19715   0.170   2.019   4.507 -0.0545  0.1158 -0.2060
  174SAPE     N19716   0.627   3.904   6.897  0.1381  0.0049  0.6864
  174SAPE   HN119717   0.692   3.967   6.846  1.6806 -2.1832 -0.2153
  174SAPE   HN219718   0.598   3.958   6.981  0.8136 -1.5656  2.0074
  174SAPE   HN319719   0.689   3.827   6.930  0.7176  0.4204  0.5958
  174SAPE   C1219720   0.508   3.849   6.825  0.2368  0.3191 -0.1188
  174SAPE  H12A19721   0.435   3.929   6.802 -0.6756 -0.7555 -1.0993
  174SAPE  H12B19722   0.453   3.777   6.889  3.3163 -0.7696  1.5030
  174SAPE   C1119723   0.556   3.798   6.693  0.1234 -0.5362 -0.6539
  174SAPE  H11A19724   0.570   3.886   6.627 -0.9663  0.1630  0.0186
  174SAPE  H11B19725   0.468   3.758   6.638 -0.5156  1.7035 -1.3897
  174SAPE     P19726   0.690   3.566   6.645 -0.5019 -0.4190  0.0512
  174SAPE   O1319727   0.785   3.511   6.741 -0.5934 -0.1226 -0.1772
  174SAPE   O1419728   0.553   3.498   6.644  0.5385  0.1961  0.1960
  174SAPE   O1219729   0.672   3.715   6.693 -0.3989 -0.5379  0.1985
  174SAPE   O1119730   0.751   3.572   6.502 -0.4209 -1.2016 -0.6184
  174SAPE    C119731   0.756   3.696   6.424  0.0982  0.2375  0.5870
  174SAPE    HA19732   0.758   3.786   6.489  0.5394  0.8536 -0.2683
  174SAPE    HB19733   0.850   3.698   6.365 -1.2435 -3.2869 -2.0523
  174SAPE    C219734   0.622   3.709   6.334 -0.0885 -0.6509 -0.0845
  174SAPE    HS19735   0.539   3.718   6.407  0.1027  2.6494 -0.1242
  174SAPE   O2119736   0.625   3.599   6.245  0.4047  0.5423  0.4859
  174SAPE   C2119737   0.509   3.540   6.226  0.1250 -0.1965  0.5934
  174SAPE   O2219738   0.407   3.579   6.279  0.0677 -0.3515  0.3609
  174SAPE   C2219739   0.527   3.417   6.146 -0.6101 -0.1110 -0.2939
  174SAPE   H2R19740   0.621   3.422   6.089 -0.8261 -0.5944 -0.6984
  174SAPE   H2S19741   0.532   3.327   6.212  0.2620 -1.2291 -1.8295
  174SAPE    C319742   0.621   3.842   6.245  0.9219  0.0953  0.4435
  174SAPE    HX19743   0.714   3.860   6.186 -0.2102  0.5909 -1.2653
  174SAPE    HY19744   0.619   3.931   6.312 -1.6338 -0.2754  0.9548
  174SAPE   O3119745   0.517   3.830   6.152 -0.5832 -0.4809  0.0236
  174SAPE   C3119746   0.402   3.884   6.184  0.1652  0.1055 -0.7342
  174SAPE   O3219747   0.379   3.942   6.289 -0.0162  0.0967 -0.3057
  174SAPE   C3219748   0.310   3.874   6.070 -0.2988 -0.0606  0.3516
  174SAPE   H2X19749   0.206   3.847   6.098 -0.8489 -2.6207 -3.4536
  174SAPE   H2Y19750   0.346   3.794   6.002 -0.3080 -0.8647  1.2854
  174SAPE   C2319751   0.410   3.401   6.045  0.0342  0.2260 -0.9021
  174SAPE   H3R19752   0.310   3.403   6.092  0.5096 -2.1919  0.3657
  174SAPE   H3S19753   0.419   3.300   6.001  0.4527 -0.2842  0.3225
  174SAPE   C2419754   0.421   3.502   5.931  0.1244 -0.7085 -0.2058
  174SAPE   H4R19755   0.520   3.480   5.886 -0.2840  0.4931 -1.7956
  174SAPE   H4S19756   0.417   3.611   5.952  1.8405 -0.4846 -0.8918
  174SAPE   C2519757   0.327   3.486   5.813 -0.4945  0.5956 -0.0416
  174SAPE   H5R19758   0.224   3.497   5.850 -0.3527  1.2605  0.1677
  174SAPE   C2619759   0.348   3.481   5.679 -0.3179  0.2191 -0.3230
  174SAPE   H6R19760   0.268   3.471   5.605  0.2794 -0.3852 -0.8977
  174SAPE   C2719761   0.481   3.486   5.611  0.0403  0.0601 -0.0350
  174SAPE   H7R19762   0.547   3.422   5.673  0.5450  0.8138  0.2342
  174SAPE   H7S19763   0.524   3.589   5.612 -0.0395  0.1206 -1.4406
  174SAPE   C2819764   0.485   3.437   5.466  0.4696 -0.3806 -0.4102
  174SAPE   H8R19765   0.499   3.333   5.434 -2.1358 -0.2007 -2.5482
  174SAPE   C2919766   0.462   3.515   5.358  0.1697  0.5300 -0.3804
  174SAPE   H9R19767   0.449   3.466   5.261  1.6426  1.4909 -1.0956
  174SAPE  C21019768   0.425   3.661   5.359 -0.3992 -0.1181 -0.7649
  174SAPE  H10R19769   0.521   3.717   5.364 -0.0969 -0.6662 -0.3095
  174SAPE  H10S19770   0.372   3.671   5.456 -0.4763  1.0171 -0.9021
  174SAPE  C21119771   0.333   3.712   5.264 -0.2374  0.2063  0.2544
  174SAPE  H11R19772   0.232   3.725   5.306 -2.0135 -2.8534 -2.5658
  174SAPE  C21219773   0.359   3.731   5.128  0.6539  0.5569 -0.1890
  174SAPE  H12R19774   0.287   3.781   5.062  1.1954  1.1438 -0.3494
  174SAPE  C21319775   0.504   3.735   5.072  0.4183 -0.2393  0.5511
  174SAPE  H13R19776   0.567   3.666   5.132 -0.9181 -1.2439  0.8511
  174SAPE  H13S19777   0.545   3.834   5.101  2.8932  0.3542 -4.0183
  174SAPE  C21419778   0.512   3.711   4.922  0.3330  0.2048 -0.4499
  174SAPE  H14R19779   0.450   3.633   4.876 -0.7133  1.1039 -0.5995
  174SAPE  C21519780   0.591   3.778   4.837 -0.3646 -0.5192 -0.9368
  174SAPE  H15R19781   0.582   3.755   4.730  1.2196 -0.2359 -1.1553
  174SAPE  C21619782   0.685   3.892   4.872  0.3381 -0.5202  0.0673
  174SAPE  H16R19783   0.752   3.858   4.954  1.1775  0.7938 -0.0430
  174SAPE  H16S19784   0.637   3.981   4.919 -0.0548 -1.2180  1.0280
  174SAPE  C21719785   0.780   3.944   4.760 -0.5321  0.9315  0.6668
  174SAPE  H17R19786   0.836   3.860   4.714 -1.8890  0.2466  0.2172
  174SAPE  H17S19787   0.857   3.997   4.820  0.8050  0.0994 -0.2521
  174SAPE  C21819788   0.722   4.036   4.647 -0.9403  0.7591 -0.0819
  174SAPE  H18R19789   0.671   4.119   4.701  0.0065  0.2211  1.7159
  174SAPE  H18S19790   0.654   3.976   4.583  0.2620 -1.1463  0.3247
  174SAPE  C21919791   0.835   4.091   4.556 -0.7271  0.2343  0.0195
  174SAPE  H19R19792   0.873   3.999   4.507 -1.6326 -0.1156 -0.0520
  174SAPE  H19S19793   0.918   4.141   4.610 -0.5317 -0.4599  0.3708
  174SAPE  C22019794   0.785   4.184   4.444 -0.0842 -0.9288  0.3848
  174SAPE  H20R19795   0.715   4.262   4.481 -0.7072 -1.1385 -0.3416
  174SAPE  H20S19796   0.728   4.127   4.367 -2.1128  2.4109 -0.7926
  174SAPE  H20T19797   0.868   4.233   4.389 -1.6101  1.2380 -0.0990
  174SAPE   C3319798   0.327   4.002   5.982  0.3990  0.5851  0.0391
  174SAPE   H3X19799   0.422   4.016   5.926  1.0326  0.6941  1.1213
  174SAPE   H3Y19800   0.304   4.089   6.047 -0.6905 -1.2988  2.3344
  174SAPE   C3419801   0.230   4.006   5.862  0.5014 -0.0150  0.1798
  174SAPE   H4X19802   0.144   4.070   5.893 -0.5978 -1.4813  0.2920
  174SAPE   H4Y19803   0.182   3.907   5.844  0.8815 -0.6430  2.3084
  174SAPE   C3519804   0.294   4.045   5.728  0.2809 -0.0831 -1.0424
  174SAPE   H5X19805   0.370   3.970   5.698  0.6857 -1.0958  2.1672
  174SAPE   H5Y19806   0.355   4.136   5.749  0.4802 -0.0472 -1.7548
  174SAPE   C3619807   0.198   4.047   5.610  0.5881 -0.3063  0.4933
  174SAPE   H6X19808   0.127   4.123   5.650  0.3646 -1.8039  3.2168
  174SAPE   H6Y19809   0.151   3.948   5.591 -1.4841  0.9998 -1.9551
  174SAPE   C3719810   0.252   4.085   5.469  0.0296 -0.0336  0.6956
  174SAPE   H7X19811   0.327   4.006   5.447  1.8956  1.7054  0.4644
  174SAPE   H7Y19812   0.291   4.186   5.494  1.5174 -0.2284 -0.7085
  174SAPE   C3819813   0.141   4.076   5.361  0.2714  0.0962  0.1023
  174SAPE   H8X19814   0.061   4.152   5.378  0.1638  0.1974 -0.8194
  174SAPE   H8Y19815   0.087   3.979   5.372 -1.7417  1.1578  0.1103
  174SAPE   C3919816   0.199   4.106   5.220 -0.4665  0.2062  0.8533
  174SAPE   H9X19817   0.135   4.063   5.140  1.9589 -0.9466 -0.5675
  174SAPE   H9Y19818   0.287   4.045   5.191 -1.6881 -0.6624 -1.2079
  174SAPE  C31019819   0.207   4.255   5.179 -0.1060  0.1746  0.9275
  174SAPE  H10X19820   0.252   4.324   5.253 -0.2580  1.4211 -0.0964
  174SAPE  H10Y19821   0.103   4.293   5.168 -0.2414 -0.1604  1.0284
  174SAPE  C31119822   0.270   4.266   5.044 -0.7658 -0.2494  0.3702
  174SAPE  H11X19823   0.241   4.358   4.989  0.7966 -0.8980 -1.7014
  174SAPE  H11Y19824   0.227   4.186   4.979 -1.1708 -0.9567  1.4820
  174SAPE  C31219825   0.426   4.257   5.037  0.0359 -0.4637  1.3219
  174SAPE  H12X19826   0.466   4.161   5.075 -1.4313 -0.1255  3.9846
  174SAPE  H12Y19827   0.452   4.346   5.098  0.1920 -0.4391  1.2176
  174SAPE  C31319828   0.487   4.283   4.896  0.1233 -0.2666 -0.8011
  174SAPE  H13X19829   0.484   4.194   4.830  0.4999 -0.0824 -1.0725
  174SAPE  H13Y19830   0.597   4.299   4.906  0.2198 -0.8644 -0.8577
  174SAPE  C31419831   0.421   4.404   4.825  0.1666  0.0045  0.8649
  174SAPE  H14X19832   0.404   4.493   4.889 -1.0417  0.2334  0.2587
  174SAPE  H14Y19833   0.320   4.375   4.791  0.8785  0.4795 -1.9656
  174SAPE  C31519834   0.506   4.438   4.702  0.4303  0.0798  0.7039
  174SAPE  H15X19835   0.539   4.339   4.662  2.6405  1.2294 -0.4759
  174SAPE  H15Y19836   0.596   4.496   4.731  1.4159  0.1685 -2.1673
  174SAPE  C31619837   0.430   4.533   4.603 -0.5584  0.1081 -0.0671
  174SAPE  H16X19838   0.386   4.615   4.663  0.1302 -0.5761  1.4357
  174SAPE  H16Y19839   0.345   4.487   4.549 -1.3102 -0.4989  1.5771
  174SAPE  C31719840   0.524   4.608   4.511 -0.1897 -0.4025  0.5373
  174SAPE  H17X19841   0.591   4.545   4.447  1.0345 -0.0784  1.4668
  174SAPE  H17Y19842   0.595   4.668   4.572  1.5252 -1.3638 -0.4190
  174SAPE  C31819843   0.453   4.706   4.420 -0.0602  0.6916  0.1230
  174SAPE  H18X19844   0.384   4.651   4.353 -0.2112 -1.0722  1.6180
  174SAPE  H18Y19845   0.525   4.755   4.351 -0.8348  1.7143  0.0274
  174SAPE  H18Z19846   0.394   4.777   4.482  1.7988  2.5184 -0.1059
  175SAPE     N19847   1.692   1.277   1.798 -0.0353 -0.0233 -0.0478
  175SAPE   HN119848   1.654   1.248   1.706  0.1085 -1.1135  0.2183
  175SAPE   HN219849   1.728   1.200   1.857  2.3390  2.1350  1.5468
  175SAPE   HN319850   1.627   1.337   1.853 -0.5320 -0.7535  0.1713
  175SAPE   C1219851   1.822   1.359   1.757  0.3430  0.2686  0.2957
  175SAPE  H12A19852   1.775   1.437   1.694 -0.5720  0.1732  0.8426
  175SAPE  H12B19853   1.879   1.281   1.702 -0.8994 -0.3048 -0.2249
  175SAPE   C1119854   1.891   1.425   1.879  0.7836  0.3972  0.0258
  175SAPE  H11A19855   1.982   1.476   1.840  0.9062 -1.3971 -2.2166
  175SAPE  H11B19856   1.920   1.348   1.952  0.2607  0.7032  0.5670
  175SAPE     P19857   1.732   1.523   2.076 -0.1773 -0.3285  0.3741
  175SAPE   O1319858   1.648   1.648   2.103 -0.4529 -0.3704  0.6913
  175SAPE   O1419859   1.674   1.392   2.081 -0.1729 -0.3819 -0.1893
  175SAPE   O1219860   1.800   1.521   1.937 -0.8909  0.6109 -0.4748
  175SAPE   O1119861   1.854   1.514   2.176  0.0234 -0.1089 -0.1437
  175SAPE    C119862   1.976   1.587   2.166 -0.3565  0.1964 -0.2189
  175SAPE    HA19863   2.060   1.515   2.157 -0.1331  0.4201  0.0713
  175SAPE    HB19864   1.976   1.651   2.076 -0.4695  0.3490 -0.1109
  175SAPE    C219865   1.998   1.681   2.290 -0.3067 -0.1230  0.0100
  175SAPE    HS19866   2.101   1.720   2.283 -0.9942  2.2413  1.5315
  175SAPE   O2119867   1.984   1.604   2.410  0.3664 -0.7977 -0.1533
  175SAPE   C2119868   2.086   1.529   2.444 -0.2848 -0.3819 -0.0334
  175SAPE   O2219869   2.200   1.536   2.400  0.3512  0.6696  0.3307
  175SAPE   C2219870   2.040   1.444   2.564  0.3174  1.4322  0.2182
  175SAPE   H2R19871   1.954   1.496   2.611 -1.3374 -0.3938 -0.6649
  175SAPE   H2S19872   1.991   1.353   2.525  0.0060  1.8071 -0.2831
  175SAPE    C319873   1.904   1.808   2.293 -0.7784 -0.5214 -0.2021
  175SAPE    HX19874   1.797   1.779   2.296 -0.6116 -1.4081 -1.8893
  175SAPE    HY19875   1.904   1.864   2.197 -0.1638 -0.2697 -0.0617
  175SAPE   O3119876   1.920   1.901   2.404 -0.1300 -0.1736  0.0414
  175SAPE   C3119877   2.032   1.978   2.401 -0.4874 -0.0965  0.3008
  175SAPE   O3219878   2.102   1.995   2.304 -0.4701  0.4125 -0.0367
  175SAPE   C3219879   2.061   2.043   2.538 -0.1916 -0.0312  0.6916
  175SAPE   H2X19880   2.096   1.962   2.605  1.2567 -0.1799 -0.2080
  175SAPE   H2Y19881   1.959   2.063   2.580 -0.5765 -1.4628  0.4970
  175SAPE   C2319882   2.166   1.409   2.654  0.2050  0.5088  0.1861
  175SAPE   H3R19883   2.183   1.501   2.713 -0.9085  1.0511 -0.3170
  175SAPE   H3S19884   2.264   1.402   2.601  0.2123  2.8164 -0.1790
  175SAPE   C2419885   2.129   1.304   2.749  0.6490  0.2789 -0.4417
  175SAPE   H4R19886   2.095   1.210   2.700  1.5074 -0.7860  0.8960
  175SAPE   H4S19887   2.042   1.352   2.799  1.5444  2.8965 -1.2738
  175SAPE   C2519888   2.247   1.266   2.843 -0.0824 -0.1000  0.7475
  175SAPE   H5R19889   2.316   1.185   2.814  3.9013  3.2977 -0.1005
  175SAPE   C2619890   2.266   1.309   2.971  0.0779  0.3485 -1.2137
  175SAPE   H6R19891   2.362   1.283   3.018 -1.8188 -1.1600  2.2264
  175SAPE   C2719892   2.190   1.415   3.048 -0.0706 -0.2900 -0.1371
  175SAPE   H7R19893   2.101   1.452   2.994 -0.4365 -1.0306 -0.0493
  175SAPE   H7S19894   2.263   1.499   3.039  0.0922 -0.3415  0.6365
  175SAPE   C2819895   2.175   1.384   3.192  0.2423  0.0397 -0.2146
  175SAPE   H8R19896   2.073   1.350   3.214 -0.0089  1.6982  1.4381
  175SAPE   C2919897   2.265   1.387   3.293 -0.7576  0.4389 -0.1371
  175SAPE   H9R19898   2.224   1.358   3.391 -1.3360  2.3700  0.2455
  175SAPE  C21019899   2.416   1.411   3.286 -0.3231 -0.1550  0.4215
  175SAPE  H10R19900   2.456   1.448   3.190  0.6428  1.2402  1.3156
  175SAPE  H10S19901   2.471   1.325   3.330 -2.2598 -1.7032 -0.0712
  175SAPE  C21119902   2.435   1.523   3.384 -0.1395  0.4115 -0.5381
  175SAPE  H11R19903   2.437   1.625   3.344  2.3377  1.5808  2.2405
  175SAPE  C21219904   2.461   1.513   3.515  0.4636  0.6937  0.3771
  175SAPE  H12R19905   2.468   1.607   3.571 -2.1807  0.9197  0.4503
  175SAPE  C21319906   2.477   1.388   3.597  0.0965  0.0255 -0.8313
  175SAPE  H13R19907   2.571   1.392   3.657 -1.5963  0.6075  1.9494
  175SAPE  H13S19908   2.481   1.292   3.543  1.1593  0.7581 -2.1236
  175SAPE  C21419909   2.360   1.372   3.683  0.4260 -0.6183 -0.5890
  175SAPE  H14R19910   2.277   1.425   3.633  1.1088  1.2364  0.1561
  175SAPE  C21519911   2.345   1.308   3.794 -0.1229 -0.5332  0.4427
  175SAPE  H15R19912   2.249   1.320   3.846  0.9526  0.5742  2.2635
  175SAPE  C21619913   2.449   1.239   3.878  0.0568 -0.4679  0.0972
  175SAPE  H16R19914   2.551   1.232   3.835  0.0682  1.3169 -0.2272
  175SAPE  H16S19915   2.423   1.131   3.889 -1.5137  0.0230  1.8231
  175SAPE  C21719916   2.458   1.293   4.023 -0.2342  0.1968 -0.2990
  175SAPE  H17R19917   2.354   1.309   4.058 -0.1573  0.1216 -0.0342
  175SAPE  H17S19918   2.519   1.385   4.018  0.7154 -0.3551  0.6021
  175SAPE  C21819919   2.518   1.186   4.115  0.0750 -0.0656 -0.2936
  175SAPE  H18R19920   2.610   1.150   4.064  1.7149  2.5858  0.5890
  175SAPE  H18S19921   2.441   1.108   4.132 -1.2804  1.2155 -0.2995
  175SAPE  C21919922   2.569   1.240   4.256 -0.0818  0.0627 -0.8112
  175SAPE  H19R19923   2.624   1.155   4.301 -3.2469 -1.1392  1.1086
  175SAPE  H19S19924   2.480   1.246   4.322  1.0813 -0.6193  0.8791
  175SAPE  C22019925   2.637   1.382   4.255  0.0054 -0.1920  0.5683
  175SAPE  H20R19926   2.723   1.404   4.188  0.3355 -0.6762  0.8255
  175SAPE  H20S19927   2.665   1.404   4.360  1.3701  0.2779  0.1236
  175SAPE  H20T19928   2.567   1.464   4.228 -1.5599 -1.4106  0.8039
  175SAPE   C3319929   2.137   2.173   2.541 -0.2431 -0.6569 -0.4212
  175SAPE   H3X19930   2.107   2.245   2.462 -2.0456  0.2754  1.0431
  175SAPE   H3Y19931   2.239   2.146   2.504 -0.6365 -1.0150 -1.2676
  175SAPE   C3419932   2.143   2.251   2.676  0.4017  0.1061  0.3422
  175SAPE   H4X19933   2.052   2.263   2.738 -0.8487 -0.2898 -1.3612
  175SAPE   H4Y19934   2.180   2.354   2.658  1.6842 -0.6805 -1.8418
  175SAPE   C3519935   2.245   2.183   2.764  0.0313 -0.0988 -0.6710
  175SAPE   H5X19936   2.342   2.183   2.711  0.9782  0.7467  0.9966
  175SAPE   H5Y19937   2.211   2.078   2.776 -3.4441  0.9637 -0.1099
  175SAPE   C3619938   2.259   2.229   2.914 -0.4082 -0.2978  0.7568
  175SAPE   H6X19939   2.179   2.193   2.983 -0.6115  1.0103  1.2334
  175SAPE   H6Y19940   2.247   2.339   2.917  0.1604 -0.1886 -0.3416
  175SAPE   C3719941   2.395   2.177   2.957  0.4460 -0.1841 -0.2923
  175SAPE   H7X19942   2.465   2.247   2.907  1.1216 -1.2742 -0.9207
  175SAPE   H7Y19943   2.415   2.074   2.920  0.0599 -0.5056  0.3742
  175SAPE   C3819944   2.399   2.183   3.109 -0.4172 -0.6278 -0.1369
  175SAPE   H8X19945   2.499   2.155   3.150 -0.0110  0.9323  0.0333
  175SAPE   H8Y19946   2.319   2.117   3.147 -1.4415  1.8868  2.4410
  175SAPE   C3919947   2.351   2.320   3.170 -0.0677  0.1650 -0.6369
  175SAPE   H9X19948   2.249   2.350   3.137 -0.8736 -0.9341  0.7302
  175SAPE   H9Y19949   2.420   2.391   3.120  0.9164 -0.5701 -0.3638
  175SAPE  C31019950   2.368   2.346   3.323  0.5284 -0.3632  0.2363
  175SAPE  H10X19951   2.330   2.445   3.355 -1.4264 -1.1575  0.5852
  175SAPE  H10Y19952   2.476   2.335   3.345  0.3658  0.3785  1.5181
  175SAPE  C31119953   2.289   2.249   3.405  0.1873  0.7331  0.4648
  175SAPE  H11X19954   2.311   2.147   3.368  2.5564  1.7446 -1.2047
  175SAPE  H11Y19955   2.182   2.277   3.410  0.0226 -0.0383  1.5410
  175SAPE  C31219956   2.335   2.237   3.548 -0.2547  0.1760 -0.2577
  175SAPE  H12X19957   2.446   2.231   3.546 -0.2090  1.0744 -1.2471
  175SAPE  H12Y19958   2.283   2.160   3.608  2.0576  1.2176  3.3733
  175SAPE  C31319959   2.310   2.370   3.627 -0.2439 -0.4263 -0.7164
  175SAPE  H13X19960   2.205   2.400   3.610 -1.3609 -2.3780  2.0879
  175SAPE  H13Y19961   2.369   2.457   3.592 -1.8947  1.9374  2.0162
  175SAPE  C31419962   2.337   2.350   3.774  0.0029  0.2056 -0.8747
  175SAPE  H14X19963   2.272   2.265   3.804  1.8497 -1.1903 -0.6663
  175SAPE  H14Y19964   2.297   2.440   3.825  2.5112 -0.2359  2.1733
  175SAPE  C31519965   2.477   2.321   3.819  0.0068  0.1053  0.1645
  175SAPE  H15X19966   2.538   2.405   3.778  1.1877 -1.6702 -1.9705
  175SAPE  H15Y19967   2.516   2.227   3.774 -0.5044  0.7568 -1.7448
  175SAPE  C31619968   2.482   2.304   3.973  0.5539  0.3072  0.1237
  175SAPE  H16X19969   2.420   2.220   4.009 -0.1119 -0.0735 -1.7876
  175SAPE  H16Y19970   2.451   2.403   4.014  0.5299  0.5512 -0.4679
  175SAPE  C31719971   2.633   2.279   4.017 -0.0449  0.2451  0.3333
  175SAPE  H17X19972   2.682   2.378   4.000 -2.0968  0.9555 -2.0833
  175SAPE  H17Y19973   2.669   2.198   3.951 -1.0254 -0.7227  0.9577
  175SAPE  C31819974   2.649   2.235   4.170  0.4404  0.6284  0.7602
  175SAPE  H18X19975   2.592   2.140   4.180  0.8402  0.2393 -0.4955
  175SAPE  H18Y19976   2.599   2.313   4.232  1.4005  1.7439  0.1512
  175SAPE  H18Z19977   2.751   2.216   4.208  0.1387  0.2828  1.4193
  176SAPE     N19978   1.226   6.541   2.352  0.0968 -0.1218 -0.0073
  176SAPE   HN119979   1.278   6.628   2.331  1.5979 -0.8510  0.5042
  176SAPE   HN219980   1.163   6.551   2.434  0.3117  0.3710  0.0963
  176SAPE   HN319981   1.294   6.462   2.358 -0.5736 -0.9909 -2.5545
  176SAPE   C1219982   1.144   6.496   2.236  0.2783  0.0504 -0.2373
  176SAPE  H12A19983   1.098   6.400   2.267  4.8220 -1.8799  1.4216
  176SAPE  H12B19984   1.214   6.490   2.150  0.9681  0.7296  0.2689
  176SAPE   C1119985   1.029   6.605   2.218 -0.2909 -0.8221 -0.7859
  176SAPE  H11A19986   0.957   6.592   2.302  2.0860  0.7221  1.6614
  176SAPE  H11B19987   0.984   6.565   2.126  0.4592 -1.2461 -0.9809
  176SAPE     P19988   1.000   6.864   2.171  0.5956  0.2315 -0.0790
  176SAPE   O1319989   1.083   6.981   2.159 -0.3139  0.0936 -0.1742
  176SAPE   O1419990   0.925   6.824   2.053 -0.6801  0.4959  0.0415
  176SAPE   O1219991   1.084   6.744   2.219 -0.4237  0.3266  0.3635
  176SAPE   O1119992   0.896   6.873   2.297  0.1885 -0.0587  0.3322
  176SAPE    C119993   0.939   6.952   2.404  0.5956 -0.0435  0.1540
  176SAPE    HA19994   1.003   7.039   2.378 -1.5090  1.8662  1.0543
  176SAPE    HB19995   0.847   6.996   2.449 -0.0413 -1.7012  0.5444
  176SAPE    C219996   1.000   6.878   2.531 -0.2363 -0.3420 -0.2869
  176SAPE    HS19997   1.091   6.837   2.484 -1.5609 -0.1877 -3.2137
  176SAPE   O2119998   0.906   6.778   2.579  0.0825  0.5415  0.0559
  176SAPE   C2119999   0.947   6.659   2.608  1.1896  0.7447  0.1111
  176SAPE   O2220000   1.045   6.599   2.572  0.1933 -0.1864  0.0126
  176SAPE   C2220001   0.845   6.607   2.707  0.7067  1.1292  0.1291
  176SAPE   H2R20002   0.838   6.686   2.786 -1.3425 -0.5250  1.7124
  176SAPE   H2S20003   0.746   6.611   2.657 -0.5618  0.0844  2.4134
  176SAPE    C320004   1.028   6.961   2.658  0.4576  0.0174 -0.5047
  176SAPE    HX20005   0.931   7.010   2.683 -0.0439 -0.9147 -0.5878
  176SAPE    HY20006   1.097   7.046   2.639  0.9463 -0.5202 -1.2199
  176SAPE   O3120007   1.070   6.886   2.769  0.4350  0.2779 -0.3793
  176SAPE   C3120008   1.202   6.883   2.789 -0.4823  0.9671  0.0649
  176SAPE   O3220009   1.283   6.949   2.728 -0.5189 -0.5483  0.7828
  176SAPE   C3220010   1.220   6.795   2.913  0.1999  0.4490  0.6445
  176SAPE   H2X20011   1.169   6.699   2.893  1.5472 -0.1003 -0.3272
  176SAPE   H2Y20012   1.179   6.843   3.005  0.3795  0.0001  0.9583
  176SAPE   C2320013   0.874   6.463   2.756 -0.3434 -0.4723  0.1808
  176SAPE   H3R20014   0.879   6.384   2.679 -2.4556  0.8554 -1.4424
  176SAPE   H3S20015   0.784   6.445   2.820 -0.7108  1.5358  0.3012
  176SAPE   C2420016   0.998   6.462   2.856  0.1418 -0.5094 -0.0961
  176SAPE   H4R20017   0.962   6.522   2.942 -1.3291  0.0179 -1.0309
  176SAPE   H4S20018   1.091   6.512   2.821  0.5510 -0.1516  1.4247
  176SAPE   C2520019   1.035   6.323   2.896  0.0064 -0.2617  0.1025
  176SAPE   H5R20020   1.015   6.244   2.823 -1.3313  0.7274 -0.6573
  176SAPE   C2620021   1.075   6.285   3.024  0.1623  0.1949  0.7202
  176SAPE   H6R20022   1.102   6.181   3.050  1.4287  0.2734 -0.1888
  176SAPE   C2720023   1.108   6.382   3.137  0.7924 -0.5162  0.6686
  176SAPE   H7R20024   1.106   6.489   3.106 -0.3053 -0.8449 -0.5060
  176SAPE   H7S20025   1.213   6.362   3.165  1.5384 -0.5733 -1.9228
  176SAPE   C2820026   1.009   6.378   3.258  0.2571 -0.2911  0.0301
  176SAPE   H8R20027   0.909   6.340   3.232  0.5802 -0.8746 -0.3937
  176SAPE   C2920028   1.036   6.420   3.387  0.4504  0.1689  0.0264
  176SAPE   H9R20029   0.952   6.426   3.459 -0.7316 -0.9933 -1.1924
  176SAPE  C21020030   1.163   6.467   3.448 -0.1710 -0.3232  0.3634
  176SAPE  H10R20031   1.149   6.563   3.501  0.3275 -0.7612  1.3043
  176SAPE  H10S20032   1.242   6.479   3.370  1.6666  0.3121  2.2056
  176SAPE  C21120033   1.206   6.361   3.543  0.2300  0.0162  0.6567
  176SAPE  H11R20034   1.226   6.266   3.492  0.2043  0.4548 -0.1757
  176SAPE  C21220035   1.193   6.356   3.684 -0.5992 -0.1336  0.1722
  176SAPE  H12R20036   1.206   6.255   3.727  0.7981 -0.3045 -0.5986
  176SAPE  C21320037   1.143   6.471   3.768  0.6655  0.1850  0.0062
  176SAPE  H13R20038   1.114   6.563   3.713  1.1862 -0.3889 -1.2679
  176SAPE  H13S20039   1.215   6.495   3.850 -1.9057  2.0872  1.8762
  176SAPE  C21420040   1.016   6.433   3.839 -0.4151  0.6711  0.2016
  176SAPE  H14R20041   0.925   6.467   3.787 -0.0821  2.2674  0.6005
  176SAPE  C21520042   0.991   6.366   3.954  0.2317 -0.3291  0.8120
  176SAPE  H15R20043   0.886   6.350   3.981 -0.0911 -1.6165 -1.0255
  176SAPE  C21620044   1.098   6.321   4.048 -0.2151  0.5793  0.3195
  176SAPE  H16R20045   1.198   6.317   4.000 -0.0632  2.4206  0.4111
  176SAPE  H16S20046   1.063   6.220   4.079 -0.6123  0.1293 -1.4512
  176SAPE  C21720047   1.109   6.420   4.166  0.1246  0.4240 -0.3525
  176SAPE  H17R20048   1.153   6.365   4.253 -0.5753 -0.5247 -0.5746
  176SAPE  H17S20049   1.006   6.440   4.200  0.0208 -0.6772  0.0254
  176SAPE  C21820050   1.166   6.559   4.137 -0.3885 -0.2447  0.3674
  176SAPE  H18R20051   1.087   6.609   4.076  0.6905 -0.2333 -1.0721
  176SAPE  H18S20052   1.247   6.546   4.062  0.8617  1.4356  1.3842
  176SAPE  C21920053   1.214   6.646   4.250  0.5602  0.2032  0.5877
  176SAPE  H19R20054   1.129   6.664   4.319 -0.2972 -0.8075 -0.1700
  176SAPE  H19S20055   1.266   6.734   4.205  2.0207 -0.5299  0.7771
  176SAPE  C22020056   1.319   6.578   4.346 -0.3057  0.5426 -0.3799
  176SAPE  H20R20057   1.288   6.479   4.386  0.0029  0.0063 -1.4378
  176SAPE  H20S20058   1.341   6.643   4.434 -0.2560 -1.5079  1.1985
  176SAPE  H20T20059   1.413   6.552   4.293  1.1898  0.2587  2.2518
  176SAPE   C3320060   1.366   6.753   2.952 -0.0057 -0.1136  0.5309
  176SAPE   H3X20061   1.415   6.841   2.999 -3.5350  0.8638  2.7059
  176SAPE   H3Y20062   1.420   6.730   2.857 -1.4530 -2.2475  0.1444
  176SAPE   C3420063   1.379   6.644   3.057 -0.1825  0.0328 -0.1672
  176SAPE   H4X20064   1.309   6.559   3.042  0.3013 -0.1425 -1.5371
  176SAPE   H4Y20065   1.347   6.677   3.159 -1.1990  1.1074 -0.8102
  176SAPE   C3520066   1.519   6.594   3.054 -0.4097  0.1476  0.4269
  176SAPE   H5X20067   1.582   6.681   3.084 -2.4368  0.6156  3.9722
  176SAPE   H5Y20068   1.552   6.555   2.956 -0.1428 -4.2472  2.0574
  176SAPE   C3620069   1.549   6.489   3.155 -0.0124 -0.3485 -0.4567
  176SAPE   H6X20070   1.645   6.443   3.124 -1.0805 -2.1269 -1.2603
  176SAPE   H6Y20071   1.473   6.409   3.144 -0.7925  0.0251  1.6284
  176SAPE   C3720072   1.545   6.539   3.309  0.1732  0.2903 -0.4571
  176SAPE   H7X20073   1.448   6.592   3.322  0.6981  1.2374 -0.3062
  176SAPE   H7Y20074   1.629   6.610   3.322  0.1728  0.4859 -1.4811
  176SAPE   C3820075   1.561   6.428   3.410 -0.3226 -0.5216  0.3112
  176SAPE   H8X20076   1.649   6.365   3.387 -1.3479 -1.9490  0.1947
  176SAPE   H8Y20077   1.483   6.350   3.395 -0.3550 -0.4039 -0.1512
  176SAPE   C3920078   1.580   6.481   3.552  0.2171  0.1160  0.0989
  176SAPE   H9X20079   1.483   6.518   3.590 -0.0105 -2.7203  2.6903
  176SAPE   H9Y20080   1.650   6.566   3.566 -1.3129  1.1434  1.9648
  176SAPE  C31020081   1.622   6.358   3.632 -0.1715  0.7159 -0.1765
  176SAPE  H10X20082   1.731   6.343   3.612 -0.3155 -0.2605 -0.2650
  176SAPE  H10Y20083   1.562   6.276   3.588 -0.4846 -0.1080  1.6644
  176SAPE  C31120084   1.602   6.371   3.779 -0.6832  0.2611 -0.1896
  176SAPE  H11X20085   1.655   6.293   3.837  1.5879  1.8041 -0.0526
  176SAPE  H11Y20086   1.495   6.368   3.808 -0.5557 -2.4646  0.2797
  176SAPE  C31220087   1.648   6.505   3.844 -0.2664  0.6845  1.1260
  176SAPE  H12X20088   1.590   6.594   3.813  1.0106  1.4823  0.9298
  176SAPE  H12Y20089   1.753   6.516   3.808 -0.6460 -0.1869 -0.2955
  176SAPE  C31320090   1.650   6.503   3.992  0.6464  0.5387 -0.7705
  176SAPE  H13X20091   1.712   6.418   4.027  3.3382  1.6535 -2.5218
  176SAPE  H13Y20092   1.545   6.481   4.022  0.8573 -0.9918 -1.0878
  176SAPE  C31420093   1.700   6.626   4.064  0.1828  0.2532 -0.2194
  176SAPE  H14X20094   1.637   6.716   4.056 -0.6472 -0.0330  2.2922
  176SAPE  H14Y20095   1.802   6.646   4.023  0.7626  1.1631  1.5483
  176SAPE  C31520096   1.720   6.606   4.219 -0.8190 -0.6171  0.6393
  176SAPE  H15X20097   1.775   6.513   4.244 -0.6341 -1.1945 -1.7059
  176SAPE  H15Y20098   1.621   6.598   4.269 -0.6107  0.6927  1.2963
  176SAPE  C31620099   1.822   6.711   4.276 -0.2306  0.5541  0.5332
  176SAPE  H16X20100   1.770   6.809   4.261 -0.2365  0.5207  0.3259
  176SAPE  H16Y20101   1.917   6.713   4.218 -1.1159  0.6439 -0.9855
  176SAPE  C31720102   1.851   6.681   4.425  0.4256  0.0726 -0.4640
  176SAPE  H17X20103   1.907   6.586   4.439  0.6920  0.0396 -1.6314
  176SAPE  H17Y20104   1.759   6.675   4.486  1.2580  0.7969  0.9305
  176SAPE  C31820105   1.934   6.794   4.485 -0.1218  0.4235  0.3600
  176SAPE  H18X20106   1.982   6.763   4.580  0.8481 -0.5479 -0.4181
  176SAPE  H18Y20107   1.877   6.890   4.486 -1.6983 -0.4036 -2.1774
  176SAPE  H18Z20108   2.017   6.816   4.414 -0.1500  1.7961  0.7160
  177SAPE     N20109   2.406   4.729   2.094 -0.9434 -0.3793  0.2315
  177SAPE   HN120110   2.410   4.656   2.020  1.8131 -0.8537  0.7224
  177SAPE   HN220111   2.504   4.760   2.113 -0.7596 -0.3848 -0.6521
  177SAPE   HN320112   2.365   4.698   2.184  0.7586 -1.6429  0.6288
  177SAPE   C1220113   2.338   4.856   2.039 -0.0496  0.6967 -0.0911
  177SAPE  H12A20114   2.257   4.834   1.966  0.6643  3.7606 -1.9635
  177SAPE  H12B20115   2.418   4.920   1.997  1.6080 -2.1408 -1.5904
  177SAPE   C1120116   2.272   4.948   2.144  0.2929 -0.0129  0.0880
  177SAPE  H11A20117   2.345   4.970   2.224  1.0033 -1.3241 -0.1622
  177SAPE  H11B20118   2.187   4.895   2.193  0.1177  0.0267 -0.1731
  177SAPE     P20119   2.081   5.097   2.040  0.1678 -0.1896 -0.2848
  177SAPE   O1320120   2.078   5.222   1.958  0.4419  0.1350  0.6064
  177SAPE   O1420121   2.041   4.973   1.971 -0.2107  0.0414  0.4539
  177SAPE   O1220122   2.232   5.077   2.080 -0.0077 -0.1634 -0.1300
  177SAPE   O1120123   2.003   5.111   2.175 -0.4545  0.2861 -0.1283
  177SAPE    C120124   2.008   5.228   2.261  0.1394 -0.1227 -0.2479
  177SAPE    HA20125   2.045   5.318   2.209 -1.2803 -0.2164 -1.4921
  177SAPE    HB20126   1.908   5.240   2.309  0.8768  0.6626  1.1564
  177SAPE    C220127   2.113   5.200   2.387 -0.2676 -0.4967  0.2767
  177SAPE    HS20128   2.110   5.289   2.453  1.0180 -0.8573  0.8668
  177SAPE   O2120129   2.251   5.182   2.353 -0.1989  0.2849  0.0809
  177SAPE   C2120130   2.315   5.283   2.300 -0.5278  0.7179  1.0003
  177SAPE   O2220131   2.264   5.392   2.274  0.1791  0.5016  0.6103
  177SAPE   C2220132   2.460   5.252   2.280 -0.1600 -0.0995  0.2705
  177SAPE   H2R20133   2.470   5.168   2.208 -1.0299  0.5486 -0.6228
  177SAPE   H2S20134   2.525   5.334   2.244  2.8894 -2.3657  0.3000
  177SAPE    C320135   2.066   5.075   2.460  0.2009 -0.0770 -0.2912
  177SAPE    HX20136   2.115   4.989   2.409  2.1077  0.6788  0.1811
  177SAPE    HY20137   1.958   5.065   2.437  0.5112 -1.5060 -1.2768
  177SAPE   O3120138   2.101   5.082   2.597 -0.0112  0.1295  0.0460
  177SAPE   C3120139   2.216   5.038   2.641 -0.6227 -1.1021  0.0316
  177SAPE   O3220140   2.297   4.979   2.575  0.2302  0.7384  0.3253
  177SAPE   C3220141   2.242   5.071   2.787 -0.4841  0.0074 -0.2393
  177SAPE   H2X20142   2.168   5.013   2.846  0.6563  1.1657  2.4805
  177SAPE   H2Y20143   2.226   5.180   2.804 -1.4435 -0.2455  0.5898
  177SAPE   C2320144   2.532   5.207   2.412 -0.3268 -0.3205 -0.0050
  177SAPE   H3R20145   2.616   5.140   2.385 -0.6392 -0.8584  0.3274
  177SAPE   H3S20146   2.469   5.144   2.478 -1.7831  1.2036  0.1400
  177SAPE   C2420147   2.581   5.324   2.501  0.1234  0.4267 -0.1656
  177SAPE   H4R20148   2.666   5.371   2.447  0.2425  1.6720  1.0363
  177SAPE   H4S20149   2.633   5.276   2.588  0.9169 -2.7325 -2.2294
  177SAPE   C2520150   2.494   5.437   2.534  0.8251 -0.1342 -0.1532
  177SAPE   H5R20151   2.465   5.503   2.451 -1.0354 -0.2956  0.3305
  177SAPE   C2620152   2.458   5.489   2.655 -0.2291  0.5147  0.0949
  177SAPE   H6R20153   2.417   5.591   2.646  0.8023  0.9441  0.1078
  177SAPE   C2720154   2.498   5.439   2.791  0.1894  0.0292  0.2981
  177SAPE   H7R20155   2.476   5.330   2.790 -1.2339  0.3001 -0.8776
  177SAPE   H7S20156   2.429   5.463   2.875 -0.8213 -2.6130  0.2927
  177SAPE   C2820157   2.642   5.470   2.827  0.3317  0.6425 -0.2374
  177SAPE   H8R20158   2.691   5.562   2.792  1.1498  0.1307 -0.4603
  177SAPE   C2920159   2.720   5.381   2.902  0.1792 -0.1263 -0.4203
  177SAPE   H9R20160   2.818   5.422   2.930  0.2201  0.4416 -1.3730
  177SAPE  C21020161   2.676   5.255   2.968  0.4582 -0.2582  0.4144
  177SAPE  H10R20162   2.666   5.173   2.894  4.3230 -0.8447  0.3102
  177SAPE  H10S20163   2.584   5.275   3.027 -0.2723  0.4105 -0.9163
  177SAPE  C21120164   2.782   5.205   3.061 -0.4441  0.2164 -0.4237
  177SAPE  H11R20165   2.862   5.137   3.028  1.5423  1.6649  1.1941
  177SAPE  C21220166   2.799   5.246   3.185 -0.2442 -0.5871  0.2059
  177SAPE  H12R20167   2.872   5.183   3.239 -1.0910 -2.6710 -0.9614
  177SAPE  C21320168   2.716   5.351   3.268  0.1399  0.0651  0.4424
  177SAPE  H13R20169   2.702   5.440   3.204  0.7522 -1.3812 -1.8288
  177SAPE  H13S20170   2.782   5.401   3.342  2.5087 -0.2076 -1.3355
  177SAPE  C21420171   2.596   5.311   3.336 -0.1103 -0.0371  0.1771
  177SAPE  H14R20172   2.506   5.326   3.273 -0.4680  0.3620  0.7763
  177SAPE  C21520173   2.579   5.255   3.458  0.2160  0.2146 -0.4367
  177SAPE  H15R20174   2.478   5.257   3.500  0.8232  1.0585  1.0724
  177SAPE  C21620175   2.697   5.224   3.549  0.3183  0.2619 -0.6848
  177SAPE  H16R20176   2.792   5.263   3.507  1.9320 -0.1251  2.3356
  177SAPE  H16S20177   2.695   5.114   3.565  0.0423  0.0646 -1.9935
  177SAPE  C21720178   2.687   5.303   3.684  0.7071 -0.2571  0.0624
  177SAPE  H17R20179   2.669   5.410   3.660  0.0944 -0.6827 -1.5483
  177SAPE  H17S20180   2.781   5.293   3.742  0.9498  2.1406  0.1589
  177SAPE  C21820181   2.572   5.255   3.772 -0.1545  0.0151 -0.4586
  177SAPE  H18R20182   2.585   5.146   3.787  0.6309 -0.2325 -2.6296
  177SAPE  H18S20183   2.473   5.272   3.725 -1.3427  0.7014  2.0709
  177SAPE  C21920184   2.568   5.333   3.906 -0.8153  0.0813  0.1271
  177SAPE  H19R20185   2.614   5.432   3.886 -0.3265 -0.2211 -0.3036
  177SAPE  H19S20186   2.639   5.287   3.979 -0.9338  1.5891  1.2306
  177SAPE  C22020187   2.428   5.340   3.962 -0.3319  0.0276  0.6766
  177SAPE  H20R20188   2.359   5.377   3.883  1.3370 -0.3718 -1.0332
  177SAPE  H20S20189   2.436   5.396   4.058  0.7330 -0.4722  0.8880
  177SAPE  H20T20190   2.392   5.239   3.990  0.7045  0.0815  2.3088
  177SAPE   C3320191   2.385   5.037   2.835  0.4626  0.0473  0.2847
  177SAPE   H3X20192   2.463   5.094   2.781 -1.3176  3.1614  0.7960
  177SAPE   H3Y20193   2.412   4.929   2.828 -0.1395 -0.0479 -0.6780
  177SAPE   C3420194   2.395   5.082   2.977 -0.0773  0.6311 -0.2646
  177SAPE   H4X20195   2.390   5.193   2.968  0.3234  0.7423  0.7541
  177SAPE   H4Y20196   2.500   5.057   3.003 -0.3768  0.1379  0.5046
  177SAPE   C3520197   2.293   5.035   3.073  0.2688 -0.8485  0.1963
  177SAPE   H5X20198   2.280   4.926   3.088 -0.0608 -0.7848  0.3823
  177SAPE   H5Y20199   2.195   5.075   3.041  1.2527 -0.7952 -3.1617
  177SAPE   C3620200   2.305   5.108   3.206  0.3987  0.6898 -0.5419
  177SAPE   H6X20201   2.288   5.212   3.171  0.6284  0.5560 -1.0641
  177SAPE   H6Y20202   2.410   5.093   3.239  0.6418 -0.2518 -1.6744
  177SAPE   C3720203   2.211   5.055   3.316 -0.5575  0.5746  0.5848
  177SAPE   H7X20204   2.213   4.945   3.326  2.2728  0.4886 -0.0487
  177SAPE   H7Y20205   2.105   5.083   3.302 -1.0941 -1.5624  0.1207
  177SAPE   C3820206   2.266   5.097   3.453  0.5804 -0.4593  0.4131
  177SAPE   H8X20207   2.273   5.206   3.473  1.4121 -0.4388  0.0616
  177SAPE   H8Y20208   2.367   5.053   3.466  0.1965 -1.4797  0.0806
  177SAPE   C3920209   2.191   5.026   3.566  0.0593  0.4887  0.1045
  177SAPE   H9X20210   2.265   5.026   3.648 -1.0912  0.5274  1.1826
  177SAPE   H9Y20211   2.165   4.919   3.552 -0.6094  0.5341  0.9122
  177SAPE  C31020212   2.069   5.107   3.619 -0.7457  0.1600 -0.1016
  177SAPE  H10X20213   1.977   5.050   3.592 -0.3533 -0.1403 -0.8477
  177SAPE  H10Y20214   2.063   5.200   3.559 -1.3226  0.0892 -0.1527
  177SAPE  C31120215   2.073   5.151   3.768 -0.3477  0.1028  0.5332
  177SAPE  H11X20216   2.013   5.244   3.784  1.4287  1.2189  0.9532
  177SAPE  H11Y20217   2.177   5.167   3.802 -1.1279 -0.0725  3.2586
  177SAPE  C31220218   2.034   5.037   3.861  0.5084 -0.8923 -0.0429
  177SAPE  H12X20219   2.104   4.953   3.844 -0.2753 -1.1337 -2.3680
  177SAPE  H12Y20220   1.932   5.000   3.838 -1.1315  1.1189  3.1633
  177SAPE  C31320221   2.062   5.071   4.006 -0.1785  0.5583 -0.2901
  177SAPE  H13X20222   2.013   5.168   4.028 -0.6945  0.3190 -0.3686
  177SAPE  H13Y20223   2.173   5.083   4.012 -0.1785  0.1378  0.8270
  177SAPE  C31420224   2.024   4.962   4.098  0.7419  0.4574 -0.3969
  177SAPE  H14X20225   2.062   4.862   4.070 -0.7136 -1.1966  2.9871
  177SAPE  H14Y20226   1.914   4.949   4.095  1.0239 -2.5245 -0.4111
  177SAPE  C31520227   2.074   4.993   4.241  0.3059  0.2207 -0.2220
  177SAPE  H15X20228   2.039   5.095   4.268 -1.2034 -0.6305  1.2570
  177SAPE  H15Y20229   2.182   4.966   4.250 -0.1285 -1.8380 -0.6394
  177SAPE  C31620230   2.003   4.897   4.344 -0.6903  0.3737 -0.0951
  177SAPE  H16X20231   2.007   4.796   4.297  0.9941  1.2735 -1.9936
  177SAPE  H16Y20232   1.896   4.926   4.360 -0.3528  1.7298 -0.1940
  177SAPE  C31720233   2.074   4.909   4.484 -0.3719 -0.3032 -0.9173
  177SAPE  H17X20234   2.070   5.016   4.515  1.3055 -0.0406 -1.5024
  177SAPE  H17Y20235   2.180   4.886   4.462 -0.4588  0.1542 -1.8413
  177SAPE  C31820236   2.029   4.813   4.593  0.8123 -0.4734  0.7079
  177SAPE  H18X20237   2.024   4.707   4.559  0.7011 -0.3809  0.4411
  177SAPE  H18Y20238   1.925   4.839   4.623  0.4979 -0.2390 -0.5530
  177SAPE  H18Z20239   2.096   4.829   4.681 -0.5274  0.7193  1.5516
  178SAPE     N20240   1.409   1.750   2.173  0.0685  0.5321  0.2906
  178SAPE   HN120241   1.323   1.711   2.130 -0.0609  1.4961 -0.3528
  178SAPE   HN220242   1.413   1.851   2.147 -0.6304  0.0381 -2.0142
  178SAPE   HN320243   1.494   1.707   2.130 -0.1595 -0.4688  0.8197
  178SAPE   C1220244   1.423   1.737   2.323 -0.4116 -0.8156 -0.1255
  178SAPE  H12A20245   1.514   1.788   2.362 -1.3514  0.2304  0.7694
  178SAPE  H12B20246   1.430   1.628   2.344 -2.5555 -0.7655  1.2126
  178SAPE   C1120247   1.307   1.801   2.388  0.4646  0.4874 -0.7672
  178SAPE  H11A20248   1.292   1.735   2.476 -0.6540 -0.5929 -1.7323
  178SAPE  H11B20249   1.203   1.794   2.349  0.5938 -0.2298 -1.0069
  178SAPE     P20250   1.329   2.055   2.330  0.1155  0.0956 -0.0797
  178SAPE   O1320251   1.420   2.027   2.216  0.1118 -0.1185 -0.2223
  178SAPE   O1420252   1.193   2.086   2.292 -0.4473  0.6540  0.4265
  178SAPE   O1220253   1.333   1.935   2.432 -0.6687  0.0223  0.0591
  178SAPE   O1120254   1.391   2.168   2.426 -0.2975 -0.2711 -0.4303
  178SAPE    C120255   1.388   2.164   2.569 -0.2146  0.2299 -0.0038
  178SAPE    HA20256   1.334   2.256   2.599 -0.4492  0.1937 -0.3187
  178SAPE    HB20257   1.334   2.077   2.612  0.5190 -0.3360 -0.2176
  178SAPE    C220258   1.535   2.158   2.615 -0.0329  0.0390  0.1928
  178SAPE    HS20259   1.525   2.184   2.723  0.9160 -2.2085  0.8691
  178SAPE   O2120260   1.604   2.265   2.539  0.1189  0.6381 -0.2332
  178SAPE   C2120261   1.713   2.301   2.600 -0.1965 -0.0827 -0.0509
  178SAPE   O2220262   1.762   2.251   2.705 -0.0593 -0.5357  0.1226
  178SAPE   C2220263   1.781   2.415   2.525  0.4569  0.4804 -0.3326
  178SAPE   H2R20264   1.835   2.370   2.439 -0.2032 -1.8658  0.4089
  178SAPE   H2S20265   1.701   2.469   2.471 -1.0489 -1.4742 -0.1366
  178SAPE    C320266   1.597   2.016   2.611 -0.8281 -0.3434  0.0719
  178SAPE    HX20267   1.703   2.021   2.642 -0.4653  2.8397 -1.2629
  178SAPE    HY20268   1.598   1.985   2.504  2.2911 -0.3078  0.0174
  178SAPE   O3120269   1.517   1.928   2.681  0.1004 -0.1407 -0.2057
  178SAPE   C3120270   1.559   1.906   2.802 -0.0163  0.3028  0.1447
  178SAPE   O3220271   1.667   1.927   2.850  0.2757 -0.1741 -0.1749
  178SAPE   C3220272   1.448   1.824   2.871 -0.2190 -0.4360  0.4182
  178SAPE   H2X20273   1.395   1.757   2.799  0.8383 -0.9575  0.1053
  178SAPE   H2Y20274   1.383   1.907   2.906  2.7941  3.3424 -2.1221
  178SAPE   C2320275   1.864   2.509   2.607  0.1529  0.1922  0.5453
  178SAPE   H3R20276   1.952   2.550   2.552  0.5166 -0.5450  0.5676
  178SAPE   H3S20277   1.914   2.443   2.681 -2.1835 -1.5632  0.6650
  178SAPE   C2420278   1.779   2.631   2.657 -0.0540 -0.0024  0.2024
  178SAPE   H4R20279   1.742   2.668   2.558 -1.5979  1.3459  1.2298
  178SAPE   H4S20280   1.847   2.715   2.685 -0.5323  1.1990 -1.9627
  178SAPE   C2520281   1.655   2.613   2.742  0.0619 -0.6517 -0.0801
  178SAPE   H5R20282   1.569   2.629   2.676  0.8098  1.7167 -0.5899
  178SAPE   C2620283   1.651   2.562   2.869 -0.2581 -0.9211  0.3142
  178SAPE   H6R20284   1.550   2.556   2.912 -1.3418 -1.1730 -2.0724
  178SAPE   C2720285   1.774   2.544   2.957  0.0328  0.2527 -0.0264
  178SAPE   H7R20286   1.772   2.609   3.047  2.6956 -1.0351  1.0419
  178SAPE   H7S20287   1.866   2.580   2.906  1.0261 -0.9638  0.8614
  178SAPE   C2820288   1.804   2.401   2.992  0.2864  0.2732 -0.4914
  178SAPE   H8R20289   1.760   2.323   2.928 -1.1737  1.3319 -0.8380
  178SAPE   C2920290   1.859   2.360   3.103  0.0511 -0.8177  0.2818
  178SAPE   H9R20291   1.877   2.252   3.113  0.8450 -0.8529 -1.2447
  178SAPE  C21020292   1.916   2.438   3.216 -0.5611  0.2310 -0.4778
  178SAPE  H10R20293   1.961   2.530   3.174 -1.1359  1.0821  0.7000
  178SAPE  H10S20294   2.006   2.383   3.252 -0.5553 -0.5485 -1.6185
  178SAPE  C21120295   1.812   2.480   3.318  0.1957 -0.0047 -0.1305
  178SAPE  H11R20296   1.735   2.549   3.282  0.1999  0.7073  1.1823
  178SAPE  C21220297   1.789   2.423   3.436 -0.5951 -0.4692 -0.9518
  178SAPE  H12R20298   1.711   2.458   3.506  1.3373  2.1884  0.0067
  178SAPE  C21320299   1.885   2.333   3.511 -0.0393  0.3684 -0.3995
  178SAPE  H13R20300   1.911   2.384   3.606  1.1153  0.6578 -0.8543
  178SAPE  H13S20301   1.982   2.314   3.460  1.2044 -1.7609  2.5045
  178SAPE  C21420302   1.835   2.196   3.522 -0.3542  1.0053  0.1811
  178SAPE  H14R20303   1.826   2.143   3.425 -0.7148  0.0608  0.7145
  178SAPE  C21520304   1.819   2.123   3.634  0.2104 -0.7098 -0.1398
  178SAPE  H15R20305   1.774   2.023   3.631 -1.0500 -0.2118  0.7825
  178SAPE  C21620306   1.850   2.176   3.774  0.6320 -0.1431  0.7753
  178SAPE  H16R20307   1.810   2.097   3.843 -1.3889 -0.4240 -0.6214
  178SAPE  H16S20308   1.792   2.270   3.786  1.2185  0.3065  0.1448
  178SAPE  C21720309   1.997   2.186   3.809  0.4223 -0.3191 -0.2691
  178SAPE  H17R20310   2.046   2.263   3.745  0.1660  1.2063  1.3092
  178SAPE  H17S20311   2.064   2.099   3.793  2.6646  1.1421  0.5678
  178SAPE  C21820312   2.028   2.222   3.949  0.4170 -0.1319 -0.0986
  178SAPE  H18R20313   1.937   2.246   4.009 -1.1215 -0.4886 -2.1798
  178SAPE  H18S20314   2.100   2.306   3.951  1.0913 -0.7099  0.1604
  178SAPE  C21920315   2.107   2.112   4.024 -0.2503  0.2301 -0.1790
  178SAPE  H19R20316   2.206   2.092   3.979 -1.2029 -0.0574 -2.3006
  178SAPE  H19S20317   2.069   2.009   4.009  2.6329 -1.1977  1.5889
  178SAPE  C22020318   2.123   2.139   4.177  0.0893 -0.0844  0.2673
  178SAPE  H20R20319   2.191   2.227   4.182 -0.3653  0.3757 -1.0248
  178SAPE  H20S20320   2.179   2.050   4.212  1.4171  0.6063 -0.0393
  178SAPE  H20T20321   2.029   2.169   4.229  0.6701 -1.7919  2.4142
  178SAPE   C3320322   1.497   1.734   2.985 -0.4356  0.3198 -0.0850
  178SAPE   H3X20323   1.586   1.675   2.954 -0.7327  0.3730 -1.0411
  178SAPE   H3Y20324   1.429   1.650   3.006  1.4761 -0.7481  2.3647
  178SAPE   C3420325   1.511   1.817   3.117 -0.7118 -0.0614  0.4715
  178SAPE   H4X20326   1.412   1.863   3.133 -0.3032  0.1722  2.8053
  178SAPE   H4Y20327   1.584   1.900   3.108  0.3327 -1.0314 -0.4947
  178SAPE   C3520328   1.537   1.726   3.242  0.0657 -0.1378  0.3999
  178SAPE   H5X20329   1.644   1.697   3.253 -0.7360 -2.9601  1.7239
  178SAPE   H5Y20330   1.475   1.635   3.233 -0.9257  0.4810  0.8310
  178SAPE   C3620331   1.509   1.820   3.360 -0.4655  0.5578 -0.5912
  178SAPE   H6X20332   1.412   1.875   3.352 -0.2125  0.9497 -0.9681
  178SAPE   H6Y20333   1.598   1.886   3.365  2.1726 -2.6858 -1.4379
  178SAPE   C3720334   1.505   1.738   3.493  0.0784 -0.6319  0.0369
  178SAPE   H7X20335   1.605   1.691   3.504  2.4052  3.3753 -1.6081
  178SAPE   H7Y20336   1.419   1.669   3.489  0.7661 -1.4645 -0.7332
  178SAPE   C3820337   1.482   1.828   3.606  0.7001  0.7763 -0.1163
  178SAPE   H8X20338   1.400   1.903   3.605  1.3853  1.5630  0.6808
  178SAPE   H8Y20339   1.563   1.903   3.620  1.2913  0.2539 -0.6956
  178SAPE   C3920340   1.491   1.748   3.736 -0.0114  0.1995 -0.8080
  178SAPE   H9X20341   1.582   1.684   3.730 -0.1885 -0.1639  0.2897
  178SAPE   H9Y20342   1.402   1.689   3.765  0.0751  1.2867  1.9226
  178SAPE  C31020343   1.502   1.849   3.855 -0.1503  0.1406 -0.2130
  178SAPE  H10X20344   1.414   1.916   3.847 -0.8338 -0.8390 -1.2396
  178SAPE  H10Y20345   1.590   1.913   3.830 -0.6478  1.0042  0.2107
  178SAPE  C31120346   1.517   1.790   3.987  0.1806  0.1390 -0.7471
  178SAPE  H11X20347   1.557   1.688   3.971  0.7066  0.4390 -1.4262
  178SAPE  H11Y20348   1.414   1.782   4.028  0.4006 -0.2351 -0.2604
  178SAPE  C31220349   1.596   1.868   4.086  0.7453 -0.1591  0.0973
  178SAPE  H12X20350   1.702   1.871   4.052  0.4586  0.6644 -0.7658
  178SAPE  H12Y20351   1.587   1.825   4.188 -2.5329  1.4074  0.5738
  178SAPE  C31320352   1.544   2.009   4.098  0.0037 -0.1031  0.6362
  178SAPE  H13X20353   1.439   2.011   4.133  0.4502 -0.1855  2.0274
  178SAPE  H13Y20354   1.545   2.058   3.998  0.1769 -1.0980  0.1372
  178SAPE  C31420355   1.641   2.088   4.185 -0.2123 -0.7481  0.5857
  178SAPE  H14X20356   1.746   2.052   4.185  0.1141  0.1711  0.0372
  178SAPE  H14Y20357   1.602   2.070   4.288 -1.6456 -1.8142 -0.1120
  178SAPE  C31520358   1.646   2.236   4.152  0.0942 -0.2412 -0.1792
  178SAPE  H15X20359   1.539   2.264   4.140 -0.9226 -3.1383  1.1342
  178SAPE  H15Y20360   1.697   2.248   4.054  0.3036 -0.0178 -0.0440
  178SAPE  C31620361   1.730   2.322   4.254  0.0574 -0.4208  0.9082
  178SAPE  H16X20362   1.840   2.309   4.238  0.2864 -0.3521  2.3080
  178SAPE  H16Y20363   1.703   2.297   4.358 -1.8713  1.9442  1.0416
  178SAPE  C31720364   1.695   2.471   4.239  0.1025 -0.7236  0.3260
  178SAPE  H17X20365   1.739   2.524   4.326 -1.1871  1.3705 -0.2159
  178SAPE  H17Y20366   1.584   2.477   4.246  0.0677  0.1744 -0.7359
  178SAPE  C31820367   1.749   2.552   4.121  0.7646  0.5245  0.1573
  178SAPE  H18X20368   1.763   2.661   4.141 -1.4469  0.7689  0.6017
  178SAPE  H18Y20369   1.680   2.548   4.034  0.4188  2.6738  0.2759
  178SAPE  H18Z20370   1.845   2.508   4.087  0.0115 -0.9699 -0.1319
  179SAPE     N20371   0.772   5.641   1.948 -0.1814 -0.5339  0.3519
  179SAPE   HN120372   0.843   5.658   2.022 -0.3094  2.2140 -0.0520
  179SAPE   HN220373   0.765   5.539   1.930 -0.7741 -0.8554  2.2011
  179SAPE   HN320374   0.808   5.692   1.865 -2.7480 -0.4224 -0.7940
  179SAPE   C1220375   0.636   5.696   1.980 -0.4359 -0.0568  0.5892
  179SAPE  H12A20376   0.599   5.628   2.060 -2.0510 -0.5796 -0.5489
  179SAPE  H12B20377   0.568   5.686   1.892 -1.9494 -0.2308  1.7271
  179SAPE   C1120378   0.641   5.840   2.032  1.0326 -0.6047 -0.1397
  179SAPE  H11A20379   0.534   5.851   2.059  0.8270  1.3658 -1.5186
  179SAPE  H11B20380   0.665   5.926   1.965 -1.5902  0.7017  0.4557
  179SAPE     P20381   0.677   5.928   2.268 -0.3877 -0.2294 -0.1626
  179SAPE   O1320382   0.796   5.967   2.344  0.0430  0.5634 -0.2185
  179SAPE   O1420383   0.593   6.039   2.221 -0.0064  0.0992 -0.7527
  179SAPE   O1220384   0.730   5.845   2.145 -0.4154  0.3407 -0.6208
  179SAPE   O1120385   0.582   5.830   2.354  0.2684 -0.5287 -0.1705
  179SAPE    C120386   0.564   5.693   2.329  0.8263 -0.0884  0.4666
  179SAPE    HA20387   0.470   5.681   2.271  0.3760 -1.1895  1.3623
  179SAPE    HB20388   0.648   5.647   2.273 -0.1061  0.5091 -1.5189
  179SAPE    C220389   0.557   5.613   2.467 -0.8099  0.5266 -0.0764
  179SAPE    HS20390   0.524   5.511   2.438  2.4872 -0.0716 -2.2743
  179SAPE   O2120391   0.477   5.689   2.561 -0.1056  0.2130  0.3924
  179SAPE   C2120392   0.374   5.608   2.603  0.8248 -0.4725  0.4694
  179SAPE   O2220393   0.352   5.492   2.568  0.1605  0.5718 -0.5185
  179SAPE   C2220394   0.288   5.689   2.693  0.7582  0.6792  0.9814
  179SAPE   H2R20395   0.357   5.744   2.761  0.4445  2.5317 -0.1211
  179SAPE   H2S20396   0.233   5.760   2.628  3.5118 -0.5995 -3.1688
  179SAPE    C320397   0.703   5.587   2.521 -0.4748  0.2015 -0.3298
  179SAPE    HX20398   0.739   5.681   2.569 -1.7205  0.8838 -0.6858
  179SAPE    HY20399   0.774   5.550   2.444  0.4300 -2.3242  1.5753
  179SAPE   O3120400   0.697   5.471   2.606 -0.0272 -0.3123  0.2081
  179SAPE   C3120401   0.805   5.440   2.676  0.2149 -0.1414  0.1839
  179SAPE   O3220402   0.916   5.491   2.672 -0.1162 -0.2121  0.0986
  179SAPE   C3220403   0.768   5.330   2.772 -0.0564  0.7316 -0.0847
  179SAPE   H2X20404   0.854   5.295   2.833  1.4953  3.0679 -0.7984
  179SAPE   H2Y20405   0.716   5.254   2.710  1.0411 -0.2536  0.1817
  179SAPE   C2320406   0.185   5.602   2.766 -0.2137  0.2185 -0.2809
  179SAPE   H3R20407   0.111   5.561   2.695  0.3795  0.2478 -0.9260
  179SAPE   H3S20408   0.128   5.667   2.836 -1.6447 -1.0877 -0.1919
  179SAPE   C2420409   0.245   5.501   2.862 -0.2569  0.3901 -0.0588
  179SAPE   H4R20410   0.325   5.554   2.917  1.6113 -3.6634  1.4627
  179SAPE   H4S20411   0.290   5.422   2.798  1.2057  1.8012 -0.8788
  179SAPE   C2520412   0.147   5.435   2.957 -0.5155 -0.1103 -0.5321
  179SAPE   H5R20413   0.081   5.359   2.914 -1.1154  0.1093 -0.0122
  179SAPE   C2620414   0.130   5.460   3.087 -0.6291 -0.7602 -0.0794
  179SAPE   H6R20415   0.051   5.405   3.139  1.6311 -4.5858 -0.3251
  179SAPE   C2720416   0.200   5.577   3.160  0.0540 -0.0815 -0.0565
  179SAPE   H7R20417   0.124   5.657   3.172 -0.5403 -0.5155 -0.8555
  179SAPE   H7S20418   0.291   5.616   3.108  0.0640 -0.7624 -0.5586
  179SAPE   C2820419   0.261   5.525   3.287 -0.4071  0.4804  0.1719
  179SAPE   H8R20420   0.299   5.423   3.278  1.4898  1.1789 -0.1352
  179SAPE   C2920421   0.282   5.588   3.405  0.2150 -0.1183  0.1461
  179SAPE   H9R20422   0.344   5.535   3.478 -0.5893  0.8629  1.5768
  179SAPE  C21020423   0.244   5.735   3.432  0.0340 -0.5860  1.0290
  179SAPE  H10R20424   0.164   5.732   3.509  0.9248 -0.8105  1.9615
  179SAPE  H10S20425   0.182   5.766   3.345  0.8805 -0.9472  0.2791
  179SAPE  C21120426   0.364   5.829   3.468  0.7678 -0.6091 -0.0940
  179SAPE  H11R20427   0.424   5.868   3.385  0.9614 -1.2303 -0.2447
  179SAPE  C21220428   0.399   5.860   3.596 -0.4960  0.8858 -0.1202
  179SAPE  H12R20429   0.486   5.927   3.611 -1.5545  2.4281 -0.5557
  179SAPE  C21320430   0.344   5.809   3.722  0.2251  0.9853 -0.3844
  179SAPE  H13R20431   0.237   5.780   3.707  0.7531 -0.8551 -0.8833
  179SAPE  H13S20432   0.348   5.890   3.798 -0.9345  0.4895  0.2277
  179SAPE  C21420433   0.413   5.681   3.772 -0.1113  0.2700 -0.0908
  179SAPE  H14R20434   0.411   5.592   3.707  2.1383  0.1634 -0.1011
  179SAPE  C21520435   0.448   5.655   3.902 -0.0127  0.1101 -0.0828
  179SAPE  H15R20436   0.497   5.559   3.927  0.9960  0.7155  0.3453
  179SAPE  C21620437   0.449   5.750   4.016  0.4529  0.1035 -0.2457
  179SAPE  H16R20438   0.420   5.855   3.993  0.1704  0.7122  2.4742
  179SAPE  H16S20439   0.551   5.761   4.059  0.3032  2.2150 -0.3199
  179SAPE  C21720440   0.344   5.712   4.125 -0.4822  0.6568 -0.1893
  179SAPE  H17R20441   0.252   5.676   4.072 -1.0439  0.0747  1.1520
  179SAPE  H17S20442   0.314   5.806   4.176  1.2155  1.6319 -0.9050
  179SAPE  C21820443   0.391   5.596   4.214  0.1139  0.0341  0.4556
  179SAPE  H18R20444   0.466   5.648   4.278  0.0164 -1.7964  2.1335
  179SAPE  H18S20445   0.440   5.533   4.138  0.1130 -2.0145  2.0508
  179SAPE  C21920446   0.282   5.529   4.293 -0.5943 -0.0754 -0.6225
  179SAPE  H19R20447   0.245   5.434   4.248  0.4865 -1.9013  2.0941
  179SAPE  H19S20448   0.197   5.600   4.305 -1.3201 -0.8553 -1.0129
  179SAPE  C22020449   0.326   5.490   4.436  0.0825 -0.0980  0.1736
  179SAPE  H20R20450   0.418   5.428   4.429 -0.1871 -0.2706 -3.0501
  179SAPE  H20S20451   0.247   5.442   4.498 -0.1298  1.8192  1.4961
  179SAPE  H20T20452   0.361   5.574   4.500  0.5170 -1.0612  1.2407
  179SAPE   C3320453   0.659   5.372   2.877 -0.0586  0.0727 -0.6361
  179SAPE   H3X20454   0.621   5.284   2.934 -0.2432  2.3658  3.1069
  179SAPE   H3Y20455   0.568   5.415   2.829  0.4088  1.9721  0.0877
  179SAPE   C3420456   0.712   5.464   2.990  0.4099  0.2271  0.3279
  179SAPE   H4X20457   0.775   5.551   2.958  0.8320 -0.3703 -0.5101
  179SAPE   H4Y20458   0.773   5.400   3.056  1.0917 -1.3007 -1.6672
  179SAPE   C3520459   0.597   5.523   3.072 -0.0736  0.2502 -0.0566
  179SAPE   H5X20460   0.515   5.453   3.100 -1.4236  1.6136 -0.4757
  179SAPE   H5Y20461   0.543   5.589   3.001 -0.2852  1.2893  1.0508
  179SAPE   C3620462   0.642   5.595   3.200  0.0420  0.0917 -0.5579
  179SAPE   H6X20463   0.557   5.657   3.236  0.1822  2.8371 -4.3276
  179SAPE   H6Y20464   0.718   5.670   3.170  1.9764 -1.6191 -0.2024
  179SAPE   C3720465   0.689   5.508   3.316  0.7130 -0.2713  0.1990
  179SAPE   H7X20466   0.796   5.480   3.303  1.5089  2.2292  0.8847
  179SAPE   H7Y20467   0.629   5.415   3.324  0.4160 -0.2081 -1.0643
  179SAPE   C3820468   0.681   5.578   3.454 -0.3649 -0.4076  0.5089
  179SAPE   H8X20469   0.576   5.599   3.484 -0.3999  0.0556  0.0648
  179SAPE   H8Y20470   0.726   5.678   3.432 -2.2937  0.2486 -0.7068
  179SAPE   C3920471   0.748   5.492   3.561 -0.0875  0.4093  0.4723
  179SAPE   H9X20472   0.845   5.453   3.523  0.6343 -0.6144  3.1950
  179SAPE   H9Y20473   0.678   5.408   3.579 -1.3334  1.4376  0.5198
  179SAPE  C31020474   0.786   5.558   3.694  0.0887 -0.1602  0.7784
  179SAPE  H10X20475   0.709   5.632   3.726  0.6850  1.2306 -0.8686
  179SAPE  H10Y20476   0.878   5.617   3.678 -0.4669  0.9026  1.3476
  179SAPE  C31120477   0.827   5.453   3.791 -0.0060  0.0788 -0.7428
  179SAPE  H11X20478   0.928   5.413   3.768  1.1658  2.9436 -1.0020
  179SAPE  H11Y20479   0.749   5.375   3.803 -0.2479  0.5485  1.1490
  179SAPE  C31220480   0.828   5.499   3.934 -0.5810  0.6800  0.0491
  179SAPE  H12X20481   0.733   5.548   3.962  0.3848  2.7277 -0.0924
  179SAPE  H12Y20482   0.919   5.560   3.949 -0.3534  0.1324  0.9945
  179SAPE  C31320483   0.848   5.388   4.040  0.6687 -0.1580 -1.0036
  179SAPE  H13X20484   0.922   5.311   4.010 -0.4930 -1.5067 -0.5504
  179SAPE  H13Y20485   0.757   5.325   4.050  0.5810  0.0473 -0.4509
  179SAPE  C31420486   0.881   5.435   4.183  0.2782 -0.3017  0.0805
  179SAPE  H14X20487   0.978   5.489   4.184 -0.6046  1.3477 -0.1560
  179SAPE  H14Y20488   0.888   5.343   4.245 -0.4314 -0.9227 -0.7256
  179SAPE  C31520489   0.772   5.534   4.245  0.6945 -0.0468  0.5451
  179SAPE  H15X20490   0.670   5.493   4.229  0.9672 -1.1322  1.4752
  179SAPE  H15Y20491   0.787   5.638   4.208  1.1403 -0.3265 -0.0663
  179SAPE  C31620492   0.781   5.542   4.400  0.0876  0.5241 -0.8752
  179SAPE  H16X20493   0.787   5.434   4.426 -1.8438  1.1134  2.5637
  179SAPE  H16Y20494   0.684   5.579   4.440  0.0316  1.3109 -1.6955
  179SAPE  C31720495   0.898   5.614   4.456  0.4703 -0.1905 -0.9151
  179SAPE  H17X20496   0.888   5.724   4.443  1.2441 -0.1559 -1.2442
  179SAPE  H17Y20497   0.993   5.577   4.412  0.6337 -0.2694 -0.5050
  179SAPE  C31820498   0.911   5.592   4.611  0.2955  0.4311  0.1557
  179SAPE  H18X20499   0.992   5.654   4.655  1.7034  0.7760 -2.6516
  179SAPE  H18Y20500   0.932   5.487   4.642  1.8496  0.7978  0.4263
  179SAPE  H18Z20501   0.809   5.615   4.647 -1.2690 -1.6573 -2.5591
  180SAPE     N20502   0.986   6.001   2.151  0.6921 -0.2566 -0.4978
  180SAPE   HN120503   0.989   5.910   2.101  0.5096 -0.6971  0.2775
  180SAPE   HN220504   1.077   6.020   2.199 -0.2781  0.9712  0.9514
  180SAPE   HN320505   0.910   5.996   2.221  0.2715 -1.5787 -1.0164
  180SAPE   C1220506   0.974   6.123   2.056  0.9516  0.5480  0.3133
  180SAPE  H12A20507   0.991   6.207   2.126  0.5379  0.4209  0.5713
  180SAPE  H12B20508   0.876   6.123   2.003  1.9265  0.6837 -1.6082
  180SAPE   C1120509   1.087   6.116   1.962 -0.6448 -0.4303 -0.1708
  180SAPE  H11A20510   1.083   6.206   1.897  0.3936 -0.2662 -0.0259
  180SAPE  H11B20511   1.083   6.026   1.897  1.9525  1.5297 -3.3927
  180SAPE     P20512   1.350   6.145   1.945 -0.0940 -0.0172  0.1003
  180SAPE   O1320513   1.315   6.182   1.807 -0.1810 -0.0618 -0.5824
  180SAPE   O1420514   1.435   6.239   2.020 -0.2670 -0.7977 -0.4693
  180SAPE   O1220515   1.213   6.124   2.026 -0.6291  0.0014  0.0274
  180SAPE   O1120516   1.410   6.000   1.951 -0.4356 -0.2629 -0.2026
  180SAPE    C120517   1.365   5.911   2.050 -0.4084  0.1377 -0.1531
  180SAPE    HA20518   1.254   5.904   2.056 -0.4150  0.5790  0.3646
  180SAPE    HB20519   1.408   5.810   2.036 -0.4294  0.0818  0.1776
  180SAPE    C220520   1.410   5.945   2.201  0.4914  0.1633 -0.1616
  180SAPE    HS20521   1.347   6.031   2.229  0.4668  0.1357 -0.1315
  180SAPE   O2120522   1.550   5.976   2.203 -0.4798 -0.0730 -0.2029
  180SAPE   C2120523   1.588   6.051   2.305 -0.3817 -0.2703  0.6639
  180SAPE   O2220524   1.521   6.112   2.382  0.5284  0.1004 -0.1869
  180SAPE   C2220525   1.737   6.038   2.320 -0.0188 -0.9622 -0.6613
  180SAPE   H2R20526   1.755   5.930   2.336  1.2070 -0.5361  1.0434
  180SAPE   H2S20527   1.788   6.076   2.229  0.8992 -1.8041 -0.5096
  180SAPE    C320528   1.367   5.826   2.294  1.1947  0.3616 -0.4140
  180SAPE    HX20529   1.437   5.740   2.282  2.2450  0.8730  1.5603
  180SAPE    HY20530   1.274   5.793   2.243  1.9287  0.0320 -1.5907
  180SAPE   O3120531   1.356   5.856   2.435  0.0756 -0.3892 -0.4581
  180SAPE   C3120532   1.240   5.912   2.468 -0.0138 -0.4939 -0.0444
  180SAPE   O3220533   1.163   5.951   2.384 -0.1640 -0.4340  0.0934
  180SAPE   C3220534   1.223   5.897   2.620  0.7665  0.1828 -0.0252
  180SAPE   H2X20535   1.283   5.978   2.665  2.6976 -0.8817 -0.5885
  180SAPE   H2Y20536   1.266   5.798   2.648 -0.8778 -0.0307  2.0326
  180SAPE   C2320537   1.782   6.122   2.449 -0.4335  0.2939 -0.1719
  180SAPE   H3R20538   1.734   6.223   2.454 -2.3663 -0.3764 -2.8241
  180SAPE   H3S20539   1.892   6.126   2.454 -0.4085 -0.3106 -0.1437
  180SAPE   C2420540   1.743   6.041   2.574  0.1865 -0.0340 -0.2691
  180SAPE   H4R20541   1.812   5.954   2.579 -1.7138 -1.5506  0.9780
  180SAPE   H4S20542   1.637   6.007   2.566 -0.3776  1.3222  0.8977
  180SAPE   C2520543   1.762   6.116   2.706 -0.1277  1.1857  0.5125
  180SAPE   H5R20544   1.717   6.215   2.693 -1.0133  0.7333  0.0120
  180SAPE   C2620545   1.852   6.091   2.797 -0.1025  0.3177 -0.3768
  180SAPE   H6R20546   1.840   6.161   2.881  0.6164  0.8887 -0.7392
  180SAPE   C2720547   1.940   5.968   2.811 -0.5019 -0.0985  0.2953
  180SAPE   H7R20548   2.046   5.999   2.818 -0.3839 -0.6593  1.1122
  180SAPE   H7S20549   1.946   5.908   2.718  0.2111  1.1503 -0.4953
  180SAPE   C2820550   1.909   5.879   2.920 -0.1564 -0.1243  0.0923
  180SAPE   H8R20551   1.878   5.778   2.890  1.1626 -1.4572  2.9118
  180SAPE   C2920552   1.927   5.908   3.054 -0.1419 -0.1241 -0.2864
  180SAPE   H9R20553   1.907   5.828   3.126  0.9456 -1.1822 -1.1199
  180SAPE  C21020554   1.984   6.033   3.113 -0.6118 -0.1485  0.0239
  180SAPE  H10R20555   2.029   6.101   3.039 -1.2249  1.0257  0.7025
  180SAPE  H10S20556   2.059   5.993   3.185 -0.7933  2.1314  1.5996
  180SAPE  C21120557   1.876   6.099   3.189  0.7453 -0.2237  0.3215
  180SAPE  H11R20558   1.775   6.101   3.146  1.5767  1.5861 -1.6740
  180SAPE  C21220559   1.898   6.153   3.312 -0.1590  0.3646 -0.5169
  180SAPE  H12R20560   1.825   6.226   3.349  0.4208  1.4957 -1.5195
  180SAPE  C21320561   2.037   6.171   3.385 -0.8434  0.3786 -0.0036
  180SAPE  H13R20562   2.026   6.257   3.454  1.3931  0.8717 -0.1812
  180SAPE  H13S20563   2.112   6.199   3.308 -1.3424 -1.6526 -1.3400
  180SAPE  C21420564   2.076   6.052   3.475  0.2635 -0.8108  0.4779
  180SAPE  H14R20565   2.103   5.962   3.419 -0.4391 -1.8700  1.7840
  180SAPE  C21520566   2.071   6.055   3.613 -0.2052 -0.5368 -0.2639
  180SAPE  H15R20567   2.083   5.963   3.673 -0.2655 -0.8440 -0.7217
  180SAPE  C21620568   2.020   6.175   3.691  0.8046  0.5530  0.5825
  180SAPE  H16R20569   1.916   6.206   3.665 -0.0800 -1.0937  1.9330
  180SAPE  H16S20570   2.089   6.261   3.684  0.5625  0.6377 -1.6293
  180SAPE  C21720571   1.998   6.133   3.838  0.2839 -0.5818 -0.1941
  180SAPE  H17R20572   2.087   6.080   3.879 -0.9058 -0.8814  2.1880
  180SAPE  H17S20573   1.914   6.060   3.839 -0.3673  0.1498  0.5287
  180SAPE  C21820574   1.959   6.252   3.934 -0.1470  0.5142  0.0401
  180SAPE  H18R20575   1.878   6.316   3.891 -2.1757 -2.5727 -1.0513
  180SAPE  H18S20576   2.047   6.317   3.956 -1.1705  2.4973 -1.3488
  180SAPE  C21920577   1.900   6.207   4.070 -0.6773  0.2898  0.3374
  180SAPE  H19R20578   1.803   6.157   4.048 -0.0741 -1.0846  0.6948
  180SAPE  H19S20579   1.880   6.300   4.127  0.6703  0.7097  0.1399
  180SAPE  C22020580   1.993   6.137   4.168 -0.2421  0.3985  0.3459
  180SAPE  H20R20581   2.080   6.197   4.203  0.1793 -0.5237  0.9393
  180SAPE  H20S20582   2.036   6.043   4.126  0.3442 -0.3296  2.4074
  180SAPE  H20T20583   1.951   6.103   4.265 -1.9879  2.6399  0.4651
  180SAPE   C3320584   1.072   5.910   2.650  0.2524  0.9112 -0.3762
  180SAPE   H3X20585   1.019   5.814   2.634 -0.8454  1.5942 -0.9232
  180SAPE   H3Y20586   1.026   5.990   2.588  1.4439  1.0391 -1.1250
  180SAPE   C3420587   1.050   5.931   2.805  0.4446  0.0956  0.1030
  180SAPE   H4X20588   0.940   5.925   2.823  0.2136  0.7102 -1.0186
  180SAPE   H4Y20589   1.079   6.033   2.835 -1.4696  0.4882  0.7907
  180SAPE   C3520590   1.123   5.812   2.876  0.1155 -0.1272  0.3974
  180SAPE   H5X20591   1.234   5.818   2.881  0.1258  0.3477 -0.2634
  180SAPE   H5Y20592   1.091   5.715   2.833 -0.0021  0.8973 -1.9741
  180SAPE   C3620593   1.075   5.807   3.023  0.6307  0.1322 -0.2013
  180SAPE   H6X20594   0.969   5.776   3.028 -0.0443  2.2240 -0.2332
  180SAPE   H6Y20595   1.060   5.907   3.070  0.3846 -0.0608  0.1238
  180SAPE   C3720596   1.163   5.721   3.115  0.1167  0.0767 -0.4609
  180SAPE   H7X20597   1.267   5.757   3.127 -0.0815 -0.0364  2.3056
  180SAPE   H7Y20598   1.167   5.617   3.077  0.7232  0.8483 -2.6967
  180SAPE   C3820599   1.107   5.711   3.260  0.2785  0.4127  0.8718
  180SAPE   H8X20600   1.021   5.641   3.258  2.0132 -1.9392 -2.3803
  180SAPE   H8Y20601   1.078   5.813   3.293 -0.8204  0.4696 -0.1796
  180SAPE   C3920602   1.202   5.652   3.350 -0.4911  0.6963 -0.0284
  180SAPE   H9X20603   1.297   5.710   3.356 -1.2793  2.1592 -1.0770
  180SAPE   H9Y20604   1.218   5.545   3.327  0.9929  1.1860 -1.4695
  180SAPE  C31020605   1.156   5.658   3.498 -0.1180  0.1468  0.5405
  180SAPE  H10X20606   1.048   5.637   3.509  0.0325 -0.7604  0.3624
  180SAPE  H10Y20607   1.172   5.760   3.539  0.4611  0.7421 -1.0512
  180SAPE  C31120608   1.226   5.554   3.585  0.2490 -0.1886  0.8342
  180SAPE  H11X20609   1.336   5.565   3.572 -0.0582  1.0399 -1.1866
  180SAPE  H11Y20610   1.199   5.454   3.544  0.6054 -0.6043  1.5825
  180SAPE  C31220611   1.178   5.550   3.736 -0.2995 -0.0336  0.3112
  180SAPE  H12X20612   1.118   5.457   3.748 -2.0805  1.1303  0.8051
  180SAPE  H12Y20613   1.116   5.635   3.772  1.4771  0.7204  1.6933
  180SAPE  C31320614   1.295   5.552   3.836  0.1850  0.1983 -0.0583
  180SAPE  H13X20615   1.342   5.651   3.819  0.9403 -0.0314  0.6113
  180SAPE  H13Y20616   1.373   5.476   3.815  1.6552  0.6630  3.2001
  180SAPE  C31420617   1.258   5.527   3.984  0.4901  0.8368  0.1869
  180SAPE  H14X20618   1.215   5.424   3.988  1.8300  0.2748  0.5814
  180SAPE  H14Y20619   1.178   5.597   4.015 -0.7765  0.6924 -2.4421
  180SAPE  C31520620   1.378   5.534   4.083  1.0421 -0.5478  0.0013
  180SAPE  H15X20621   1.401   5.640   4.105 -3.0149  0.1454  1.8898
  180SAPE  H15Y20622   1.462   5.477   4.039  2.0713  1.2052 -0.3833
  180SAPE  C31620623   1.342   5.457   4.213 -0.2682 -0.1184 -0.3353
  180SAPE  H16X20624   1.308   5.359   4.172 -1.6850 -0.1754  0.9143
  180SAPE  H16Y20625   1.254   5.501   4.264  1.5152  1.9619  1.1253
  180SAPE  C31720626   1.449   5.435   4.327 -0.5565 -0.1987 -0.3033
  180SAPE  H17X20627   1.527   5.358   4.308  1.4806  1.4877  0.8534
  180SAPE  H17Y20628   1.388   5.390   4.409 -0.2313  0.5104  0.3467
  180SAPE  C31820629   1.510   5.569   4.380  0.2343  0.3165  0.2906
  180SAPE  H18X20630   1.427   5.631   4.422  0.7588  1.5416 -0.4569
  180SAPE  H18Y20631   1.561   5.622   4.298 -2.1582  0.7485 -1.0086
  180SAPE  H18Z20632   1.577   5.544   4.465  0.5944 -1.5893 -0.5008
  181SAPE     N20633   4.240   6.765   2.127  0.4800  0.0507 -0.1875
  181SAPE   HN120634   4.154   6.709   2.145 -0.1683 -0.0526 -3.0512
  181SAPE   HN220635   4.213   6.864   2.114 -1.5262 -0.4681 -0.3214
  181SAPE   HN320636   4.292   6.730   2.044 -0.4409 -1.3055 -0.2297
  181SAPE   C1220637   4.337   6.747   2.234  0.0397  0.3781 -0.3970
  181SAPE  H12A20638   4.302   6.783   2.333  0.9301  0.3165 -0.0501
  181SAPE  H12B20639   4.428   6.803   2.203  0.7306 -0.8671 -0.7118
  181SAPE   C1120640   4.360   6.592   2.250 -1.2818 -0.1921 -0.7607
  181SAPE  H11A20641   4.448   6.585   2.317  0.5866 -3.8908 -3.2553
  181SAPE  H11B20642   4.388   6.545   2.153  0.9617 -0.5459  0.0078
  181SAPE     P20643   4.260   6.370   2.330 -0.0531  0.1111  0.1877
  181SAPE   O1320644   4.186   6.313   2.213  0.2255 -0.0797 -0.0008
  181SAPE   O1420645   4.404   6.336   2.353 -0.3331  0.3267 -0.1441
  181SAPE   O1220646   4.252   6.523   2.311 -0.2631  0.2206  0.3505
  181SAPE   O1120647   4.181   6.353   2.466 -0.4265  0.5734  0.1351
  181SAPE    C120648   4.049   6.397   2.484  0.2496 -0.4843  0.5374
  181SAPE    HA20649   4.051   6.507   2.503  2.0821 -0.1505 -1.2402
  181SAPE    HB20650   3.986   6.375   2.396  1.1388 -0.9868  0.0107
  181SAPE    C220651   3.975   6.324   2.604  0.3588  0.2925 -0.3986
  181SAPE    HS20652   3.877   6.370   2.629  0.0043 -1.0077  0.7452
  181SAPE   O2120653   4.055   6.325   2.726  0.0882  0.1604  0.4063
  181SAPE   C2120654   4.073   6.443   2.783 -0.8770 -0.1997  0.5870
  181SAPE   O2220655   4.016   6.548   2.760  0.3059  0.1064  0.5404
  181SAPE   C2220656   4.181   6.423   2.888 -0.0709 -0.3141  0.0349
  181SAPE   H2R20657   4.165   6.324   2.936 -0.8372 -0.0336  0.3925
  181SAPE   H2S20658   4.281   6.420   2.840 -0.4454 -0.6552 -0.7424
  181SAPE    C320659   3.943   6.181   2.565 -0.1070  0.6021 -0.1214
  181SAPE    HX20660   4.039   6.133   2.535 -1.5235 -1.5569 -1.5024
  181SAPE    HY20661   3.869   6.192   2.483 -0.4409  2.1324  0.3622
  181SAPE   O3120662   3.891   6.099   2.674 -0.0346 -0.2802 -0.4460
  181SAPE   C3120663   3.971   6.008   2.731  0.2333 -0.7933 -0.1322
  181SAPE   O3220664   4.088   5.994   2.703  0.2398  0.0956 -0.1239
  181SAPE   C3220665   3.886   5.926   2.826 -0.3650  0.2048 -0.4420
  181SAPE   H2X20666   3.806   5.878   2.764 -1.7114  1.2449  0.4406
  181SAPE   H2Y20667   3.843   5.997   2.899  1.4901  0.6383  0.2858
  181SAPE   C2320668   4.198   6.520   3.013  0.1772  0.2488 -0.5384
  181SAPE   H3R20669   4.107   6.529   3.076 -0.2994  1.8698 -1.3872
  181SAPE   H3S20670   4.215   6.621   2.970  2.6779  0.4154  0.6495
  181SAPE   C2420671   4.318   6.483   3.100 -0.1570  0.1432 -0.8500
  181SAPE   H4R20672   4.355   6.580   3.138 -1.7068  0.9065 -1.2345
  181SAPE   H4S20673   4.401   6.447   3.035  0.2866  1.0052 -0.7772
  181SAPE   C2520674   4.276   6.389   3.210  0.0835  1.4020 -0.3597
  181SAPE   H5R20675   4.262   6.288   3.170  2.1417  1.2436 -0.8191
  181SAPE   C2620676   4.249   6.419   3.343  0.8718 -0.0349  0.4424
  181SAPE   H6R20677   4.208   6.339   3.407  2.6783 -2.8416 -1.6738
  181SAPE   C2720678   4.258   6.555   3.421  0.1176 -0.4714  0.0522
  181SAPE   H7R20679   4.287   6.632   3.346  0.3335  1.8763  2.4314
  181SAPE   H7S20680   4.337   6.560   3.498 -0.5096  2.2291  0.6075
  181SAPE   C2820681   4.126   6.590   3.475  0.6436 -0.2392 -0.1236
  181SAPE   H8R20682   4.051   6.601   3.395  1.2376  0.4627 -0.5995
  181SAPE   C2920683   4.089   6.627   3.601 -0.6845  0.4816  0.0546
  181SAPE   H9R20684   3.982   6.648   3.617 -0.3924  0.8229  1.7679
  181SAPE  C21020685   4.186   6.634   3.715 -0.0118  0.1011 -0.9247
  181SAPE  H10R20686   4.178   6.733   3.765  1.8130 -0.8986  1.5696
  181SAPE  H10S20687   4.292   6.620   3.684 -0.3300 -1.2181 -1.4976
  181SAPE  C21120688   4.154   6.529   3.823 -0.1902 -0.2045  0.5229
  181SAPE  H11R20689   4.197   6.429   3.814  1.4928  0.5495 -0.1273
  181SAPE  C21220690   4.090   6.556   3.942 -0.1246 -0.4450  0.6022
  181SAPE  H12R20691   4.050   6.472   4.000 -3.1722 -0.4707 -1.2813
  181SAPE  C21320692   4.027   6.682   3.977  0.1954 -0.4845 -0.3932
  181SAPE  H13R20693   3.943   6.657   4.044  1.0014 -1.5148  0.2704
  181SAPE  H13S20694   3.982   6.726   3.885 -0.0902 -2.3611 -1.1976
  181SAPE  C21420695   4.112   6.789   4.036 -0.1799  0.0659  0.7517
  181SAPE  H14R20696   4.199   6.812   3.974 -0.2073 -0.9618  0.3098
  181SAPE  C21520697   4.100   6.856   4.155 -0.2221 -0.0832 -0.4970
  181SAPE  H15R20698   4.179   6.926   4.186  0.4969 -1.7327  1.6064
  181SAPE  C21620699   4.000   6.842   4.268 -0.0196  0.1173 -0.7143
  181SAPE  H16R20700   3.917   6.773   4.241  1.8130 -1.4827 -2.5766
  181SAPE  H16S20701   3.949   6.937   4.292 -2.6342 -1.0482 -1.2986
  181SAPE  C21720702   4.049   6.774   4.393 -0.0771  0.4758  0.1402
  181SAPE  H17R20703   4.110   6.689   4.356  0.4682  1.0700 -0.3597
  181SAPE  H17S20704   3.959   6.737   4.447  0.9624  0.2500  1.7832
  181SAPE  C21820705   4.120   6.871   4.490 -0.6986 -0.4221  0.8065
  181SAPE  H18R20706   4.208   6.912   4.435 -2.0454  0.2718 -0.8913
  181SAPE  H18S20707   4.158   6.809   4.574 -2.2977  0.8997  2.5947
  181SAPE  C21920708   4.040   6.980   4.557 -0.7679 -0.1700 -1.0004
  181SAPE  H19R20709   3.964   6.921   4.613  1.8752 -1.2300  1.7223
  181SAPE  H19S20710   3.997   7.048   4.480  2.2199  2.0910 -0.8463
  181SAPE  C22020711   4.114   7.060   4.658 -0.2692 -0.0712 -0.3131
  181SAPE  H20R20712   4.205   7.113   4.620  0.3101  0.6673  1.9711
  181SAPE  H20S20713   4.150   6.992   4.737 -3.0820 -1.3413  0.0010
  181SAPE  H20T20714   4.048   7.140   4.698 -1.6484 -1.6668  0.6803
  181SAPE   C3320715   3.975   5.830   2.914  0.5556 -0.8528  0.1446
  181SAPE   H3X20716   4.053   5.780   2.854  0.7007  2.0919 -2.4136
  181SAPE   H3Y20717   3.906   5.752   2.953  0.3392 -2.1099 -2.5289
  181SAPE   C3420718   4.029   5.897   3.041 -0.3335  0.1224  0.5664
  181SAPE   H4X20719   4.060   5.821   3.117  2.9903  1.1374  0.3744
  181SAPE   H4Y20720   3.948   5.952   3.093  0.6050  0.7055  1.4664
  181SAPE   C3520721   4.151   5.994   3.024 -0.0927 -0.2290 -0.1841
  181SAPE   H5X20722   4.103   6.094   3.035  0.2733 -0.0461 -0.2385
  181SAPE   H5Y20723   4.184   5.992   2.918 -2.3905 -0.9865 -0.9528
  181SAPE   C3620724   4.258   5.980   3.130 -0.2148  0.4641 -0.4750
  181SAPE   H6X20725   4.350   6.033   3.099 -0.2291 -0.0210 -1.3755
  181SAPE   H6Y20726   4.291   5.874   3.141 -2.7962 -0.2566  1.3234
  181SAPE   C3720727   4.205   6.014   3.276 -0.3367 -0.4504  0.6640
  181SAPE   H7X20728   4.154   5.923   3.312 -1.5605 -0.2244 -0.4053
  181SAPE   H7Y20729   4.137   6.099   3.255  0.9118  0.6052  0.7132
  181SAPE   C3820730   4.320   6.072   3.365  0.7011 -0.2414 -0.1075
  181SAPE   H8X20731   4.356   6.172   3.335 -0.7880 -0.1514 -1.7329
  181SAPE   H8Y20732   4.405   6.000   3.355  0.0026 -1.0602 -0.3106
  181SAPE   C3920733   4.276   6.083   3.508  0.2112 -0.3171 -0.3047
  181SAPE   H9X20734   4.252   5.986   3.557  1.0810 -0.7015 -0.6089
  181SAPE   H9Y20735   4.183   6.143   3.514  0.4174 -0.0885  0.7725
  181SAPE  C31020736   4.380   6.145   3.600 -0.2163  0.0819 -0.4142
  181SAPE  H10X20737   4.402   6.251   3.577 -1.8081  0.7007  0.7840
  181SAPE  H10Y20738   4.474   6.087   3.585 -0.5288 -0.3291 -0.8125
  181SAPE  C31120739   4.340   6.142   3.753 -0.0433 -0.0852  0.5121
  181SAPE  H11X20740   4.321   6.038   3.787 -0.3261 -0.3366 -0.3782
  181SAPE  H11Y20741   4.238   6.185   3.760  1.0289  2.6713  0.6137
  181SAPE  C31220742   4.441   6.210   3.844  0.1505  0.3161 -0.4055
  181SAPE  H12X20743   4.450   6.319   3.822  1.1549  0.4506  0.5583
  181SAPE  H12Y20744   4.543   6.166   3.835  1.0086  1.1486  3.5189
  181SAPE  C31320745   4.399   6.196   3.994  0.3816 -0.1056 -0.6490
  181SAPE  H13X20746   4.353   6.096   4.013 -0.4474  0.3731 -0.0832
  181SAPE  H13Y20747   4.310   6.255   4.025  0.4622 -0.1496 -0.3339
  181SAPE  C31420748   4.512   6.223   4.093  0.1412 -0.1276 -0.2557
  181SAPE  H14X20749   4.562   6.319   4.065  0.7010 -0.3236  0.0525
  181SAPE  H14Y20750   4.589   6.143   4.092  2.7645  2.2070 -1.6007
  181SAPE  C31520751   4.458   6.233   4.245 -0.5949  0.4628  0.7264
  181SAPE  H15X20752   4.418   6.133   4.271 -1.1515  0.0088 -1.6637
  181SAPE  H15Y20753   4.374   6.305   4.255 -1.0234  0.3770 -1.6375
  181SAPE  C31620754   4.573   6.263   4.339  0.5798 -0.1424 -0.6955
  181SAPE  H16X20755   4.624   6.360   4.317 -2.2548  1.5933 -0.0617
  181SAPE  H16Y20756   4.653   6.185   4.335  0.8108  0.1461 -2.0510
  181SAPE  C31720757   4.524   6.290   4.483  0.4911 -0.8343 -0.2494
  181SAPE  H17X20758   4.464   6.204   4.521  0.4126 -0.2372  1.0404
  181SAPE  H17Y20759   4.449   6.373   4.484  0.9254 -0.4181  1.2942
  181SAPE  C31820760   4.633   6.320   4.584  0.3497 -0.2239 -0.2461
  181SAPE  H18X20761   4.686   6.404   4.536  2.9076 -2.6124 -1.9334
  181SAPE  H18Y20762   4.702   6.233   4.586  0.3150 -0.2659  1.6986
  181SAPE  H18Z20763   4.598   6.352   4.685 -1.5895  0.9364 -1.2266
  182SAPE     N20764   0.368   6.176   2.190  0.1164  0.4130  0.1225
  182SAPE   HN120765   0.295   6.123   2.139 -0.3393  1.2795 -0.1408
  182SAPE   HN220766   0.386   6.263   2.136  2.8061  0.0172  0.2709
  182SAPE   HN320767   0.454   6.121   2.211 -1.0670 -1.4490  0.2858
  182SAPE   C1220768   0.305   6.229   2.320  0.2367  0.0838 -0.0644
  182SAPE  H12A20769   0.280   6.137   2.376 -2.0628  0.8707  0.2782
  182SAPE  H12B20770   0.208   6.277   2.297  0.9155  0.4369 -2.4694
  182SAPE   C1120771   0.400   6.336   2.394 -0.5841  0.2013 -0.4254
  182SAPE  H11A20772   0.368   6.354   2.499 -0.9923  1.5899 -0.7633
  182SAPE  H11B20773   0.382   6.433   2.342 -1.2021 -0.0290 -0.6473
  182SAPE     P20774   0.644   6.394   2.453 -0.3788 -0.2898 -0.3689
  182SAPE   O1320775   0.766   6.368   2.379 -0.7799  0.1398 -0.6268
  182SAPE   O1420776   0.603   6.537   2.446 -0.3311  0.0518  0.2798
  182SAPE   O1220777   0.539   6.299   2.392  0.1138 -0.2742 -0.1158
  182SAPE   O1120778   0.649   6.341   2.603  0.5078  0.0414 -0.1322
  182SAPE    C120779   0.682   6.208   2.631 -0.1100  0.0112  0.4862
  182SAPE    HA20780   0.772   6.169   2.579 -1.0624  0.3549 -1.4953
  182SAPE    HB20781   0.714   6.211   2.738  1.5469 -0.4735  0.0342
  182SAPE    C220782   0.575   6.095   2.626 -0.4765 -0.7607  0.0083
  182SAPE    HS20783   0.524   6.076   2.529 -3.2331  0.8076  1.0195
  182SAPE   O2120784   0.472   6.126   2.722  0.1869 -0.5114  0.0791
  182SAPE   C2120785   0.356   6.077   2.705 -0.8859  0.3628  0.2740
  182SAPE   O2220786   0.318   6.025   2.597  0.0298  0.1650 -0.2293
  182SAPE   C2220787   0.271   6.097   2.826 -1.0540 -0.6492  0.5960
  182SAPE   H2R20788   0.315   6.154   2.910 -0.8436 -0.0198  0.0645
  182SAPE   H2S20789   0.192   6.166   2.788 -0.7928 -0.4359  0.4330
  182SAPE    C320790   0.645   5.959   2.669 -0.1125 -0.1316 -0.5840
  182SAPE    HX20791   0.719   5.930   2.591 -0.0572 -1.4855 -0.0547
  182SAPE    HY20792   0.571   5.877   2.657  0.7955 -0.8860 -1.0791
  182SAPE   O3120793   0.712   5.958   2.797  0.0242 -0.0603 -0.3195
  182SAPE   C3120794   0.637   5.929   2.898 -0.9171 -0.5205 -0.3044
  182SAPE   O3220795   0.531   5.870   2.897 -0.1081 -0.3123  0.5064
  182SAPE   C3220796   0.719   5.965   3.028  0.0557  0.4446  0.1711
  182SAPE   H2X20797   0.792   6.044   3.002 -0.4348  1.1348  0.8607
  182SAPE   H2Y20798   0.771   5.873   3.064 -2.4854 -1.5629 -0.9083
  182SAPE   C2320799   0.217   5.965   2.890 -0.5712  0.4078  0.3957
  182SAPE   H3R20800   0.294   5.887   2.910 -3.4335 -2.5284  0.7162
  182SAPE   H3S20801   0.156   5.918   2.809 -0.5116  1.4317 -0.2649
  182SAPE   C2420802   0.144   5.983   3.025  0.6042 -0.0426 -1.4218
  182SAPE   H4R20803   0.097   5.885   3.049  0.7146 -0.0374 -1.1845
  182SAPE   H4S20804   0.075   6.070   3.020  1.5142  0.7310 -0.9508
  182SAPE   C2520805   0.227   6.018   3.145  0.0561  0.4450 -0.2683
  182SAPE   H5R20806   0.322   5.961   3.146  0.0162  0.3092  2.3926
  182SAPE   C2620807   0.192   6.097   3.247 -0.0506 -0.1172 -0.2856
  182SAPE   H6R20808   0.266   6.108   3.327 -1.4997  1.5770  0.8862
  182SAPE   C2720809   0.068   6.176   3.268  0.2751 -0.2515  0.1845
  182SAPE   H7R20810   0.028   6.210   3.171 -0.8592  0.4362  0.8751
  182SAPE   H7S20811   0.085   6.270   3.324 -2.2388  0.1688  0.3356
  182SAPE   C2820812  -0.035   6.091   3.334 -0.5607 -0.0484 -0.3601
  182SAPE   H8R20813  -0.060   6.004   3.272  2.2971 -2.8899  2.1481
  182SAPE   C2920814  -0.076   6.100   3.457  0.0759 -0.1297  0.0727
  182SAPE   H9R20815  -0.156   6.030   3.483 -0.1032 -0.5141 -1.4484
  182SAPE  C21020816  -0.036   6.197   3.562  0.0952 -0.7617  0.8375
  182SAPE  H10R20817  -0.111   6.184   3.643 -0.2183 -2.1483  0.3529
  182SAPE  H10S20818  -0.065   6.291   3.512  1.9378 -0.9716 -0.7196
  182SAPE  C21120819   0.102   6.209   3.618  0.1631 -0.6661  0.2391
  182SAPE  H11R20820   0.176   6.262   3.557 -0.9226 -0.0537 -0.5802
  182SAPE  C21220821   0.141   6.170   3.736 -0.2278 -0.9614 -0.2613
  182SAPE  H12R20822   0.244   6.191   3.769 -0.1974  0.7716 -1.2813
  182SAPE  C21320823   0.054   6.097   3.841  0.2374 -0.2729 -0.8958
  182SAPE  H13R20824   0.092   5.994   3.859  1.7536 -0.1869 -3.1419
  182SAPE  H13S20825  -0.053   6.083   3.815 -0.8603  1.8474  1.9155
  182SAPE  C21420826   0.050   6.168   3.973  0.1492  0.0619  0.1760
  182SAPE  H14R20827   0.097   6.267   3.971  2.0451 -0.7921  0.1716
  182SAPE  C21520828   0.013   6.117   4.095  0.1313  0.2941  0.0868
  182SAPE  H15R20829   0.017   6.183   4.183 -0.0648 -0.2070  0.4743
  182SAPE  C21620830  -0.036   5.982   4.130 -0.1615  0.1184 -0.1755
  182SAPE  H16R20831   0.044   5.911   4.162  0.3696  0.3274 -0.9975
  182SAPE  H16S20832  -0.066   5.935   4.034 -0.8583  1.6456 -0.7346
  182SAPE  C21720833  -0.156   5.993   4.233  0.1344  0.1600 -0.7301
  182SAPE  H17R20834  -0.210   5.896   4.243 -0.0036  0.2040 -1.0414
  182SAPE  H17S20835  -0.227   6.075   4.211  3.6911  3.6471 -0.3829
  182SAPE  C21820836  -0.101   6.030   4.379 -0.6098  0.1566  0.4136
  182SAPE  H18R20837  -0.074   6.137   4.388 -1.3670  0.2505  1.8872
  182SAPE  H18S20838  -0.004   5.982   4.406 -0.7085  0.2411  0.9301
  182SAPE  C21920839  -0.203   6.004   4.486  0.2420 -0.2171  0.2985
  182SAPE  H19R20840  -0.253   5.906   4.472 -0.4890  0.2571 -0.5388
  182SAPE  H19S20841  -0.281   6.083   4.480  0.7562  0.2034 -1.3979
  182SAPE  C22020842  -0.145   6.026   4.622  0.4265 -0.0560 -0.3965
  182SAPE  H20R20843  -0.108   6.127   4.651 -0.8020  0.0579  0.8753
  182SAPE  H20S20844  -0.069   5.948   4.643 -1.8182 -2.0653  0.7067
  182SAPE  H20T20845  -0.220   5.998   4.699  2.0800  0.9140  1.6727
  182SAPE   C3320846   0.628   6.007   3.144  0.3407  0.0304  0.4185
  182SAPE   H3X20847   0.556   5.930   3.179  0.6176  0.1595  1.2793
  182SAPE   H3Y20848   0.562   6.085   3.099  1.1677  1.0801  0.9928
  182SAPE   C3420849   0.705   6.076   3.258  0.2615 -0.0119  0.5322
  182SAPE   H4X20850   0.652   6.136   3.335 -0.2156  0.3059 -0.0348
  182SAPE   H4Y20851   0.772   6.145   3.202 -0.0394 -1.6660 -2.0369
  182SAPE   C3520852   0.789   5.971   3.331 -0.7098 -1.3575 -0.3630
  182SAPE   H5X20853   0.879   5.936   3.276  0.4997 -0.1765  0.7791
  182SAPE   H5Y20854   0.737   5.875   3.351  1.2042 -2.3043  0.3774
  182SAPE   C3620855   0.850   6.034   3.467  0.1541  0.0210  0.1021
  182SAPE   H6X20856   0.763   6.066   3.529 -2.1297 -1.9571 -1.8612
  182SAPE   H6Y20857   0.926   6.111   3.441 -0.6439  0.9285  0.3738
  182SAPE   C3720858   0.933   5.934   3.555 -0.6227 -0.2329 -0.1654
  182SAPE   H7X20859   1.033   5.934   3.507 -1.1346  0.9358 -1.2959
  182SAPE   H7Y20860   0.897   5.829   3.548 -0.8892 -0.0295 -2.9280
  182SAPE   C3820861   0.940   5.993   3.700  0.0618  0.5104 -1.1124
  182SAPE   H8X20862   0.836   5.974   3.734 -1.5966  2.4243 -4.5221
  182SAPE   H8Y20863   0.959   6.101   3.717 -0.0938  0.1415  1.9356
  182SAPE   C3920864   1.029   5.916   3.799  0.4865 -0.3123 -0.2352
  182SAPE   H9X20865   1.136   5.945   3.791  0.2759  0.2709 -1.2285
  182SAPE   H9Y20866   1.017   5.812   3.762 -1.5655 -0.0317 -0.4934
  182SAPE  C31020867   0.984   5.949   3.941 -0.0438  0.1500  0.2169
  182SAPE  H10X20868   0.875   5.938   3.960  0.2241 -0.4295  1.5100
  182SAPE  H10Y20869   1.013   6.055   3.955  3.8029 -0.4653 -1.7566
  182SAPE  C31120870   1.050   5.854   4.036 -0.3375  0.2274  0.3824
  182SAPE  H11X20871   1.152   5.825   4.005 -0.7863 -2.8328  1.4386
  182SAPE  H11Y20872   1.002   5.754   4.037  0.0089 -0.0271 -2.0353
  182SAPE  C31220873   1.080   5.912   4.177 -0.1807  0.1528  0.7711
  182SAPE  H12X20874   1.140   6.006   4.179  1.7071 -0.9778  0.1486
  182SAPE  H12Y20875   1.139   5.837   4.233  1.0178  2.1285  2.3065
  182SAPE  C31320876   0.950   5.932   4.262  0.1876 -0.2590 -0.0031
  182SAPE  H13X20877   0.875   5.850   4.274 -2.1471  1.7609 -0.1150
  182SAPE  H13Y20878   0.893   6.016   4.217 -1.5865 -0.0786  2.4084
  182SAPE  C31420879   0.971   5.983   4.411  0.3785  0.2707  0.9588
  182SAPE  H14X20880   1.047   6.063   4.399  0.0929  0.3210 -1.0002
  182SAPE  H14Y20881   1.010   5.898   4.471  0.8043 -0.4148 -0.2490
  182SAPE  C31520882   0.848   6.052   4.474  0.1775  0.1584  0.9144
  182SAPE  H15X20883   0.762   5.982   4.479  0.7885 -0.8241 -1.0040
  182SAPE  H15Y20884   0.818   6.141   4.415  1.2152  0.0789  0.2373
  182SAPE  C31620885   0.877   6.095   4.619 -0.5702  0.0217  0.3805
  182SAPE  H16X20886   0.793   6.158   4.657 -0.3145  1.1716 -0.8676
  182SAPE  H16Y20887   0.968   6.159   4.612  0.6615 -1.7720 -0.8287
  182SAPE  C31720888   0.884   5.981   4.718  0.0891  0.0461 -0.2027
  182SAPE  H17X20889   0.917   6.017   4.818 -1.5565 -1.7627  1.0610
  182SAPE  H17Y20890   0.950   5.904   4.672 -1.4584  0.8020 -4.1679
  182SAPE  C31820891   0.746   5.918   4.747  0.8175  0.3724 -0.6898
  182SAPE  H18X20892   0.687   5.883   4.659 -1.2260  0.5245  0.5710
  182SAPE  H18Y20893   0.665   5.984   4.785  0.0581 -1.5452  1.1954
  182SAPE  H18Z20894   0.753   5.839   4.825  0.9816  1.5480  0.5144
  183SAPE     N20895   5.441   6.106   2.171 -0.8858 -0.0821  0.8910
  183SAPE   HN120896   5.383   6.028   2.208 -0.1012 -0.2335  1.8410
  183SAPE   HN220897   5.537   6.074   2.147 -1.6997 -0.0301 -3.0666
  183SAPE   HN320898   5.457   6.175   2.247 -0.6285  2.4005 -1.2811
  183SAPE   C1220899   5.387   6.178   2.056  0.2778 -0.4706 -0.1566
  183SAPE  H12A20900   5.353   6.103   1.980 -0.8718 -0.9722  0.8182
  183SAPE  H12B20901   5.467   6.240   2.010  0.6045 -1.8208 -1.5155
  183SAPE   C1120902   5.262   6.252   2.100  0.2017  0.5029  0.8575
  183SAPE  H11A20903   5.241   6.326   2.020 -0.9092 -1.0288 -0.3334
  183SAPE  H11B20904   5.275   6.308   2.195  2.2992  1.0086  0.3303
  183SAPE     P20905   5.015   6.178   2.171 -0.0929 -0.2073  0.1483
  183SAPE   O1320906   4.978   6.317   2.158  0.0347  0.0025  0.4857
  183SAPE   O1420907   4.905   6.080   2.135  0.0529 -0.6083 -0.1801
  183SAPE   O1220908   5.151   6.160   2.094  0.0787  0.2757 -0.2850
  183SAPE   O1120909   5.055   6.154   2.320 -0.3167  0.0359  0.0080
  183SAPE    C120910   5.095   6.022   2.354 -0.1896  0.0235 -0.2224
  183SAPE    HA20911   5.074   5.940   2.282 -0.2571 -0.1095 -0.0514
  183SAPE    HB20912   5.205   6.023   2.366 -0.3506 -0.4421  1.6690
  183SAPE    C220913   5.028   5.984   2.496  0.0558 -0.4817  0.2045
  183SAPE    HS20914   5.020   6.073   2.562  0.7537 -2.0237  2.4718
  183SAPE   O2120915   5.107   5.891   2.573  0.2100 -0.2932 -0.0878
  183SAPE   C2120916   5.214   5.938   2.625 -0.1755 -0.5130 -0.8355
  183SAPE   O2220917   5.268   6.042   2.603 -0.0135  0.2883  0.7485
  183SAPE   C2220918   5.270   5.840   2.729 -0.0471 -0.9178  0.9080
  183SAPE   H2R20919   5.210   5.747   2.735  1.2888 -1.8552  0.0198
  183SAPE   H2S20920   5.371   5.813   2.693 -0.1338  0.1588 -0.2238
  183SAPE    C320921   4.883   5.927   2.465 -0.5080  0.8007 -0.8714
  183SAPE    HX20922   4.878   5.840   2.396 -1.2400  1.2674 -1.4239
  183SAPE    HY20923   4.827   6.002   2.406 -0.4355  0.4679 -1.3696
  183SAPE   O3120924   4.815   5.888   2.589 -0.0904  0.9137 -0.7965
  183SAPE   C3120925   4.734   5.977   2.635  1.2860 -0.4109 -0.1973
  183SAPE   O3220926   4.707   6.087   2.581 -0.0533  0.3521  0.3888
  183SAPE   C3220927   4.669   5.916   2.754 -0.2614 -0.1687  0.4148
  183SAPE   H2X20928   4.752   5.875   2.816  0.4793 -0.2572 -0.6194
  183SAPE   H2Y20929   4.604   5.841   2.704  0.5652  0.3662 -1.5495
  183SAPE   C2320930   5.306   5.910   2.863  0.1907  0.6312 -0.4284
  183SAPE   H3R20931   5.368   6.000   2.841 -1.2015  1.2719 -1.9648
  183SAPE   H3S20932   5.371   5.837   2.916 -1.2767  0.3453  1.0863
  183SAPE   C2420933   5.179   5.936   2.939  0.5082  0.1225  0.0238
  183SAPE   H4R20934   5.201   5.927   3.047  1.1548  1.5722  0.0350
  183SAPE   H4S20935   5.105   5.859   2.910 -1.3052  2.7168 -2.8781
  183SAPE   C2520936   5.111   6.067   2.910  0.2872 -0.2902  0.6353
  183SAPE   H5R20937   5.063   6.079   2.811  2.2245  0.2441 -0.2872
  183SAPE   C2620938   5.113   6.177   2.996  0.0874 -0.0906  0.0921
  183SAPE   H6R20939   5.048   6.266   2.987 -0.3234 -0.3879  0.0756
  183SAPE   C2720940   5.195   6.188   3.120  0.0682  0.4010 -0.7259
  183SAPE   H7R20941   5.282   6.118   3.125  0.6553  1.1124 -0.8744
  183SAPE   H7S20942   5.138   6.153   3.208  1.5522  1.0491  0.5381
  183SAPE   C2820943   5.221   6.334   3.123 -0.0789 -0.3020 -0.1081
  183SAPE   H8R20944   5.265   6.377   3.032  0.7806 -0.1497  0.3645
  183SAPE   C2920945   5.225   6.404   3.237 -0.4652 -0.1032 -0.6479
  183SAPE   H9R20946   5.245   6.512   3.243 -0.4355 -0.1865  2.5141
  183SAPE  C21020947   5.181   6.364   3.375  0.4462  0.0001  0.5502
  183SAPE  H10R20948   5.161   6.255   3.376 -0.7358  0.2096  0.4639
  183SAPE  H10S20949   5.085   6.415   3.395 -1.2513 -1.8493 -2.1546
  183SAPE  C21120950   5.274   6.402   3.486 -0.2863  0.0782  0.3723
  183SAPE  H11R20951   5.242   6.498   3.531 -2.6094 -0.4590  0.0157
  183SAPE  C21220952   5.384   6.338   3.531  0.1678 -0.5428  0.3290
  183SAPE  H12R20953   5.444   6.387   3.609 -0.1930  0.1075  0.2040
  183SAPE  C21320954   5.441   6.209   3.472  0.3180  0.8591 -0.4950
  183SAPE  H13R20955   5.545   6.187   3.504 -0.2964 -2.4745 -0.3329
  183SAPE  H13S20956   5.454   6.225   3.363  0.4093 -1.8093 -0.9575
  183SAPE  C21420957   5.356   6.079   3.472  0.3285 -0.4124 -0.6243
  183SAPE  H14R20958   5.249   6.094   3.454  0.3046  0.8369  0.3706
  183SAPE  C21520959   5.381   5.960   3.518  0.2257  0.6933  0.4155
  183SAPE  H15R20960   5.294   5.894   3.507  1.1546 -0.5796  0.4080
  183SAPE  C21620961   5.502   5.895   3.581 -0.2265 -0.4382 -0.0566
  183SAPE  H16R20962   5.598   5.939   3.544 -1.6550  2.1630 -0.9077
  183SAPE  H16S20963   5.507   5.791   3.542 -0.7383 -0.4608 -0.0631
  183SAPE  C21720964   5.494   5.908   3.734 -0.0635  0.8656  0.6487
  183SAPE  H17R20965   5.565   5.841   3.788 -1.3043 -1.9822 -1.0123
  183SAPE  H17S20966   5.396   5.870   3.769 -0.6984 -0.4288 -2.2464
  183SAPE  C21820967   5.505   6.048   3.791  0.3639  0.2218 -0.2733
  183SAPE  H18R20968   5.536   6.108   3.702  1.4968 -0.4666 -0.3727
  183SAPE  H18S20969   5.577   6.050   3.876 -0.0421 -2.2885  0.2035
  183SAPE  C21920970   5.378   6.116   3.845  0.3736 -0.1410 -0.1513
  183SAPE  H19R20971   5.338   6.053   3.928  1.0339  0.2940  0.5106
  183SAPE  H19S20972   5.307   6.122   3.760 -0.8094 -0.7835  0.7708
  183SAPE  C22020973   5.404   6.258   3.904  0.7275  0.6625 -0.0136
  183SAPE  H20R20974   5.309   6.315   3.904 -0.7537 -1.6688  0.2513
  183SAPE  H20S20975   5.482   6.302   3.837  0.9352 -3.1145 -2.5434
  183SAPE  H20T20976   5.456   6.239   4.000  0.1811 -1.0383 -0.0284
  183SAPE   C3320977   4.582   6.012   2.838 -0.1194  0.1957 -0.3881
  183SAPE   H3X20978   4.562   5.951   2.929  0.3067 -0.5649 -0.7942
  183SAPE   H3Y20979   4.489   6.045   2.786  0.7012  0.3317 -1.8152
  183SAPE   C3420980   4.662   6.140   2.869 -0.6811  0.1772  0.1913
  183SAPE   H4X20981   4.660   6.202   2.776 -2.4160  0.3910  0.3445
  183SAPE   H4Y20982   4.768   6.108   2.880 -1.1007 -0.6038  2.7130
  183SAPE   C3520983   4.607   6.218   2.987 -0.8395  0.1175  0.2740
  183SAPE   H5X20984   4.500   6.245   2.972 -0.9658 -1.9558 -3.7144
  183SAPE   H5Y20985   4.669   6.311   2.988 -1.3678  0.4851 -0.2625
  183SAPE   C3620986   4.626   6.176   3.135  0.0047  0.5376  0.4090
  183SAPE   H6X20987   4.559   6.090   3.158 -0.7475  0.8850 -0.4760
  183SAPE   H6Y20988   4.592   6.266   3.190 -0.5488  0.5998 -0.0360
  183SAPE   C3720989   4.774   6.141   3.165 -0.1060  0.4473  0.5075
  183SAPE   H7X20990   4.844   6.208   3.112  0.0454 -0.8772 -1.0507
  183SAPE   H7Y20991   4.788   6.047   3.107 -0.3617  0.6403  0.1317
  183SAPE   C3820992   4.817   6.113   3.309  0.7804 -0.7015  0.0343
  183SAPE   H8X20993   4.921   6.076   3.301 -0.2184 -3.7104 -0.4778
  183SAPE   H8Y20994   4.751   6.039   3.358 -0.6577  0.5315  0.0603
  183SAPE   C3920995   4.820   6.237   3.392 -0.5929  0.3177  0.4175
  183SAPE   H9X20996   4.721   6.281   3.415  0.7236  4.4095 -0.8504
  183SAPE   H9Y20997   4.884   6.318   3.350 -1.6933  0.5449 -0.9107
  183SAPE  C31020998   4.871   6.210   3.541  0.1326 -0.2325 -0.0088
  183SAPE  H10X20999   4.974   6.172   3.529  1.0103  2.1030 -0.2716
  183SAPE  H10Y21000   4.817   6.124   3.587 -0.2937  0.4730  0.8581
  183SAPE  C31121001   4.863   6.325   3.639 -0.1809 -0.5050  0.0752
  183SAPE  H11X21002   4.758   6.358   3.650 -0.5728 -1.9011  0.6520
  183SAPE  H11Y21003   4.926   6.403   3.590 -2.5305  1.4967  0.0544
  183SAPE  C31221004   4.916   6.277   3.768 -0.5974  0.5506 -0.9701
  183SAPE  H12X21005   5.023   6.251   3.758 -1.3032 -2.4049 -2.0084
  183SAPE  H12Y21006   4.880   6.177   3.803  1.7062  0.6388  2.0205
  183SAPE  C31321007   4.878   6.364   3.887  1.3789  0.1872  0.2803
  183SAPE  H13X21008   4.767   6.352   3.891  1.3275 -0.9377 -2.1332
  183SAPE  H13Y21009   4.900   6.468   3.856 -1.6813  0.3148 -1.9618
  183SAPE  C31421010   4.952   6.331   4.020 -0.4400  0.4602  0.1062
  183SAPE  H14X21011   4.930   6.415   4.090 -1.2695 -0.5200  1.0605
  183SAPE  H14Y21012   5.061   6.332   3.997 -0.8802  0.3186 -2.2646
  183SAPE  C31521013   4.908   6.203   4.087  0.0272 -0.2162  0.5115
  183SAPE  H15X21014   4.948   6.118   4.028 -1.2711 -0.1543 -0.5154
  183SAPE  H15Y21015   4.797   6.203   4.082  0.0507 -2.0939 -2.0015
  183SAPE  C31621016   4.946   6.192   4.236  0.0711 -0.0678 -0.3598
  183SAPE  H16X21017   4.910   6.090   4.260  0.7176 -0.4935 -1.1505
  183SAPE  H16Y21018   4.892   6.268   4.297 -1.9145 -2.0532  0.4833
  183SAPE  C31721019   5.096   6.184   4.261  0.6881  0.0017  0.1765
  183SAPE  H17X21020   5.151   6.275   4.227  0.4597  0.5461  1.2350
  183SAPE  H17Y21021   5.140   6.095   4.211  2.0605  1.3558 -1.1539
  183SAPE  C31821022   5.126   6.177   4.410 -0.3207 -0.2870  0.1771
  183SAPE  H18X21023   5.236   6.195   4.419 -0.0688  0.1338 -2.7802
  183SAPE  H18Y21024   5.113   6.081   4.465  2.5473 -0.2011  1.1999
  183SAPE  H18Z21025   5.085   6.264   4.465 -0.4059  0.4083 -0.9609
  184SAPE     N21026   4.632   6.348   2.513  0.3308 -0.3163 -0.5385
  184SAPE   HN121027   4.584   6.377   2.600  4.1074 -0.3802  1.7426
  184SAPE   HN221028   4.570   6.364   2.431  0.0097  0.2964 -0.1850
  184SAPE   HN321029   4.659   6.248   2.521  0.7356 -0.1405  0.3924
  184SAPE   C1221030   4.760   6.435   2.501  0.4633  0.6534 -0.5830
  184SAPE  H12A21031   4.828   6.371   2.441 -0.1972 -0.2766 -0.3503
  184SAPE  H12B21032   4.806   6.442   2.602 -0.0812  0.4279 -0.3150
  184SAPE   C1121033   4.741   6.583   2.443  0.5630 -0.2198  0.0502
  184SAPE  H11A21034   4.697   6.576   2.341 -2.8884 -2.6847  1.4871
  184SAPE  H11B21035   4.841   6.629   2.437  0.8385 -0.9525 -1.6881
  184SAPE     P21036   4.643   6.816   2.496 -0.2053  0.1324  0.3519
  184SAPE   O1321037   4.688   6.837   2.356 -0.1918  0.2357  0.0019
  184SAPE   O1421038   4.505   6.855   2.531  0.1903  0.0462  0.5741
  184SAPE   O1221039   4.663   6.667   2.534 -0.2720  0.1034  0.6433
  184SAPE   O1121040   4.747   6.892   2.587  0.1242 -1.1407  0.5161
  184SAPE    C121041   4.840   6.823   2.668 -0.4516 -0.0385  0.1754
  184SAPE    HA21042   4.898   6.750   2.607  1.2176  1.6823 -0.3589
  184SAPE    HB21043   4.921   6.897   2.684 -1.1056  0.3386  1.9886
  184SAPE    C221044   4.787   6.770   2.793  0.3615  0.1000  0.0274
  184SAPE    HS21045   4.762   6.664   2.771 -0.6338  0.4798 -0.7605
  184SAPE   O2121046   4.667   6.836   2.844 -0.3604 -0.1487 -0.4063
  184SAPE   C2121047   4.585   6.757   2.910  0.2089  0.0571  0.2462
  184SAPE   O2221048   4.589   6.640   2.918 -0.3755 -0.3442 -0.0370
  184SAPE   C2221049   4.462   6.832   2.943  0.2120  0.1459 -0.3735
  184SAPE   H2R21050   4.442   6.921   2.881 -1.2542  0.7682  0.9376
  184SAPE   H2S21051   4.379   6.770   2.903  0.9380  1.0890 -3.6507
  184SAPE    C321052   4.887   6.772   2.909  0.1973 -0.2558  0.5163
  184SAPE    HX21053   4.929   6.872   2.934  3.1516 -0.7257 -1.9025
  184SAPE    HY21054   4.974   6.726   2.856  0.9445 -0.2782  1.7189
  184SAPE   O3121055   4.844   6.697   3.025  0.1836 -0.1437 -0.3310
  184SAPE   C3121056   4.892   6.579   3.052  0.2033 -0.6533  0.5352
  184SAPE   O3221057   4.982   6.519   2.995 -0.0284  0.0173  0.1273
  184SAPE   C3221058   4.823   6.531   3.179 -0.3999 -0.7907  0.5569
  184SAPE   H2X21059   4.855   6.425   3.189  3.6916 -0.1762 -3.0348
  184SAPE   H2Y21060   4.712   6.537   3.176 -0.4143  1.1185  2.6842
  184SAPE   C2321061   4.441   6.867   3.093  0.6391  0.2779  0.6581
  184SAPE   H3R21062   4.501   6.799   3.158  2.3398  0.2613 -0.8537
  184SAPE   H3S21063   4.334   6.845   3.115  0.0837  0.7871 -1.3277
  184SAPE   C2421064   4.490   7.012   3.116  0.2194 -0.7398  0.2879
  184SAPE   H4R21065   4.467   7.020   3.224  1.8597 -2.6830  0.8576
  184SAPE   H4S21066   4.430   7.093   3.070 -0.9063 -1.0889  1.1023
  184SAPE   C2521067   4.638   7.042   3.093 -0.7910  0.3823  0.0733
  184SAPE   H5R21068   4.665   7.074   2.991  0.2294  2.0198  0.8292
  184SAPE   C2621069   4.733   7.039   3.185 -0.6558  0.3105 -0.2551
  184SAPE   H6R21070   4.839   7.050   3.156 -0.5967 -0.5926 -0.4158
  184SAPE   C2721071   4.715   7.010   3.333  0.1838 -0.0972  0.1372
  184SAPE   H7R21072   4.800   6.949   3.373 -1.0860 -0.6143  2.2156
  184SAPE   H7S21073   4.622   6.950   3.341 -0.8741  1.5449  0.7633
  184SAPE   C2821074   4.690   7.140   3.415 -0.2018 -0.5415  0.1638
  184SAPE   H8R21075   4.638   7.219   3.358 -0.6230 -0.8797  0.0697
  184SAPE   C2921076   4.746   7.175   3.529 -0.3469  0.4039  0.4061
  184SAPE   H9R21077   4.716   7.271   3.572  1.8289  1.5694 -0.5291
  184SAPE  C21021078   4.841   7.088   3.615  1.1570  0.0051  0.5907
  184SAPE  H10R21079   4.793   6.989   3.630 -2.2234  1.2095 -0.9808
  184SAPE  H10S21080   4.846   7.117   3.722 -0.8493  0.2042  0.6687
  184SAPE  C21121081   4.976   7.070   3.553  0.3918  0.8232 -0.8916
  184SAPE  H11R21082   5.024   7.151   3.496  2.9740 -1.0038 -1.4563
  184SAPE  C21221083   5.055   6.972   3.580 -0.0318 -0.4145  0.3123
  184SAPE  H12R21084   5.155   6.973   3.534 -0.5334 -1.1621 -0.8344
  184SAPE  C21321085   5.035   6.842   3.644 -0.4378  0.1405 -0.7148
  184SAPE  H13R21086   5.033   6.762   3.566 -0.5017 -0.1359 -0.4318
  184SAPE  H13S21087   4.938   6.833   3.698  0.1170 -0.3939  0.2248
  184SAPE  C21421088   5.141   6.807   3.742 -0.5905 -0.4379  0.2345
  184SAPE  H14R21089   5.236   6.799   3.687 -0.6723  0.7764 -0.1135
  184SAPE  C21521090   5.133   6.783   3.870 -0.6352  0.0745 -0.0533
  184SAPE  H15R21091   5.224   6.751   3.924  0.2906  2.0557 -0.3380
  184SAPE  C21621092   5.012   6.790   3.949  1.0687  0.4331  0.7360
  184SAPE  H16R21093   4.928   6.730   3.907 -1.5724  2.9915  1.9936
  184SAPE  H16S21094   4.972   6.893   3.935 -1.8700 -0.6029  0.7846
  184SAPE  C21721095   5.038   6.754   4.098 -0.1535  0.5197  0.4408
  184SAPE  H17R21096   5.139   6.789   4.127  2.3222 -4.2509 -1.2193
  184SAPE  H17S21097   5.035   6.643   4.111  2.7710  0.3608  0.4042
  184SAPE  C21821098   4.944   6.827   4.192 -0.2665 -0.6997 -0.5092
  184SAPE  H18R21099   4.836   6.816   4.166 -1.6705  2.0150  3.2743
  184SAPE  H18S21100   4.964   6.936   4.187 -1.0305 -0.5585 -0.7274
  184SAPE  C21921101   4.953   6.780   4.334  0.1455  0.2399 -0.3525
  184SAPE  H19R21102   4.903   6.856   4.398 -4.0975 -2.0712 -0.5924
  184SAPE  H19S21103   5.060   6.765   4.360 -0.5312 -1.2304  1.8535
  184SAPE  C22021104   4.872   6.648   4.356 -0.5087 -1.0662 -0.2187
  184SAPE  H20R21105   4.919   6.574   4.289  0.7625 -2.2365  1.8650
  184SAPE  H20S21106   4.769   6.668   4.319 -0.2720  2.0390  0.4801
  184SAPE  H20T21107   4.879   6.608   4.460  0.5541 -0.9733 -0.2393
  184SAPE   C3321108   4.855   6.617   3.307  0.2109 -0.4092  0.5737
  184SAPE   H3X21109   4.867   6.724   3.280  0.0324 -0.4635  0.2754
  184SAPE   H3Y21110   4.950   6.583   3.353 -0.2913 -0.9243  1.2687
  184SAPE   C3421111   4.744   6.596   3.398  0.9158  0.3723 -0.4854
  184SAPE   H4X21112   4.733   6.487   3.416 -2.0623  0.7658  0.7158
  184SAPE   H4Y21113   4.641   6.614   3.360  0.0195  0.6534  1.8771
  184SAPE   C3521114   4.756   6.676   3.529 -0.1261  0.0984 -0.3839
  184SAPE   H5X21115   4.760   6.784   3.507 -1.0744  0.3787  0.7216
  184SAPE   H5Y21116   4.849   6.651   3.584 -1.2741 -1.8371  0.8243
  184SAPE   C3621117   4.639   6.650   3.627  0.4121 -0.3573 -0.4256
  184SAPE   H6X21118   4.614   6.542   3.634  1.7238 -0.5657  1.6015
  184SAPE   H6Y21119   4.548   6.704   3.592  0.2244 -0.0246  0.5505
  184SAPE   C3721120   4.668   6.686   3.773  0.1065 -0.1085  0.1857
  184SAPE   H7X21121   4.701   6.792   3.775 -2.3826  0.7520 -0.4370
  184SAPE   H7Y21122   4.757   6.629   3.806  0.8776  1.1688  0.4089
  184SAPE   C3821123   4.544   6.657   3.863  0.8651  0.0050 -0.4300
  184SAPE   H8X21124   4.500   6.561   3.829 -0.4325 -0.2671  1.8223
  184SAPE   H8Y21125   4.466   6.733   3.839  1.7861  0.5695 -1.8206
  184SAPE   C3921126   4.570   6.637   4.017 -0.0804  0.2584  0.4267
  184SAPE   H9X21127   4.607   6.738   4.046 -2.3691  1.1090  0.5563
  184SAPE   H9Y21128   4.640   6.550   4.025  0.9290  0.8105 -1.7654
  184SAPE  C31021129   4.446   6.601   4.098 -0.5695 -0.0834  1.0304
  184SAPE  H10X21130   4.407   6.502   4.063  0.6471 -0.0897 -0.4323
  184SAPE  H10Y21131   4.367   6.678   4.086  0.3214  0.5537 -1.1663
  184SAPE  C31121132   4.475   6.596   4.248 -0.6835 -0.2215  0.2430
  184SAPE  H11X21133   4.573   6.546   4.262  1.0500  2.9923  0.4730
  184SAPE  H11Y21134   4.389   6.540   4.292 -0.3164 -2.8688 -2.0821
  184SAPE  C31221135   4.478   6.739   4.299 -0.1265  0.0697 -0.3687
  184SAPE  H12X21136   4.384   6.794   4.277  0.7400  3.3360  3.0348
  184SAPE  H12Y21137   4.557   6.797   4.248 -0.0200 -0.5380 -0.9074
  184SAPE  C31321138   4.488   6.741   4.454  0.0771 -0.4276 -0.4093
  184SAPE  H13X21139   4.580   6.685   4.479  0.4190 -0.0435 -0.7937
  184SAPE  H13Y21140   4.390   6.704   4.490 -0.8878  1.3235 -1.1066
  184SAPE  C31421141   4.511   6.888   4.512 -0.0626  0.2322  0.1409
  184SAPE  H14X21142   4.446   6.964   4.463  0.5126  0.9337  0.4476
  184SAPE  H14Y21143   4.619   6.905   4.489  0.0387 -0.8242 -0.1949
  184SAPE  C31521144   4.507   6.902   4.657 -0.1073 -0.4012 -0.5876
  184SAPE  H15X21145   4.405   6.890   4.700 -0.6106  0.8666 -1.3691
  184SAPE  H15Y21146   4.533   7.009   4.675  0.5784 -0.6500 -0.0406
  184SAPE  C31621147   4.609   6.804   4.731  0.1940 -0.2979  0.4696
  184SAPE  H16X21148   4.655   6.868   4.809 -0.7114  2.2360 -0.9675
  184SAPE  H16Y21149   4.696   6.781   4.666  1.6072  3.2350  0.9211
  184SAPE  C31721150   4.551   6.682   4.799  0.7797  0.2932  0.8576
  184SAPE  H17X21151   4.535   6.603   4.723  0.4240  0.0750  1.1564
  184SAPE  H17Y21152   4.453   6.715   4.839  0.3294  0.7878 -0.5962
  184SAPE  C31821153   4.643   6.624   4.911 -0.2818  0.4136  0.2526
  184SAPE  H18X21154   4.679   6.710   4.972  1.0480  1.3706 -1.7798
  184SAPE  H18Y21155   4.721   6.560   4.865  1.5851  2.0922  0.9221
  184SAPE  H18Z21156   4.581   6.560   4.977 -0.2757  0.4825  0.3254
  185SAPE     N21157   4.128   2.929   1.846 -0.4287  0.3199 -0.1254
  185SAPE   HN121158   4.160   2.924   1.945  0.0369  0.8643 -0.2397
  185SAPE   HN221159   4.168   2.850   1.791 -2.6990 -1.1447  0.2296
  185SAPE   HN321160   4.164   3.016   1.801  0.4556 -0.6701 -1.4111
  185SAPE   C1221161   3.981   2.907   1.827  0.2296 -0.4685 -0.6855
  185SAPE  H12A21162   3.966   2.799   1.845  1.6553 -0.8750 -1.7647
  185SAPE  H12B21163   3.962   2.932   1.721 -1.0911  1.7140 -0.0184
  185SAPE   C1121164   3.898   3.004   1.909  0.7893 -1.1191  0.2885
  185SAPE  H11A21165   3.907   2.973   2.015  1.1581 -2.3803 -0.0955
  185SAPE  H11B21166   3.794   2.979   1.879  0.0865  1.8536 -0.0105
  185SAPE     P21167   3.850   3.228   1.798  0.0868 -0.0925 -0.1062
  185SAPE   O1321168   3.925   3.355   1.784 -0.3347  0.2080 -0.2532
  185SAPE   O1421169   3.808   3.150   1.677 -0.2281 -0.5068 -0.2959
  185SAPE   O1221170   3.936   3.137   1.887 -0.7720 -0.3232 -0.3498
  185SAPE   O1121171   3.726   3.247   1.892  0.6041 -0.4216  0.1100
  185SAPE    C121172   3.740   3.288   2.031  0.2694 -0.1444  0.1852
  185SAPE    HA21173   3.728   3.205   2.104  1.9154 -0.6254 -0.0492
  185SAPE    HB21174   3.841   3.332   2.048 -0.2974  0.7610  1.4300
  185SAPE    C221175   3.637   3.389   2.079  0.1246 -0.7043 -0.1933
  185SAPE    HS21176   3.620   3.473   2.008  1.5914 -0.2491 -0.0403
  185SAPE   O2121177   3.691   3.451   2.198 -0.4083 -0.0927  0.2922
  185SAPE   C2121178   3.643   3.571   2.227 -0.6026  0.1076 -0.2095
  185SAPE   O2221179   3.592   3.647   2.147  0.0182 -0.7016 -0.3331
  185SAPE   C2221180   3.655   3.595   2.376  0.0830  1.0234  0.3328
  185SAPE   H2R21181   3.730   3.525   2.418 -0.2369  0.2766 -0.3281
  185SAPE   H2S21182   3.686   3.702   2.384 -0.8307  1.3075  0.1435
  185SAPE    C321183   3.503   3.323   2.118  0.4845  0.5060  0.0707
  185SAPE    HX21184   3.533   3.261   2.205 -0.7228 -1.4681 -0.8566
  185SAPE    HY21185   3.475   3.253   2.036  1.4236 -3.5956  2.9661
  185SAPE   O3121186   3.392   3.409   2.161 -0.5240 -0.0559  1.1867
  185SAPE   C3121187   3.333   3.475   2.061  0.8519 -0.1408  0.1080
  185SAPE   O3221188   3.364   3.473   1.940 -0.0246  0.3519 -0.5237
  185SAPE   C3221189   3.208   3.549   2.119 -0.1466 -0.0673  0.1379
  185SAPE   H2X21190   3.149   3.593   2.036 -1.4093  0.2554  1.1855
  185SAPE   H2Y21191   3.248   3.640   2.170 -1.6998  1.4811 -1.3029
  185SAPE   C2321192   3.517   3.569   2.453 -0.6772  0.0830  0.6228
  185SAPE   H3R21193   3.482   3.466   2.434 -0.6599  0.1748  0.0657
  185SAPE   H3S21194   3.439   3.643   2.424 -1.2887 -0.7297  0.1539
  185SAPE   C2421195   3.535   3.570   2.613 -0.5478 -0.8690 -0.6206
  185SAPE   H4R21196   3.427   3.572   2.640 -0.1691 -1.7345  1.1183
  185SAPE   H4S21197   3.573   3.665   2.656 -0.2350 -1.5059  0.5535
  185SAPE   C2521198   3.594   3.443   2.667 -0.2739  1.1241 -0.9649
  185SAPE   H5R21199   3.685   3.401   2.622  0.9153  2.2043  0.3376
  185SAPE   C2621200   3.562   3.382   2.788 -0.6748  0.1421  0.5255
  185SAPE   H6R21201   3.604   3.283   2.808 -2.2217 -1.4692 -3.2710
  185SAPE   C2721202   3.450   3.426   2.882 -0.5132  0.6551  0.8952
  185SAPE   H7R21203   3.414   3.339   2.940  0.4029 -0.7362 -0.5215
  185SAPE   H7S21204   3.364   3.454   2.818  1.3139 -1.1007 -2.6687
  185SAPE   C2821205   3.477   3.536   2.981 -0.6675 -0.5655  0.8513
  185SAPE   H8R21206   3.510   3.631   2.936  1.4130 -1.1992  0.9720
  185SAPE   C2921207   3.483   3.519   3.113  0.5376 -0.2616 -0.5682
  185SAPE   H9R21208   3.504   3.615   3.164  2.3774 -0.6868 -0.4374
  185SAPE  C21021209   3.457   3.395   3.200 -0.3661 -0.5157 -0.3370
  185SAPE  H10R21210   3.474   3.300   3.145 -0.0131 -0.8976  0.4213
  185SAPE  H10S21211   3.350   3.393   3.230 -0.9118  3.0989 -1.5203
  185SAPE  C21121212   3.547   3.399   3.322 -0.5004 -0.9209 -0.0622
  185SAPE  H11R21213   3.637   3.336   3.317  0.3776  0.3513 -0.9500
  185SAPE  C21221214   3.521   3.462   3.439  0.9279  0.7262 -0.3974
  185SAPE  H12R21215   3.591   3.462   3.525  0.7938 -0.7842 -0.2628
  185SAPE  C21321216   3.407   3.556   3.461  0.2592 -0.6212 -0.1499
  185SAPE  H13R21217   3.350   3.573   3.367 -0.7437  0.2100  0.5847
  185SAPE  H13S21218   3.432   3.660   3.492 -2.5557 -0.3044  1.3360
  185SAPE  C21421219   3.308   3.488   3.549  0.4538 -0.1659  0.3995
  185SAPE  H14R21220   3.209   3.469   3.504  1.6819 -2.1127 -1.6623
  185SAPE  C21521221   3.313   3.479   3.678 -0.2642  0.0448 -0.2983
  185SAPE  H15R21222   3.232   3.427   3.730  0.2192 -1.4028 -0.9673
  185SAPE  C21621223   3.431   3.512   3.770 -0.0700 -0.9826  0.6918
  185SAPE  H16R21224   3.494   3.584   3.713  0.9566 -0.7780  2.0513
  185SAPE  H16S21225   3.503   3.429   3.788  2.0100  0.3114 -1.1614
  185SAPE  C21721226   3.389   3.578   3.901 -0.8264  0.1094 -0.2318
  185SAPE  H17R21227   3.328   3.668   3.882  1.4329  1.8712  0.4699
  185SAPE  H17S21228   3.476   3.626   3.952 -1.6855 -1.3622  2.9139
  185SAPE  C21821229   3.317   3.479   3.999  0.1388 -0.1358 -0.3873
  185SAPE  H18R21230   3.385   3.391   3.988  0.0052 -0.5893  1.9658
  185SAPE  H18S21231   3.220   3.454   3.952  1.2969  0.8395 -3.5923
  185SAPE  C21921232   3.322   3.519   4.153  0.0265  0.2407 -0.0704
  185SAPE  H19R21233   3.242   3.595   4.162 -1.3573 -1.2306  0.6719
  185SAPE  H19S21234   3.426   3.543   4.184  0.8698 -1.9149 -0.9725
  185SAPE  C22021235   3.272   3.399   4.236 -0.5238 -0.3244 -0.0126
  185SAPE  H20R21236   3.268   3.428   4.344  1.0210  2.5821 -0.6173
  185SAPE  H20S21237   3.331   3.305   4.232 -1.4873 -0.9511  0.0748
  185SAPE  H20T21238   3.172   3.393   4.188  1.1482  1.1723 -4.1647
  185SAPE   C3321239   3.111   3.450   2.204 -0.0671 -1.1498  0.8076
  185SAPE   H3X21240   3.114   3.349   2.158  0.4272 -0.1277 -1.5571
  185SAPE   H3Y21241   3.008   3.485   2.182  0.5958 -0.3183 -1.2687
  185SAPE   C3421242   3.124   3.469   2.360 -0.0999 -0.1731 -0.1298
  185SAPE   H4X21243   3.082   3.568   2.388 -3.7124 -1.3573 -0.8447
  185SAPE   H4Y21244   3.232   3.472   2.386 -0.1274 -1.0118  0.1224
  185SAPE   C3521245   3.069   3.353   2.440  0.4940  0.8252  0.0374
  185SAPE   H5X21246   3.145   3.274   2.456  0.1335  0.2229 -1.1421
  185SAPE   H5Y21247   2.988   3.293   2.395 -0.4143  1.6395  0.5375
  185SAPE   C3621248   3.015   3.398   2.572 -0.8936 -0.5568 -0.2544
  185SAPE   H6X21249   2.938   3.475   2.552 -1.7745 -1.7719 -1.7872
  185SAPE   H6Y21250   3.085   3.440   2.647 -3.1303 -0.4469  1.9093
  185SAPE   C3721251   2.942   3.279   2.644 -0.3757 -0.9266 -0.0007
  185SAPE   H7X21252   2.883   3.228   2.565  1.1980 -1.3548 -0.9563
  185SAPE   H7Y21253   2.866   3.314   2.717  0.8023 -1.3800  1.4985
  185SAPE   C3821254   3.032   3.184   2.715  0.0470  1.1226  0.0993
  185SAPE   H8X21255   3.128   3.185   2.659  0.9675 -0.5513  1.5140
  185SAPE   H8Y21256   2.983   3.084   2.721  2.7567 -0.2969  0.1126
  185SAPE   C3921257   3.086   3.218   2.855 -0.6637  0.1803 -0.7867
  185SAPE   H9X21258   3.144   3.312   2.864  1.8547 -1.2039 -1.5730
  185SAPE   H9Y21259   3.152   3.138   2.894 -1.6952  0.3370  1.5069
  185SAPE  C31021260   2.983   3.219   2.971  0.5246  0.0884  0.0278
  185SAPE  H10X21261   2.922   3.127   2.958 -0.5841  0.9548 -1.1846
  185SAPE  H10Y21262   2.913   3.306   2.967 -0.0379 -0.1697  2.4348
  185SAPE  C31121263   3.050   3.197   3.110  0.2196  0.0307  1.0391
  185SAPE  H11X21264   3.133   3.270   3.116  1.4262 -0.9537 -1.8031
  185SAPE  H11Y21265   3.095   3.096   3.116 -0.4798 -0.2568  1.6164
  185SAPE  C31221266   2.950   3.216   3.221  0.0090  1.4409 -0.8068
  185SAPE  H12X21267   2.872   3.138   3.209 -0.3267  1.2249  2.0838
  185SAPE  H12Y21268   2.890   3.308   3.215 -2.6021 -0.1414 -0.4710
  185SAPE  C31321269   3.009   3.202   3.359 -0.6360 -0.6457  0.1554
  185SAPE  H13X21270   3.088   3.280   3.369 -1.5277  0.3053 -0.0891
  185SAPE  H13Y21271   3.061   3.105   3.376  0.2954 -0.4003 -1.1317
  185SAPE  C31421272   2.901   3.221   3.466 -0.1148  0.3786  0.0252
  185SAPE  H14X21273   2.825   3.144   3.441  2.2758 -2.3300  0.6723
  185SAPE  H14Y21274   2.854   3.321   3.456  0.8650  0.7675 -0.8142
  185SAPE  C31521275   2.963   3.196   3.602  0.1342 -0.3515 -0.1465
  185SAPE  H15X21276   3.044   3.268   3.626 -1.4759  1.7538 -0.6895
  185SAPE  H15Y21277   3.005   3.093   3.601  1.0966  0.0040 -2.6388
  185SAPE  C31621278   2.862   3.197   3.719 -0.3012 -0.0059  0.6382
  185SAPE  H16X21279   2.917   3.132   3.790  2.3113 -0.1452 -1.3753
  185SAPE  H16Y21280   2.768   3.156   3.677 -0.2391 -0.0678  0.5601
  185SAPE  C31721281   2.838   3.338   3.764  0.1943 -0.3322  0.3685
  185SAPE  H17X21282   2.743   3.332   3.821 -0.2154 -1.0223 -0.3689
  185SAPE  H17Y21283   2.819   3.402   3.675 -0.3795 -3.0981 -1.6543
  185SAPE  C31821284   2.936   3.402   3.862 -0.2136  0.0734  0.2495
  185SAPE  H18X21285   2.931   3.513   3.873  1.1322  0.0666  1.1167
  185SAPE  H18Y21286   3.041   3.387   3.829 -0.0658 -0.0426  0.7697
  185SAPE  H18Z21287   2.917   3.343   3.954  1.2883 -0.9426 -0.0572
  186SAPE     N21288   4.859   5.425   2.163  0.2092  0.6413  0.0665
  186SAPE   HN121289   4.910   5.361   2.099 -0.0213 -0.4517  0.9366
  186SAPE   HN221290   4.796   5.365   2.221  0.9130  0.0229  0.2026
  186SAPE   HN321291   4.799   5.483   2.101  0.1689  4.5341  3.3711
  186SAPE   C1221292   4.960   5.513   2.232 -0.2178 -1.5998  0.1775
  186SAPE  H12A21293   5.029   5.450   2.292  3.2606  2.9213  1.5741
  186SAPE  H12B21294   4.898   5.566   2.307 -1.4566 -2.8307  0.0541
  186SAPE   C1121295   5.011   5.623   2.142  0.0876  0.1748  0.1142
  186SAPE  H11A21296   4.929   5.683   2.098 -0.5476  1.1836  2.5386
  186SAPE  H11B21297   5.059   5.560   2.063  0.3267  0.0298  0.3726
  186SAPE     P21298   5.257   5.727   2.174 -0.2203  0.1413 -0.0383
  186SAPE   O1321299   5.261   5.723   2.024  0.5252  0.2408  0.3905
  186SAPE   O1421300   5.318   5.848   2.236 -0.0958 -0.3662 -0.4858
  186SAPE   O1221301   5.100   5.712   2.209 -0.6748  0.1444  0.1240
  186SAPE   O1121302   5.327   5.599   2.227 -0.0439  0.3021 -0.2124
  186SAPE    C121303   5.319   5.560   2.370  0.5599  0.5749  0.9038
  186SAPE    HA21304   5.402   5.610   2.424  2.2233 -1.7299  0.6632
  186SAPE    HB21305   5.226   5.584   2.427  0.1069 -3.0368  1.9762
  186SAPE    C221306   5.333   5.406   2.374 -0.1906  0.1222 -0.8119
  186SAPE    HS21307   5.428   5.375   2.325 -0.2401 -0.2350 -0.6837
  186SAPE   O2121308   5.235   5.337   2.295  0.3351  0.0830  0.4283
  186SAPE   C2121309   5.234   5.208   2.295 -0.2582  1.2026 -0.4262
  186SAPE   O2221310   5.313   5.132   2.347  0.3100 -0.6859 -0.0107
  186SAPE   C2221311   5.118   5.158   2.218  0.0476  0.5991 -0.0475
  186SAPE   H2R21312   5.043   5.240   2.214 -0.5632  0.1346  1.2025
  186SAPE   H2S21313   5.142   5.139   2.111 -1.2530  0.7900 -0.3927
  186SAPE    C321314   5.353   5.355   2.521  0.5885 -0.0045  0.5653
  186SAPE    HX21315   5.388   5.249   2.518 -0.9001 -0.4922 -1.3859
  186SAPE    HY21316   5.254   5.358   2.572  1.0686  1.9249  1.4834
  186SAPE   O3121317   5.450   5.430   2.600  0.2281 -0.0300 -0.0321
  186SAPE   C3121318   5.442   5.410   2.727 -0.0537 -0.6919 -0.4963
  186SAPE   O3221319   5.371   5.323   2.781 -0.6079  0.3467 -0.3066
  186SAPE   C3221320   5.510   5.532   2.797  0.2087  0.2113  0.6342
  186SAPE   H2X21321   5.495   5.627   2.741  0.6048 -0.2565 -0.2787
  186SAPE   H2Y21322   5.618   5.509   2.794  0.6444  2.1701  0.0113
  186SAPE   C2321323   5.069   5.027   2.285 -0.0121 -0.6595 -0.5712
  186SAPE   H3R21324   5.156   4.958   2.288  0.2422 -0.3387 -0.4781
  186SAPE   H3S21325   4.995   4.992   2.210 -1.8385  2.5585 -0.4413
  186SAPE   C2421326   5.006   5.039   2.423 -0.5380  0.0870 -0.1918
  186SAPE   H4R21327   4.929   5.118   2.418 -0.5523  0.1108  0.3787
  186SAPE   H4S21328   5.089   5.074   2.488 -0.8390  0.2812  0.0885
  186SAPE   C2521329   4.952   4.909   2.476 -0.1361  0.4828  0.4613
  186SAPE   H5R21330   4.921   4.835   2.401 -0.7573  3.2298 -2.2221
  186SAPE   C2621331   4.937   4.877   2.609 -0.6032 -0.5959 -0.7067
  186SAPE   H6R21332   4.904   4.777   2.639  1.2208 -0.6839  1.2606
  186SAPE   C2721333   4.962   4.972   2.727  0.5864 -0.2638  0.0534
  186SAPE   H7R21334   5.042   5.042   2.694  0.7109  0.2256  1.3636
  186SAPE   H7S21335   4.998   4.917   2.816 -2.1889 -2.1949  0.1098
  186SAPE   C2821336   4.851   5.059   2.772 -0.0317 -0.6612 -0.2276
  186SAPE   H8R21337   4.761   5.059   2.708  1.0528  0.1680 -1.8294
  186SAPE   C2921338   4.841   5.128   2.890  0.2620 -0.0027  0.0618
  186SAPE   H9R21339   4.752   5.190   2.909  1.0853  1.2363  0.0105
  186SAPE  C21021340   4.966   5.143   2.979  0.4837  0.1516  0.6049
  186SAPE  H10R21341   4.976   5.246   3.019  0.4096  0.1479  0.6318
  186SAPE  H10S21342   5.061   5.118   2.927 -1.7805 -0.2846 -3.8205
  186SAPE  C21121343   4.937   5.045   3.092 -0.2112 -0.0196  0.2604
  186SAPE  H11R21344   4.924   4.941   3.059  2.1793 -0.4834  0.5606
  186SAPE  C21221345   4.942   5.069   3.229  0.0353  0.6510 -0.0380
  186SAPE  H12R21346   4.918   4.989   3.300 -0.1508  0.4593 -0.3166
  186SAPE  C21321347   4.974   5.205   3.294  0.8564  0.0350 -0.0650
  186SAPE  H13R21348   4.885   5.221   3.359 -1.0354 -3.7327 -1.4735
  186SAPE  H13S21349   4.980   5.289   3.221 -0.0182 -1.4631 -1.9603
  186SAPE  C21421350   5.100   5.205   3.374 -0.2311  0.4553  0.3064
  186SAPE  H14R21351   5.181   5.224   3.302 -0.1325 -1.9266 -0.2745
  186SAPE  C21521352   5.121   5.182   3.504 -0.5672  0.2165  0.6655
  186SAPE  H15R21353   5.227   5.186   3.534 -0.4289  0.9683  0.1056
  186SAPE  C21621354   5.010   5.157   3.604  0.9690 -0.1429  0.0677
  186SAPE  H16R21355   5.049   5.083   3.677  3.9133  1.9999  0.8542
  186SAPE  H16S21356   4.914   5.122   3.559  2.0665 -0.1295 -2.4684
  186SAPE  C21721357   4.972   5.285   3.684 -0.2888 -0.3049 -0.1128
  186SAPE  H17R21358   4.931   5.362   3.615  2.5431 -1.6387 -3.6294
  186SAPE  H17S21359   5.065   5.332   3.724 -0.9618 -0.1504  1.3174
  186SAPE  C21821360   4.874   5.262   3.802 -0.4452 -0.3740 -0.2654
  186SAPE  H18R21361   4.903   5.170   3.857 -1.5142 -0.0883  0.8231
  186SAPE  H18S21362   4.770   5.234   3.773 -0.3396 -4.3111  2.4459
  186SAPE  C21921363   4.862   5.378   3.902  0.2187 -0.9909  0.7648
  186SAPE  H19R21364   4.780   5.375   3.976 -0.6109 -0.4200 -0.1207
  186SAPE  H19S21365   4.842   5.462   3.833 -0.3735 -2.2266 -0.6144
  186SAPE  C22021366   4.994   5.404   3.988  0.7257 -0.0351  0.4395
  186SAPE  H20R21367   5.078   5.428   3.919 -1.1100  1.1666 -1.4777
  186SAPE  H20S21368   5.008   5.314   4.052  0.8523 -1.4946 -1.5425
  186SAPE  H20T21369   4.978   5.481   4.066  1.2944 -1.9937  2.6361
  186SAPE   C3321370   5.448   5.562   2.939 -0.9116 -0.2385 -0.4119
  186SAPE   H3X21371   5.337   5.560   2.929 -0.7613  0.9424 -3.2745
  186SAPE   H3Y21372   5.470   5.669   2.961 -1.6508 -0.3052  0.7326
  186SAPE   C3421373   5.506   5.469   3.044  0.6650 -0.2407 -0.1525
  186SAPE   H4X21374   5.615   5.490   3.045  0.6740 -0.2350  1.5884
  186SAPE   H4Y21375   5.491   5.361   3.026  1.0613 -0.4140  0.4975
  186SAPE   C3521376   5.436   5.500   3.180 -0.3893 -0.3335 -0.3220
  186SAPE   H5X21377   5.326   5.485   3.177 -0.2741 -1.6655  0.9523
  186SAPE   H5Y21378   5.451   5.607   3.203  1.2812 -1.1139  2.7458
  186SAPE   C3621379   5.500   5.416   3.299 -0.1723  0.2454  0.1724
  186SAPE   H6X21380   5.610   5.434   3.292 -0.1486  0.2575  0.5351
  186SAPE   H6Y21381   5.486   5.307   3.283 -1.2675  0.5217 -0.8506
  186SAPE   C3721382   5.445   5.469   3.438  0.0171 -0.0706 -0.0240
  186SAPE   H7X21383   5.334   5.458   3.433  0.0435 -0.8457  0.9037
  186SAPE   H7Y21384   5.460   5.579   3.450  0.4966  0.0257 -1.2922
  186SAPE   C3821385   5.508   5.405   3.562 -0.5829  0.4779 -0.3201
  186SAPE   H8X21386   5.610   5.449   3.560 -0.5328  0.6588 -4.8729
  186SAPE   H8Y21387   5.516   5.296   3.542 -0.5085 -0.0893  2.3781
  186SAPE   C3921388   5.443   5.444   3.696 -0.0836  0.6742 -0.1647
  186SAPE   H9X21389   5.337   5.411   3.692  0.2064 -0.7231  2.2782
  186SAPE   H9Y21390   5.445   5.553   3.719 -1.3896  1.0809 -1.7830
  186SAPE  C31021391   5.521   5.372   3.808  0.4504  0.2336 -0.1632
  186SAPE  H10X21392   5.630   5.386   3.789  0.9520 -0.4817  1.9700
  186SAPE  H10Y21393   5.492   5.265   3.799 -2.8948  0.5523  4.0519
  186SAPE  C31121394   5.513   5.413   3.956 -0.0264  0.0981 -0.2152
  186SAPE  H11X21395   5.581   5.340   4.004 -1.1899 -1.0995 -0.3340
  186SAPE  H11Y21396   5.405   5.405   3.983  0.4688  0.7921  2.1977
  186SAPE  C31221397   5.545   5.560   3.976  0.5891  0.1439 -0.0944
  186SAPE  H12X21398   5.467   5.628   3.935 -1.2721 -1.3386  0.8114
  186SAPE  H12Y21399   5.630   5.578   3.907  0.2935  1.5039 -0.1436
  186SAPE  C31321400   5.580   5.609   4.115 -0.5635  0.6537  0.8882
  186SAPE  H13X21401   5.681   5.567   4.136 -0.3232  1.3479  1.1767
  186SAPE  H13Y21402   5.500   5.563   4.176 -1.2448 -1.2520 -1.3119
  186SAPE  C31421403   5.592   5.766   4.130 -0.0046  0.3716  0.6275
  186SAPE  H14X21404   5.497   5.819   4.109 -1.9205 -2.6447  1.1662
  186SAPE  H14Y21405   5.660   5.798   4.048  0.2777  0.9440  1.0749
  186SAPE  C31521406   5.627   5.814   4.274  0.2704  1.0134  0.1579
  186SAPE  H15X21407   5.724   5.762   4.290  0.0488  1.0775  1.9562
  186SAPE  H15Y21408   5.561   5.766   4.349  1.4269 -0.7080  0.1353
  186SAPE  C31621409   5.652   5.962   4.297  0.4062  0.2151  0.4946
  186SAPE  H16X21410   5.736   5.993   4.232 -0.2688 -0.3496 -0.6837
  186SAPE  H16Y21411   5.673   5.969   4.406  0.0970 -1.0128  0.6595
  186SAPE  C31721412   5.527   6.044   4.256  0.4395 -0.5452  0.2837
  186SAPE  H17X21413   5.434   5.996   4.296  1.1951 -2.9954 -0.6941
  186SAPE  H17Y21414   5.532   6.044   4.145  1.6205  1.9386  0.2811
  186SAPE  C31821415   5.545   6.190   4.306 -0.9431 -0.1613 -0.2781
  186SAPE  H18X21416   5.621   6.240   4.241  0.0611  1.8664  2.2835
  186SAPE  H18Y21417   5.589   6.187   4.408  0.2401  1.3996 -0.7045
  186SAPE  H18Z21418   5.451   6.247   4.294 -1.3766 -0.9550 -0.7707
  187SAPE     N21419   5.316   1.702   1.661 -0.1633  0.7789 -0.3868
  187SAPE   HN121420   5.384   1.625   1.679  0.2422  1.1594 -0.2591
  187SAPE   HN221421   5.260   1.720   1.747 -2.1250  1.2361 -1.7025
  187SAPE   HN321422   5.249   1.692   1.582  1.0617 -0.5095 -1.3218
  187SAPE   C1221423   5.398   1.827   1.658 -0.0650 -0.7008 -0.9380
  187SAPE  H12A21424   5.425   1.856   1.554 -0.0464  0.4037 -0.6369
  187SAPE  H12B21425   5.491   1.804   1.713  0.9423 -1.0872 -2.7517
  187SAPE   C1121426   5.335   1.942   1.750  0.6626 -1.3009 -0.3758
  187SAPE  H11A21427   5.253   1.983   1.686 -0.5320 -1.9885  0.6645
  187SAPE  H11B21428   5.402   2.030   1.761 -0.3968  0.0858 -3.6351
  187SAPE     P21429   5.372   1.867   1.992 -0.0682  0.1757  0.0906
  187SAPE   O1321430   5.482   1.771   1.953 -0.0605 -0.1560 -0.2766
  187SAPE   O1421431   5.415   1.998   2.048  0.2021 -0.5537  0.2480
  187SAPE   O1221432   5.276   1.892   1.867 -0.5495  0.2816 -0.0012
  187SAPE   O1121433   5.286   1.788   2.093  0.2986  0.0357  0.3585
  187SAPE    C121434   5.145   1.784   2.096  0.1798 -0.6478 -0.2527
  187SAPE    HA21435   5.095   1.838   2.013 -0.7197 -1.1620 -0.0664
  187SAPE    HB21436   5.095   1.685   2.099 -3.1201  0.8755  1.7728
  187SAPE    C221437   5.086   1.852   2.225  0.9445 -0.1941 -0.4153
  187SAPE    HS21438   4.977   1.875   2.227  1.3460  1.8836  0.9807
  187SAPE   O2121439   5.165   1.972   2.255  0.0993  0.2215 -1.1150
  187SAPE   C2121440   5.122   2.078   2.186 -1.1179  0.4061 -0.8460
  187SAPE   O2221441   5.039   2.071   2.101 -0.4000 -0.1322  0.5950
  187SAPE   C2221442   5.189   2.203   2.233 -0.5845  0.4516  0.0038
  187SAPE   H2R21443   5.184   2.208   2.344 -1.2433 -2.3966  0.1919
  187SAPE   H2S21444   5.297   2.193   2.208 -0.8249 -0.3890 -0.7799
  187SAPE    C321445   5.111   1.748   2.343  0.4611 -0.4344 -0.3198
  187SAPE    HX21446   5.204   1.691   2.321  1.6411  0.3651  2.1369
  187SAPE    HY21447   5.026   1.681   2.323  0.7668 -0.7787 -0.4702
  187SAPE   O3121448   5.114   1.811   2.471  0.1081 -0.1148  0.2483
  187SAPE   C3121449   5.002   1.855   2.532 -0.5625 -0.2751  0.3809
  187SAPE   O3221450   4.892   1.852   2.483  0.2215  0.0899 -0.0667
  187SAPE   C3221451   5.037   1.890   2.674 -0.4182  0.1997 -0.5596
  187SAPE   H2X21452   5.033   1.799   2.738 -1.7401 -1.5717 -3.0269
  187SAPE   H2Y21453   4.958   1.956   2.716 -0.7771 -0.4522 -0.2126
  187SAPE   C2321454   5.136   2.330   2.162 -0.4942  0.2486 -0.3043
  187SAPE   H3R21455   5.027   2.320   2.144 -0.9275  2.3461  0.8313
  187SAPE   H3S21456   5.187   2.351   2.066 -0.8502  1.6519 -0.2084
  187SAPE   C2421457   5.143   2.449   2.252 -0.6432 -0.4288  0.0052
  187SAPE   H4R21458   5.092   2.531   2.197 -1.3914 -1.2114 -0.4756
  187SAPE   H4S21459   5.249   2.473   2.279 -0.6526 -1.9774  1.5964
  187SAPE   C2521460   5.052   2.440   2.373  0.6405  0.0128  0.2486
  187SAPE   H5R21461   4.944   2.435   2.349  0.5329 -1.4742  0.8794
  187SAPE   C2621462   5.075   2.446   2.503 -0.0854 -0.5162 -0.4695
  187SAPE   H6R21463   4.975   2.455   2.549 -0.9910 -0.7069 -2.2896
  187SAPE   C2721464   5.216   2.443   2.567 -0.1328 -0.0028 -1.1018
  187SAPE   H7R21465   5.291   2.396   2.501  0.3288 -0.3624 -0.3424
  187SAPE   H7S21466   5.206   2.366   2.646 -0.6573  0.6306 -0.5276
  187SAPE   C2821467   5.273   2.581   2.608  0.1602  0.6797  0.0909
  187SAPE   H8R21468   5.253   2.660   2.534 -2.8653  0.4062  0.4832
  187SAPE   C2921469   5.345   2.592   2.718 -0.1335 -0.0759 -0.1279
  187SAPE   H9R21470   5.389   2.692   2.736  0.4888 -0.4428  0.4172
  187SAPE  C21021471   5.356   2.493   2.828 -0.0007  0.4131 -0.3292
  187SAPE  H10R21472   5.372   2.393   2.781  2.1890  0.1925  0.7586
  187SAPE  H10S21473   5.261   2.484   2.885 -1.1677  0.6968 -2.1328
  187SAPE  C21121474   5.477   2.528   2.915  0.4356 -0.0252  0.2638
  187SAPE  H11R21475   5.555   2.586   2.863  0.9394 -1.9613 -1.2343
  187SAPE  C21221476   5.484   2.518   3.048 -0.0326 -0.2028  0.2899
  187SAPE  H12R21477   5.568   2.560   3.105 -1.7617  0.2641  2.6519
  187SAPE  C21321478   5.379   2.461   3.144  0.0567 -0.1713  0.1338
  187SAPE  H13R21479   5.429   2.383   3.205 -1.0653  0.1611  1.5569
  187SAPE  H13S21480   5.312   2.396   3.084  0.9515  0.0715 -1.1521
  187SAPE  C21421481   5.304   2.572   3.214  0.6495  0.9766 -0.6389
  187SAPE  H14R21482   5.227   2.628   3.158 -0.4101 -1.2391 -1.5203
  187SAPE  C21521483   5.312   2.599   3.345 -0.1651  0.1133  0.7256
  187SAPE  H15R21484   5.252   2.684   3.382  1.1435  0.7056  1.5419
  187SAPE  C21621485   5.405   2.539   3.442 -0.4906 -0.1884 -1.0262
  187SAPE  H16R21486   5.444   2.441   3.408 -2.2201 -1.7542  1.2791
  187SAPE  H16S21487   5.358   2.513   3.538  0.6891 -1.9264 -0.8673
  187SAPE  C21721488   5.522   2.637   3.465 -0.0517  0.2453  0.6700
  187SAPE  H17R21489   5.472   2.724   3.513 -2.5347  0.7331 -2.5186
  187SAPE  H17S21490   5.575   2.659   3.371  0.7884 -2.2085  0.5009
  187SAPE  C21821491   5.631   2.589   3.561 -0.2429 -0.6963 -0.4407
  187SAPE  H18R21492   5.705   2.668   3.585  2.3754 -2.6162 -1.6602
  187SAPE  H18S21493   5.691   2.511   3.509  1.0515 -0.3376  0.4627
  187SAPE  C21921494   5.583   2.538   3.699  0.5245 -0.0591  0.3764
  187SAPE  H19R21495   5.530   2.442   3.682 -3.0545  1.8064 -0.0957
  187SAPE  H19S21496   5.495   2.592   3.740 -1.6045 -0.7414 -2.9476
  187SAPE  C22021497   5.705   2.516   3.794 -0.0056 -0.0956  0.0947
  187SAPE  H20R21498   5.674   2.445   3.874 -0.5366 -0.6322 -0.5759
  187SAPE  H20S21499   5.732   2.614   3.838 -0.3393  0.9085 -1.8795
  187SAPE  H20T21500   5.794   2.477   3.740  1.5269  1.9811  1.0068
  187SAPE   C3321501   5.168   1.980   2.683  0.2683  0.3422 -0.6441
  187SAPE   H3X21502   5.176   2.037   2.588 -2.4326  0.4104 -0.9128
  187SAPE   H3Y21503   5.252   1.908   2.690  2.6379  2.7997 -2.0305
  187SAPE   C3421504   5.174   2.084   2.801 -0.2415 -0.1053 -0.7479
  187SAPE   H4X21505   5.091   2.157   2.788 -1.6797 -1.5760 -0.1842
  187SAPE   H4Y21506   5.267   2.143   2.792  0.0986 -0.7133 -1.2926
  187SAPE   C3521507   5.174   2.036   2.946 -0.3763 -0.1380 -0.6660
  187SAPE   H5X21508   5.260   1.970   2.972 -0.1357  0.9832  1.6072
  187SAPE   H5Y21509   5.077   1.983   2.956  0.1111 -1.0217 -0.4583
  187SAPE   C3621510   5.165   2.144   3.052  0.8179  0.2970  0.0961
  187SAPE   H6X21511   5.107   2.223   3.000  0.3798  0.3884  0.7288
  187SAPE   H6Y21512   5.263   2.193   3.073  0.9775 -0.1232  0.3487
  187SAPE   C3721513   5.094   2.098   3.177  0.2779  0.0623 -0.0910
  187SAPE   H7X21514   5.134   1.998   3.203 -1.5759 -1.5589 -2.9043
  187SAPE   H7Y21515   4.990   2.067   3.152  1.0314 -1.8260 -1.1011
  187SAPE   C3821516   5.095   2.208   3.286 -0.5835  0.0683  0.8109
  187SAPE   H8X21517   5.063   2.307   3.247 -1.5853  0.5391  2.7157
  187SAPE   H8Y21518   5.203   2.211   3.314 -0.0730  0.2719 -1.0772
  187SAPE   C3921519   5.008   2.168   3.408  0.3262  0.0561 -0.3295
  187SAPE   H9X21520   5.052   2.075   3.450 -0.7751 -0.4970 -0.3832
  187SAPE   H9Y21521   4.907   2.147   3.369  0.8934  0.4666 -2.1312
  187SAPE  C31021522   5.004   2.274   3.520 -0.2143 -0.3765 -0.5573
  187SAPE  H10X21523   4.922   2.246   3.589  1.2237 -0.5240  1.1796
  187SAPE  H10Y21524   4.989   2.374   3.473  0.3937  2.3828  4.4744
  187SAPE  C31121525   5.129   2.285   3.603 -0.2852 -0.1274  0.3668
  187SAPE  H11X21526   5.113   2.371   3.671 -0.7334  0.7964 -0.8728
  187SAPE  H11Y21527   5.217   2.310   3.540  0.3596  1.8011  1.9239
  187SAPE  C31221528   5.149   2.164   3.687 -0.2590  0.0146  0.5754
  187SAPE  H12X21529   5.167   2.081   3.615 -2.7878  1.0013 -1.3423
  187SAPE  H12Y21530   5.054   2.143   3.740 -1.5738  0.7745 -1.3820
  187SAPE  C31321531   5.266   2.163   3.792 -0.7875 -0.2476  0.2482
  187SAPE  H13X21532   5.360   2.134   3.739 -1.1851 -0.3014 -0.4378
  187SAPE  H13Y21533   5.237   2.076   3.855  2.4575 -2.6344 -1.2470
  187SAPE  C31421534   5.293   2.295   3.871  0.3090 -0.6616  0.1759
  187SAPE  H14X21535   5.203   2.316   3.933  0.1560 -0.4404 -0.1163
  187SAPE  H14Y21536   5.319   2.380   3.805 -0.2713  0.3743  1.2444
  187SAPE  C31521537   5.408   2.279   3.971  0.3867  0.4228 -0.2903
  187SAPE  H15X21538   5.415   2.372   4.031 -0.8806 -0.0403  0.6341
  187SAPE  H15Y21539   5.505   2.254   3.923  0.7408 -0.2169  0.7487
  187SAPE  C31621540   5.380   2.159   4.067 -0.0370  0.5117  0.2781
  187SAPE  H16X21541   5.400   2.065   4.012 -1.1392 -1.5640  3.2321
  187SAPE  H16Y21542   5.276   2.148   4.103  0.1035 -0.7553  0.3153
  187SAPE  C31721543   5.477   2.158   4.186  0.3634 -0.1561  0.3521
  187SAPE  H17X21544   5.478   2.056   4.229 -1.3361 -0.8179 -1.0224
  187SAPE  H17Y21545   5.435   2.232   4.256  1.9168  1.5839 -0.4788
  187SAPE  C31821546   5.626   2.199   4.150 -0.2753  0.4382  0.1617
  187SAPE  H18X21547   5.669   2.112   4.096  0.2871 -0.3297  1.7777
  187SAPE  H18Y21548   5.681   2.213   4.246  1.5651  1.2139 -0.9427
  187SAPE  H18Z21549   5.655   2.287   4.088  0.4022  2.1906  2.8053
  188SAPE     N21550   5.779   3.107   2.415 -0.8080 -0.3624  0.6725
  188SAPE   HN121551   5.718   3.187   2.441 -1.3315 -0.5212 -0.0222
  188SAPE   HN221552   5.743   3.019   2.457 -0.5859 -1.6610 -1.6920
  188SAPE   HN321553   5.873   3.135   2.450 -0.6116  1.5771 -1.1825
  188SAPE   C1221554   5.784   3.088   2.267 -0.6904  0.2587  0.1616
  188SAPE  H12A21555   5.680   3.072   2.230 -0.3728  1.8803 -1.6042
  188SAPE  H12B21556   5.850   3.002   2.243 -1.3815  0.1514 -1.4764
  188SAPE   C1121557   5.831   3.217   2.186 -0.1182  0.2222  0.3183
  188SAPE  H11A21558   5.822   3.192   2.078 -1.5064  1.6724  0.0605
  188SAPE  H11B21559   5.934   3.254   2.201  0.3336 -0.9721  0.2973
  188SAPE     P21560   5.619   3.359   2.129  0.1138  0.1278  0.3197
  188SAPE   O1321561   5.644   3.391   1.988 -0.0543  0.0605  0.3607
  188SAPE   O1421562   5.519   3.256   2.157  0.3226  0.5527 -0.4417
  188SAPE   O1221563   5.752   3.329   2.213 -0.6281  0.0393 -0.4603
  188SAPE   O1121564   5.568   3.495   2.196 -0.1640 -0.2797 -0.1787
  188SAPE    C121565   5.668   3.598   2.228 -0.1479 -0.0272 -0.4762
  188SAPE    HA21566   5.761   3.597   2.168 -0.0710 -2.1087 -0.4112
  188SAPE    HB21567   5.617   3.691   2.196 -1.6510 -2.2537 -5.7512
  188SAPE    C221568   5.708   3.588   2.375 -0.6198  0.7228 -0.2664
  188SAPE    HS21569   5.773   3.497   2.375  1.1634  1.9242 -1.4188
  188SAPE   O2121570   5.595   3.569   2.463 -0.1882  0.3650  0.0741
  188SAPE   C2121571   5.581   3.462   2.537 -0.4290 -0.3821  0.1633
  188SAPE   O2221572   5.656   3.363   2.525  0.0512 -0.8487 -0.2870
  188SAPE   C2221573   5.452   3.471   2.623 -0.5039  0.1018 -0.0566
  188SAPE   H2R21574   5.471   3.569   2.672  1.0204  0.1848 -0.7545
  188SAPE   H2S21575   5.364   3.486   2.557  0.6865  2.2407 -1.2679
  188SAPE    C321576   5.793   3.708   2.436 -0.6609 -0.7875  0.1358
  188SAPE    HX21577   5.737   3.803   2.423  0.1985 -0.2070  0.5577
  188SAPE    HY21578   5.887   3.733   2.383 -1.4757  2.1428 -0.0877
  188SAPE   O3121579   5.810   3.686   2.581  0.1186 -0.2634 -0.1988
  188SAPE   C3121580   5.928   3.640   2.621  0.1523 -0.1210  1.0003
  188SAPE   O3221581   6.027   3.631   2.545  1.2509  0.0709  0.1564
  188SAPE   C3221582   5.937   3.612   2.764  0.1713 -0.1731 -0.5574
  188SAPE   H2X21583   5.990   3.702   2.804 -0.6521  0.3312 -0.5962
  188SAPE   H2Y21584   5.985   3.515   2.793 -0.5063  0.0190  1.3668
  188SAPE   C2321585   5.429   3.367   2.739 -0.2072  0.3585  0.0985
  188SAPE   H3R21586   5.518   3.335   2.796  0.6569 -1.5018 -2.1774
  188SAPE   H3S21587   5.388   3.274   2.694 -0.7478 -0.0369  1.3575
  188SAPE   C2421588   5.309   3.398   2.831 -0.0132 -0.3522  0.2142
  188SAPE   H4R21589   5.286   3.316   2.903 -0.0832  0.1997  0.8310
  188SAPE   H4S21590   5.222   3.431   2.770  0.3168  0.2489  0.0682
  188SAPE   C2521591   5.352   3.520   2.912  0.1876 -0.5346  0.4555
  188SAPE   H5R21592   5.353   3.615   2.856 -1.1249 -0.6633  0.1744
  188SAPE   C2621593   5.398   3.523   3.036 -0.4745  0.5189  0.0412
  188SAPE   H6R21594   5.423   3.626   3.066 -3.1644  2.4267 -3.5509
  188SAPE   C2721595   5.434   3.412   3.135 -0.1064 -0.6304  0.0828
  188SAPE   H7R21596   5.509   3.343   3.090 -1.1798 -2.5603  1.1088
  188SAPE   H7S21597   5.342   3.353   3.155  0.0619 -1.0538 -0.3794
  188SAPE   C2821598   5.470   3.467   3.272  0.6465 -0.0509 -0.2052
  188SAPE   H8R21599   5.578   3.473   3.289  0.6647 -2.0331  0.5258
  188SAPE   C2921600   5.377   3.490   3.372 -0.6888  0.5533  0.4591
  188SAPE   H9R21601   5.410   3.525   3.471 -1.9422 -0.6798  1.3474
  188SAPE  C21021602   5.226   3.480   3.356  0.7826  0.2799 -0.3578
  188SAPE  H10R21603   5.187   3.503   3.254  0.5914 -0.3890 -0.4432
  188SAPE  H10S21604   5.161   3.533   3.429 -0.6025 -1.4396 -0.2662
  188SAPE  C21121605   5.167   3.341   3.383 -0.2569  0.0989  0.0820
  188SAPE  H11R21606   5.154   3.283   3.291 -0.1159 -2.1500  1.4125
  188SAPE  C21221607   5.124   3.295   3.502 -0.1454 -0.2793 -0.0337
  188SAPE  H12R21608   5.071   3.198   3.501 -0.0517 -0.3312 -1.8670
  188SAPE  C21321609   5.119   3.370   3.638 -0.4412 -0.1614 -0.3220
  188SAPE  H13R21610   5.029   3.338   3.695 -1.4142 -0.1328 -1.8004
  188SAPE  H13S21611   5.101   3.479   3.623 -1.8618 -0.2487  0.5256
  188SAPE  C21421612   5.238   3.367   3.730 -0.3898 -0.3631  0.1867
  188SAPE  H14R21613   5.302   3.456   3.719 -0.0748 -0.6766 -0.5721
  188SAPE  C21521614   5.266   3.277   3.830  0.3319  0.3183  0.7710
  188SAPE  H15R21615   5.356   3.293   3.891  1.4995 -3.0185  0.1162
  188SAPE  C21621616   5.192   3.147   3.869 -0.5394  0.0390  0.0231
  188SAPE  H16R21617   5.251   3.054   3.854 -0.8661 -0.2575  0.5809
  188SAPE  H16S21618   5.098   3.147   3.809 -1.0534  1.5291  0.7833
  188SAPE  C21721619   5.149   3.139   4.013  0.0898 -0.5890 -0.9483
  188SAPE  H17R21620   5.089   3.048   4.032  1.2068 -1.3622 -0.9984
  188SAPE  H17S21621   5.085   3.228   4.031 -0.5584 -1.1770 -0.2910
  188SAPE  C21821622   5.265   3.148   4.113 -0.0265 -0.2598 -0.0567
  188SAPE  H18R21623   5.327   3.240   4.107 -1.1364  0.3840 -3.2592
  188SAPE  H18S21624   5.337   3.067   4.091  1.6290  1.4324 -1.1649
  188SAPE  C21921625   5.201   3.133   4.256 -0.7157  0.4672  0.1945
  188SAPE  H19R21626   5.275   3.117   4.337 -1.1257  2.7557  1.1190
  188SAPE  H19S21627   5.136   3.044   4.241  1.5888 -1.3061  0.2141
  188SAPE  C22021628   5.112   3.243   4.310  0.2404  0.1457 -0.6724
  188SAPE  H20R21629   5.020   3.263   4.251 -0.3125 -1.6020 -0.4646
  188SAPE  H20S21630   5.171   3.336   4.325  0.0607  0.2052 -0.3319
  188SAPE  H20T21631   5.071   3.205   4.406  1.0322 -1.7133 -1.0221
  188SAPE   C3321632   5.797   3.605   2.828 -0.1204  0.4908  0.1328
  188SAPE   H3X21633   5.737   3.536   2.764  0.7008 -0.5988  0.5119
  188SAPE   H3Y21634   5.758   3.709   2.834 -0.8520  0.3445 -1.4600
  188SAPE   C3421635   5.800   3.541   2.968  0.0351  0.1806 -0.1372
  188SAPE   H4X21636   5.857   3.445   2.963 -0.1080  0.1546 -2.0579
  188SAPE   H4Y21637   5.695   3.516   2.995 -0.5462  0.2568 -2.1937
  188SAPE   C3521638   5.865   3.637   3.077  0.1665  0.3540 -0.7598
  188SAPE   H5X21639   5.802   3.728   3.078 -2.0325 -1.0914  0.9083
  188SAPE   H5Y21640   5.965   3.665   3.037  0.3357 -1.6922 -1.8912
  188SAPE   C3621641   5.884   3.556   3.205  0.0636  0.0528  0.4523
  188SAPE   H6X21642   5.971   3.488   3.191  1.4441  1.0914  3.3141
  188SAPE   H6Y21643   5.792   3.501   3.234  0.5027 -0.6314  0.5877
  188SAPE   C3721644   5.936   3.637   3.312 -0.8753 -0.3836 -1.0022
  188SAPE   H7X21645   5.875   3.726   3.338  0.1891  0.5288 -1.5503
  188SAPE   H7Y21646   6.034   3.682   3.285 -1.2633  0.7939 -0.4956
  188SAPE   C3821647   5.958   3.564   3.445 -0.0805 -0.3284  0.1693
  188SAPE   H8X21648   6.044   3.495   3.433  0.9608  0.5357  2.1735
  188SAPE   H8Y21649   5.864   3.519   3.486  0.5179 -2.1680 -0.3742
  188SAPE   C3921650   5.995   3.659   3.558 -0.6197  0.1486  0.1537
  188SAPE   H9X21651   5.902   3.717   3.580 -0.2306  0.5811  0.7034
  188SAPE   H9Y21652   6.074   3.732   3.529 -0.2147 -1.2830 -2.6291
  188SAPE  C31021653   6.025   3.582   3.683  0.8631 -0.1968 -0.8380
  188SAPE  H10X21654   6.070   3.482   3.666 -0.1698 -0.4801 -2.0129
  188SAPE  H10Y21655   5.929   3.548   3.727  1.1805  1.2211  1.1372
  188SAPE  C31121656   6.074   3.662   3.797  0.7485 -0.1084 -0.0027
  188SAPE  H11X21657   6.007   3.749   3.813 -0.2798 -1.2002  2.1237
  188SAPE  H11Y21658   6.172   3.704   3.765 -0.3951  0.8991 -2.4344
  188SAPE  C31221659   6.076   3.601   3.941 -0.6036  0.3301  0.5050
  188SAPE  H12X21660   6.162   3.531   3.942  0.7623  1.9307 -0.0442
  188SAPE  H12Y21661   5.990   3.534   3.965  0.3980 -0.5933  1.6610
  188SAPE  C31321662   6.092   3.703   4.061  0.6075 -0.3676  0.1589
  188SAPE  H13X21663   5.998   3.762   4.055  0.7985 -0.2122 -1.7228
  188SAPE  H13Y21664   6.187   3.757   4.044  0.1750  0.0983 -0.8177
  188SAPE  C31421665   6.094   3.623   4.199 -0.1233  0.6224 -0.0905
  188SAPE  H14X21666   6.028   3.534   4.190 -0.5896  1.0482 -1.0531
  188SAPE  H14Y21667   6.043   3.691   4.270 -2.7349 -0.3971 -0.8847
  188SAPE  C31521668   6.234   3.588   4.243 -0.8504  0.4989  0.3152
  188SAPE  H15X21669   6.296   3.674   4.212 -1.4146  0.9563  0.4295
  188SAPE  H15Y21670   6.278   3.497   4.196  0.4886  1.1335  0.3044
  188SAPE  C31621671   6.252   3.574   4.394  0.5231 -0.3447  0.6856
  188SAPE  H16X21672   6.188   3.488   4.420  1.6617 -1.6438 -0.6471
  188SAPE  H16Y21673   6.209   3.669   4.432  1.2769  0.3843 -0.2284
  188SAPE  C31721674   6.398   3.575   4.434 -0.3810  0.6004 -0.0217
  188SAPE  H17X21675   6.405   3.567   4.544 -0.1196 -0.7527 -0.1283
  188SAPE  H17Y21676   6.437   3.677   4.412 -1.2129  0.6287 -1.5028
  188SAPE  C31821677   6.484   3.461   4.355  0.6096 -0.6923 -0.0755
  188SAPE  H18X21678   6.500   3.495   4.251  0.2523 -3.1901 -1.0002
  188SAPE  H18Y21679   6.433   3.363   4.359  0.8825 -0.8383 -0.1867
  188SAPE  H18Z21680   6.582   3.449   4.407 -0.0927  2.6790  2.3928
  189SAPI   C1221681   4.805   1.574   5.980  0.7494  0.1217  0.4249
  189SAPI    H221682   4.862   1.494   5.928 -0.6675 -0.4024 -0.3663
  189SAPI    O221683   4.868   1.700   5.960 -0.7935 -0.1537  0.0601
  189SAPI   HO221684   4.943   1.712   6.019  0.4050 -0.3560 -1.3507
  189SAPI   C1321685   4.670   1.588   5.910  0.0853  0.5735 -0.7686
  189SAPI    H321686   4.615   1.494   5.932  1.6634 -0.4818 -1.2286
  189SAPI    O321687   4.674   1.598   5.770  0.0657 -0.0743 -0.2526
  189SAPI   HO321688   4.689   1.687   5.739 -0.4477  0.0007 -0.3008
  189SAPI   C1421689   4.584   1.695   5.968  0.2912 -0.5939 -0.5584
  189SAPI    H421690   4.604   1.789   5.912  3.1691 -0.7581  0.0132
  189SAPI    O421691   4.445   1.675   5.934  0.0393 -0.4418 -0.6078
  189SAPI   HO421692   4.410   1.590   5.961 -1.6435  0.0497 -1.1521
  189SAPI   C1521693   4.603   1.740   6.116  0.0377 -0.1603 -0.2378
  189SAPI    H521694   4.512   1.709   6.172 -0.3539 -0.0451 -0.8079
  189SAPI    O521695   4.606   1.882   6.124 -0.1640 -0.0159 -0.8494
  189SAPI   HO521696   4.687   1.916   6.086  1.7320 -0.8638  2.0980
  189SAPI   C1621697   4.729   1.695   6.194  0.1900  0.1265 -0.1510
  189SAPI    H621698   4.806   1.772   6.174  0.4980 -0.1249  0.0429
  189SAPI    O621699   4.714   1.689   6.335  0.3047 -0.1754  0.1415
  189SAPI   HO621700   4.707   1.596   6.358 -1.7008  0.0015  0.4028
  189SAPI   C1121701   4.786   1.568   6.132  0.0387  0.6792  0.3301
  189SAPI    H121702   4.721   1.479   6.144  1.6789 -0.7842 -1.0456
  189SAPI     P21703   4.949   1.434   6.303 -0.4078  0.1483 -0.3893
  189SAPI   O1321704   4.885   1.303   6.286  0.0799  0.1761  0.5695
  189SAPI   O1421705   4.924   1.497   6.436 -0.3318  0.2521 -0.2265
  189SAPI   O1221706   4.915   1.541   6.181  0.0489  0.2191 -0.6025
  189SAPI   O1121707   5.101   1.397   6.291  0.0960  0.4733 -0.5618
  189SAPI    C121708   5.180   1.428   6.176 -0.1989  0.2087  0.0250
  189SAPI    HA21709   5.209   1.534   6.159 -0.4747  0.1536 -0.8391
  189SAPI    HB21710   5.276   1.372   6.185 -0.0864 -0.3397 -3.4035
  189SAPI    C221711   5.121   1.372   6.041  0.6487 -0.5549  0.4981
  189SAPI    HS21712   5.032   1.428   6.005 -0.1871 -2.1552 -0.0133
  189SAPI   O2121713   5.088   1.231   6.068  1.1193  0.0874 -0.2811
  189SAPI   C2121714   4.968   1.180   6.014  0.1236 -0.2634 -0.2126
  189SAPI   O2221715   4.902   1.237   5.932 -0.0909 -0.0062  0.9958
  189SAPI   C2221716   4.953   1.033   6.068 -0.2083 -0.7826  0.2454
  189SAPI   H2R21717   5.052   0.981   6.068  1.0385  1.4749  0.0368
  189SAPI   H2S21718   4.946   1.056   6.177 -0.4748  1.3250 -0.1872
  189SAPI    C321719   5.238   1.381   5.935 -0.0145 -0.6768 -0.3693
  189SAPI    HX21720   5.338   1.342   5.964  1.2594  1.8604 -1.1102
  189SAPI    HY21721   5.255   1.490   5.925 -1.2799 -0.2632  1.5770
  189SAPI   O3121722   5.208   1.341   5.800 -0.3732 -0.2214  0.2866
  189SAPI   C3121723   5.237   1.209   5.778 -0.3146  0.4045 -0.3714
  189SAPI   O3221724   5.274   1.128   5.862  0.6339 -0.3010  0.0744
  189SAPI   C3221725   5.225   1.188   5.624 -0.0240  0.4599 -0.4972
  189SAPI   H2X21726   5.269   1.273   5.568 -0.0094  0.3845 -0.5998
  189SAPI   H2Y21727   5.118   1.186   5.596  0.3791 -1.4291 -2.0844
  189SAPI   C2321728   4.842   0.943   6.006 -0.7815 -0.1062  0.6426
  189SAPI   H3R21729   4.750   0.993   5.969 -0.4543 -1.5964 -2.5674
  189SAPI   H3S21730   4.804   0.870   6.081  0.9779 -2.0785 -0.2813
  189SAPI   C2421731   4.902   0.836   5.900 -0.1929  1.2203  0.0477
  189SAPI   H4R21732   4.931   0.895   5.810  2.9691 -1.5125 -0.9655
  189SAPI   H4S21733   4.824   0.760   5.882  3.1043 -2.1590 -1.3418
  189SAPI   C2521734   5.010   0.750   5.957 -0.2949  0.1065 -0.4505
  189SAPI   H5R21735   5.011   0.756   6.067  2.4267  0.5115 -0.4271
  189SAPI   C2621736   5.102   0.690   5.878  0.4780 -0.0243 -0.5483
  189SAPI   H6R21737   5.172   0.630   5.939  0.3598  1.6384  1.3584
  189SAPI   C2721738   5.107   0.670   5.734  0.4685  0.1644 -0.3175
  189SAPI   H7R21739   5.078   0.766   5.688 -1.5331 -0.0885  0.3129
  189SAPI   H7S21740   5.030   0.597   5.699  0.5741  0.5345 -1.3640
  189SAPI   C2821741   5.239   0.618   5.684  0.0751  0.3040 -0.6842
  189SAPI   H8R21742   5.325   0.648   5.746 -1.1473  4.9811 -0.8732
  189SAPI   C2921743   5.259   0.582   5.557 -0.0502  0.3324  0.2324
  189SAPI   H9R21744   5.362   0.550   5.533  0.0283 -0.1566  1.1411
  189SAPI  C21021745   5.155   0.563   5.450 -0.3552  0.0496 -0.6132
  189SAPI  H10R21746   5.066   0.627   5.467 -0.8678 -0.6806 -0.4596
  189SAPI  H10S21747   5.114   0.459   5.454  1.8011 -0.8542 -0.5841
  189SAPI  C21121748   5.213   0.588   5.313  0.1486 -0.1975  0.5293
  189SAPI  H11R21749   5.175   0.678   5.262  1.4378 -1.5784 -3.2357
  189SAPI  C21221750   5.252   0.492   5.227 -0.4546 -0.3920 -0.1931
  189SAPI  H12R21751   5.303   0.514   5.132  2.3691 -2.0575  0.8202
  189SAPI  C21321752   5.289   0.348   5.264 -0.0472 -0.1861 -0.5045
  189SAPI  H13R21753   5.207   0.284   5.225 -0.2329 -1.5555  1.9427
  189SAPI  H13S21754   5.289   0.327   5.373 -0.7579 -0.0529 -0.4722
  189SAPI  C21421755   5.423   0.291   5.208 -0.0504 -0.5949  0.0534
  189SAPI  H14R21756   5.500   0.260   5.280  2.1042 -0.5323 -2.0637
  189SAPI  C21521757   5.463   0.274   5.076 -0.1741 -0.7009 -0.3587
  189SAPI  H15R21758   5.567   0.241   5.062  0.2929  0.6073 -0.1255
  189SAPI  C21621759   5.372   0.323   4.962 -0.3919 -0.2456 -0.4613
  189SAPI  H16R21760   5.424   0.408   4.913  0.7239 -1.9214 -2.3077
  189SAPI  H16S21761   5.273   0.361   4.996  0.1883 -1.3236  2.7358
  189SAPI  C21721762   5.349   0.224   4.845  0.0831  0.2795 -0.5704
  189SAPI  H17R21763   5.297   0.274   4.760  0.2828  0.4369 -0.6034
  189SAPI  H17S21764   5.281   0.148   4.888  1.0621  0.7078  1.8882
  189SAPI  C21821765   5.481   0.167   4.793  0.6435 -1.0161  0.2541
  189SAPI  H18R21766   5.524   0.101   4.871 -1.2017 -1.6742  0.7600
  189SAPI  H18S21767   5.555   0.250   4.784  0.3060 -0.7580 -0.2086
  189SAPI  C21921768   5.463   0.075   4.670  0.3671  0.3736  0.2006
  189SAPI  H19R21769   5.430   0.131   4.580  1.7452  0.2875 -0.3750
  189SAPI  H19S21770   5.384  -0.001   4.691  1.3607 -0.1607  2.2072
  189SAPI  C22021771   5.593   0.014   4.614 -0.0704  0.4446  0.0720
  189SAPI  H20R21772   5.659   0.090   4.567  1.2352 -1.4708 -1.3810
  189SAPI  H20S21773   5.563  -0.058   4.535  1.0598 -2.0063  1.7432
  189SAPI  H20T21774   5.644  -0.037   4.699 -0.0892 -1.9562 -1.2542
  189SAPI   C3321775   5.298   1.053   5.595 -0.0136  0.7937 -0.2780
  189SAPI   H3X21776   5.269   0.964   5.655  1.9218  0.9187  0.9181
  189SAPI   H3Y21777   5.406   1.062   5.618  0.0442  0.8936 -0.5853
  189SAPI   C3421778   5.267   1.011   5.453 -0.0474  0.0799  0.7282
  189SAPI   H4X21779   5.165   1.041   5.420 -0.6502  0.0091  2.4346
  189SAPI   H4Y21780   5.274   0.901   5.459 -2.7312 -0.2689 -0.8583
  189SAPI   C3521781   5.362   1.056   5.351 -0.5280 -0.1644 -0.2288
  189SAPI   H5X21782   5.465   1.040   5.391 -1.4595 -1.2904  1.8455
  189SAPI   H5Y21783   5.350   1.167   5.347  0.0911 -0.0064  1.4093
  189SAPI   C3621784   5.340   0.995   5.212 -0.1909 -0.0554 -0.2866
  189SAPI   H6X21785   5.238   1.021   5.178  0.5028 -0.6179 -3.1310
  189SAPI   H6Y21786   5.361   0.886   5.209  1.4006  0.2350 -0.6482
  189SAPI   C3721787   5.426   1.051   5.093 -0.3637 -0.6898 -0.3121
  189SAPI   H7X21788   5.532   1.039   5.123 -0.2887  0.3400 -0.1075
  189SAPI   H7Y21789   5.402   1.160   5.096 -1.6457 -0.9292 -1.2952
  189SAPI   C3821790   5.382   0.999   4.960  0.9269  0.5708 -0.6953
  189SAPI   H8X21791   5.272   1.008   4.941  0.8882 -1.4387 -1.8013
  189SAPI   H8Y21792   5.403   0.890   4.952  2.2910  0.5857  1.7474
  189SAPI   C3921793   5.450   1.064   4.839 -0.7229 -0.4365 -0.7875
  189SAPI   H9X21794   5.555   1.029   4.829  1.6817  4.8240  2.0559
  189SAPI   H9Y21795   5.474   1.167   4.872 -1.9109 -0.0892 -0.9567
  189SAPI  C31021796   5.371   1.058   4.712  0.3467  0.1551  0.6997
  189SAPI  H10X21797   5.265   1.086   4.732 -0.4369 -1.4908 -0.8324
  189SAPI  H10Y21798   5.364   0.958   4.664  0.9132  1.4379 -2.3134
  189SAPI  C31121799   5.426   1.154   4.601  0.3801  0.1135 -0.3694
  189SAPI  H11X21800   5.534   1.139   4.580  0.1052 -1.2367 -0.9126
  189SAPI  H11Y21801   5.426   1.255   4.647  0.8605 -0.3063  0.5955
  189SAPI  C31221802   5.354   1.151   4.467 -0.1236  0.7342  0.5118
  189SAPI  H12X21803   5.375   1.243   4.408  1.9294 -0.6831 -1.1088
  189SAPI  H12Y21804   5.245   1.158   4.484 -0.8391 -1.3488 -2.5108
  189SAPI  C31321805   5.374   1.025   4.381 -0.5206 -0.4350  0.8437
  189SAPI  H13X21806   5.299   0.949   4.410 -1.6415 -0.8190 -2.5561
  189SAPI  H13Y21807   5.477   0.983   4.383 -0.2358  0.2671  2.1193
  189SAPI  C31421808   5.343   1.044   4.233  0.1428 -0.6563 -1.4102
  189SAPI  H14X21809   5.416   1.104   4.174  0.3620  1.9299  1.2547
  189SAPI  H14Y21810   5.241   1.089   4.235 -0.3862 -1.8052  0.8579
  189SAPI  C31521811   5.329   0.906   4.157  0.1691 -0.2668 -0.5762
  189SAPI  H15X21812   5.257   0.918   4.074  0.2808 -1.6390 -0.9084
  189SAPI  H15Y21813   5.288   0.830   4.227 -2.9770 -0.1133 -2.1139
  189SAPI  C31621814   5.457   0.871   4.094 -0.2984 -0.4379  0.5186
  189SAPI  H16X21815   5.537   0.875   4.171 -1.1940 -0.4350  1.4752
  189SAPI  H16Y21816   5.489   0.944   4.016  0.2305  0.6666  1.7292
  189SAPI  C31721817   5.449   0.723   4.036 -0.1611  0.3514 -0.4049
  189SAPI  H17X21818   5.365   0.715   3.963  0.4030  1.3562 -1.1944
  189SAPI  H17Y21819   5.412   0.650   4.111 -1.2066 -2.4542 -3.4020
  189SAPI  C31821820   5.589   0.682   3.993  0.5006  0.1943  0.6268
  189SAPI  H18X21821   5.594   0.577   3.957 -0.4211  0.4647 -0.3304
  189SAPI  H18Y21822   5.665   0.695   4.073  2.0523  0.0305 -0.7573
  189SAPI  H18Z21823   5.621   0.754   3.914  2.1406 -1.2716 -0.1137
  190SAPI   C1221824   6.729   3.508   6.861 -0.1960 -0.0970  0.6519
  190SAPI    H221825   6.654   3.538   6.785  1.0962  2.3338  0.2246
  190SAPI    O221826   6.837   3.587   6.828 -0.4734 -0.3328 -0.1767
  190SAPI   HO221827   6.896   3.524   6.786  0.0765  0.0910 -0.0560
  190SAPI   C1321828   6.672   3.533   7.000 -0.0479 -0.2235  0.3384
  190SAPI    H321829   6.599   3.452   7.022  0.3583 -0.7702 -0.2780
  190SAPI    O321830   6.607   3.662   6.998  0.1643  0.0850  0.1575
  190SAPI   HO321831   6.624   3.698   6.911  0.4633 -2.7738 -1.0946
  190SAPI   C1421832   6.778   3.515   7.107 -0.0783 -0.4698 -0.2424
  190SAPI    H421833   6.861   3.587   7.093 -1.2136  1.1385  0.9008
  190SAPI    O421834   6.727   3.536   7.245 -0.5965 -0.2007  0.6552
  190SAPI   HO421835   6.781   3.600   7.292 -0.4088  0.5084 -0.4818
  190SAPI   C1521836   6.836   3.378   7.092 -0.1973 -0.1272 -0.5368
  190SAPI    H521837   6.763   3.308   7.138  0.7970  0.0607  1.3984
  190SAPI    O521838   6.947   3.366   7.176  0.2157  0.1097  0.4367
  190SAPI   HO521839   7.026   3.399   7.131  0.3485 -0.9203 -0.1206
  190SAPI   C1621840   6.860   3.324   6.947 -0.1983 -0.7269 -0.1908
  190SAPI    H621841   6.956   3.367   6.913 -0.4001 -1.6207 -1.9768
  190SAPI    O621842   6.877   3.180   6.953 -0.4732 -0.3069 -0.1216
  190SAPI   HO621843   6.816   3.146   6.887 -0.0257  0.9575 -1.2252
  190SAPI   C1121844   6.766   3.363   6.844 -0.1552  0.2666  0.0095
  190SAPI    H121845   6.671   3.306   6.858 -0.4670  1.0566  1.2494
  190SAPI     P21846   6.779   3.221   6.608 -0.2193 -0.3308  0.1510
  190SAPI   O1321847   6.746   3.105   6.700  0.3509 -0.0105  0.5928
  190SAPI   O1421848   6.885   3.200   6.509  0.1023 -0.8388  0.4470
  190SAPI   O1221849   6.824   3.344   6.711  0.0363  0.3421  0.0294
  190SAPI   O1121850   6.658   3.270   6.523 -0.0554 -0.2329  0.4583
  190SAPI    C121851   6.525   3.264   6.590  0.6560  0.4432 -0.1353
  190SAPI    HA21852   6.473   3.169   6.565  1.0374  0.8944 -3.1029
  190SAPI    HB21853   6.520   3.283   6.699 -0.3612 -0.2497 -0.0497
  190SAPI    C221854   6.429   3.371   6.528 -0.2605  0.0959  0.6576
  190SAPI    HS21855   6.323   3.338   6.534 -0.2315 -0.0204  0.5443
  190SAPI   O2121856   6.439   3.390   6.381 -0.5609  0.5164 -0.7813
  190SAPI   C2121857   6.432   3.280   6.306 -0.6122 -0.9615 -0.0018
  190SAPI   O2221858   6.418   3.163   6.344  0.4946 -0.1208  0.9281
  190SAPI   C2221859   6.453   3.333   6.163 -0.1207  0.5952  0.0113
  190SAPI   H2R21860   6.389   3.422   6.142 -2.4222 -1.1367 -0.7758
  190SAPI   H2S21861   6.558   3.368   6.172  0.2440 -0.7278  1.4335
  190SAPI    C321862   6.447   3.510   6.598 -0.1531 -1.2430  0.5854
  190SAPI    HX21863   6.554   3.538   6.598 -0.3617 -0.0868 -2.4072
  190SAPI    HY21864   6.427   3.500   6.707 -0.7956  0.2892  0.6333
  190SAPI   O3121865   6.359   3.602   6.522 -0.8317  0.4827 -0.3393
  190SAPI   C3121866   6.427   3.692   6.440 -0.2940  0.8088  1.0008
  190SAPI   O3221867   6.547   3.712   6.446  0.0353  0.9326  0.9624
  190SAPI   C3221868   6.329   3.739   6.339 -0.1681 -0.7014 -0.2167
  190SAPI   H2X21869   6.323   3.849   6.354  2.5544 -0.4930 -0.2575
  190SAPI   H2Y21870   6.226   3.698   6.349  0.0660 -1.0920  0.7198
  190SAPI   C2321871   6.417   3.221   6.063 -0.9434  0.1558  1.1177
  190SAPI   H3R21872   6.307   3.203   6.061 -0.6995 -1.5886 -0.7772
  190SAPI   H3S21873   6.472   3.131   6.098 -1.0494 -0.8541 -1.1076
  190SAPI   C2421874   6.467   3.246   5.916 -0.0919 -0.1913  0.8247
  190SAPI   H4R21875   6.434   3.156   5.860 -1.6664  0.2865  0.9316
  190SAPI   H4S21876   6.578   3.241   5.925 -0.1125  1.1371  2.3195
  190SAPI   C2521877   6.413   3.371   5.845 -0.6357  0.3652  0.0096
  190SAPI   H5R21878   6.438   3.470   5.888 -3.0738  0.0971  2.2928
  190SAPI   C2621879   6.346   3.376   5.729 -0.2005  0.3117 -0.4325
  190SAPI   H6R21880   6.314   3.470   5.683 -0.1399  0.1195 -0.8794
  190SAPI   C2721881   6.302   3.255   5.648  0.0010  0.0800 -0.0114
  190SAPI   H7R21882   6.204   3.215   5.683 -0.7751  1.2795 -0.7245
  190SAPI   H7S21883   6.369   3.170   5.669  0.3421 -0.3806 -2.7053
  190SAPI   C2821884   6.288   3.299   5.504 -0.2151  0.2428 -0.4531
  190SAPI   H8R21885   6.386   3.325   5.461  0.0816  2.8007  1.5369
  190SAPI   C2921886   6.183   3.349   5.428 -0.0504  0.4303 -0.4980
  190SAPI   H9R21887   6.196   3.377   5.322  0.0886 -0.2499 -0.6671
  190SAPI  C21021888   6.043   3.349   5.480  0.7892  0.0529  0.2041
  190SAPI  H10R21889   6.017   3.453   5.509  0.7788  0.1025  0.0133
  190SAPI  H10S21890   6.024   3.291   5.573 -2.8854  0.6716 -0.0067
  190SAPI  C21121891   5.944   3.303   5.369  0.0626 -1.1419 -0.5113
  190SAPI  H11R21892   5.900   3.208   5.403 -1.2433 -1.3560 -2.6224
  190SAPI  C21221893   5.898   3.380   5.278 -0.1960  0.0990  0.6611
  190SAPI  H12R21894   5.827   3.329   5.211 -0.0552  0.6052  0.1130
  190SAPI  C21321895   5.945   3.514   5.228 -0.0845 -0.3818  0.3788
  190SAPI  H13R21896   6.006   3.507   5.136  0.1480  2.1338  0.2618
  190SAPI  H13S21897   6.012   3.564   5.302 -1.5833  0.2230  1.3922
  190SAPI  C21421898   5.836   3.620   5.209 -0.0371  0.0938 -0.5259
  190SAPI  H14R21899   5.758   3.617   5.286 -0.2133 -0.1566 -0.7095
  190SAPI  C21521900   5.818   3.699   5.101 -0.0083  0.8450  0.2650
  190SAPI  H15R21901   5.725   3.757   5.090 -0.8363 -0.5848 -0.6892
  190SAPI  C21621902   5.907   3.726   4.980 -0.0466  0.6195 -0.5049
  190SAPI  H16R21903   6.005   3.685   5.011 -0.6790  0.4095  1.3678
  190SAPI  H16S21904   5.925   3.835   4.971  0.0538  0.6771  0.3027
  190SAPI  C21721905   5.854   3.657   4.858  0.0916 -0.4373 -0.3284
  190SAPI  H17R21906   5.749   3.690   4.843  1.1356  3.0842 -0.8859
  190SAPI  H17S21907   5.843   3.548   4.871 -2.6096 -0.1038  0.7304
  190SAPI  C21821908   5.928   3.699   4.724  0.7535  0.6513  0.2612
  190SAPI  H18R21909   6.036   3.679   4.739  1.4569  3.6302 -0.2226
  190SAPI  H18S21910   5.913   3.809   4.720  1.8524  0.9095  2.2113
  190SAPI  C21921911   5.877   3.636   4.596  0.5237  0.8860 -0.3165
  190SAPI  H19R21912   5.948   3.656   4.513  1.3665  1.7467  0.5869
  190SAPI  H19S21913   5.776   3.677   4.573 -0.2189 -0.0831  1.1017
  190SAPI  C22021914   5.867   3.485   4.592  0.8800 -0.5528  0.6355
  190SAPI  H20R21915   5.807   3.447   4.678 -0.9371  0.4596 -0.1291
  190SAPI  H20S21916   5.968   3.440   4.590  0.7213 -0.9122  0.7260
  190SAPI  H20T21917   5.822   3.460   4.494  0.1188  0.7572  0.6143
  190SAPI   C3321918   6.381   3.739   6.191 -0.3094 -0.6582  0.0718
  190SAPI   H3X21919   6.419   3.639   6.161  2.4536 -0.2854  1.9228
  190SAPI   H3Y21920   6.461   3.816   6.183  0.1433 -1.0595  0.7119
  190SAPI   C3421921   6.274   3.787   6.085  0.3493  0.0105 -0.5197
  190SAPI   H4X21922   6.251   3.890   6.120 -1.2685 -0.8884  1.2569
  190SAPI   H4Y21923   6.178   3.733   6.103 -0.8356  2.4061  0.8564
  190SAPI   C3521924   6.313   3.772   5.934 -0.0570 -0.0442 -0.1039
  190SAPI   H5X21925   6.380   3.684   5.925  1.6992  0.8162  3.0127
  190SAPI   H5Y21926   6.370   3.865   5.911  0.2602  0.0764  1.1099
  190SAPI   C3621927   6.190   3.765   5.842 -0.2324 -0.3783  0.7977
  190SAPI   H6X21928   6.121   3.851   5.844  2.4274  2.1339 -2.6828
  190SAPI   H6Y21929   6.138   3.668   5.852  0.5776 -0.8890  0.2233
  190SAPI   C3721930   6.234   3.777   5.690  0.6513 -0.3178 -0.5674
  190SAPI   H7X21931   6.306   3.695   5.667 -0.2951 -0.7884 -1.9488
  190SAPI   H7Y21932   6.279   3.878   5.671  0.8679 -0.3257 -0.1096
  190SAPI   C3821933   6.120   3.766   5.594  0.6444 -0.0164  0.1776
  190SAPI   H8X21934   6.038   3.837   5.616  0.1279 -0.1616 -1.1965
  190SAPI   H8Y21935   6.067   3.669   5.600  2.6543 -1.2000 -0.3550
  190SAPI   C3921936   6.158   3.778   5.443 -0.2330 -0.0414 -0.0377
  190SAPI   H9X21937   6.070   3.753   5.379 -1.0449 -1.3035  1.5093
  190SAPI   H9Y21938   6.241   3.709   5.417 -1.5394 -1.1650 -1.4630
  190SAPI  C31021939   6.185   3.927   5.410 -0.6735 -0.4772 -0.0023
  190SAPI  H10X21940   6.282   3.960   5.454  0.0093 -2.0572 -0.2598
  190SAPI  H10Y21941   6.104   3.988   5.456 -1.9148  0.4846 -3.2138
  190SAPI  C31121942   6.203   3.943   5.256  0.9056 -0.1849 -0.2696
  190SAPI  H11X21943   6.138   3.875   5.196 -0.4837  0.2583  0.6899
  190SAPI  H11Y21944   6.309   3.921   5.231  1.6802  1.7190  1.0701
  190SAPI  C31221945   6.182   4.094   5.211  0.2771 -0.0912 -0.6052
  190SAPI  H12X21946   6.265   4.157   5.249 -1.4966  1.7750  0.3867
  190SAPI  H12Y21947   6.088   4.133   5.257  1.5605  3.5962 -0.7531
  190SAPI  C31321948   6.150   4.096   5.065  0.1597  0.9585  0.1207
  190SAPI  H13X21949   6.133   4.199   5.027  1.1297  1.1648  0.2109
  190SAPI  H13Y21950   6.062   4.034   5.039 -0.2344  1.8960 -0.8212
  190SAPI  C31421951   6.272   4.045   4.975 -0.1890 -0.1993  0.1947
  190SAPI  H14X21952   6.309   3.946   5.009 -0.6386 -0.4541 -0.0579
  190SAPI  H14Y21953   6.355   4.118   4.977  0.2391 -0.6819  0.1837
  190SAPI  C31521954   6.223   4.052   4.829  0.1406 -0.5063  0.3362
  190SAPI  H15X21955   6.216   4.158   4.797  2.7071 -0.8910 -1.8338
  190SAPI  H15Y21956   6.124   4.000   4.829  0.1956 -0.6492 -1.4483
  190SAPI  C31621957   6.312   3.985   4.719  0.1516  0.2432 -0.1377
  190SAPI  H16X21958   6.250   3.967   4.629 -0.7840 -0.9421  0.7134
  190SAPI  H16Y21959   6.347   3.883   4.749  0.4865  0.2550 -0.4798
  190SAPI  C31721960   6.436   4.069   4.684 -0.1848  0.0127 -0.9503
  190SAPI  H17X21961   6.522   4.041   4.749 -1.4264  1.2272  1.3579
  190SAPI  H17Y21962   6.416   4.177   4.696 -1.3467  0.0290 -2.6515
  190SAPI  C31821963   6.488   4.035   4.546  0.1136 -0.6612 -1.2730
  190SAPI  H18X21964   6.591   4.067   4.522  0.8735 -3.3874 -2.0561
  190SAPI  H18Y21965   6.426   4.077   4.464 -0.1176  0.4014 -0.5701
  190SAPI  H18Z21966   6.484   3.924   4.537 -0.3952 -0.5958 -1.8829
  191SAPI   C1221967   6.790   6.629   1.937 -0.0574 -0.1000 -0.5840
  191SAPI    H221968   6.858   6.713   1.962 -2.0585  1.0521  1.2944
  191SAPI    O221969   6.732   6.636   1.811  0.1811  0.3501 -0.6455
  191SAPI   HO221970   6.740   6.723   1.771 -1.2134  0.7149 -0.1805
  191SAPI   C1321971   6.875   6.507   1.953 -0.3458  0.1021  0.6159
  191SAPI    H321972   6.907   6.517   2.059 -0.3218  0.9934  0.5361
  191SAPI    O321973   6.992   6.521   1.878 -1.1477 -0.4310  0.2368
  191SAPI   HO321974   6.960   6.536   1.789  1.0552 -1.2081 -0.7621
  191SAPI   C1421975   6.805   6.375   1.929  0.2528 -0.0241  0.1773
  191SAPI    H421976   6.765   6.369   1.826  0.5158 -1.5110  0.1321
  191SAPI    O421977   6.896   6.268   1.944 -0.1200  0.7288 -0.5521
  191SAPI   HO421978   6.940   6.253   1.860 -1.8223  0.5460 -1.4564
  191SAPI   C1521979   6.676   6.357   2.010 -0.9038 -0.3671  0.1229
  191SAPI    H521980   6.709   6.321   2.109 -1.1089 -0.2038  0.2510
  191SAPI    O521981   6.603   6.253   1.948 -0.7096  0.5323 -0.5325
  191SAPI   HO521982   6.563   6.206   2.022  2.3161  1.9768  2.3016
  191SAPI   C1621983   6.601   6.487   2.033 -0.0492 -0.9624 -0.0659
  191SAPI    H621984   6.539   6.498   1.941  0.0873 -1.9793 -0.2972
  191SAPI    O621985   6.515   6.481   2.150 -0.5592  0.4200 -0.0258
  191SAPI   HO621986   6.567   6.527   2.217 -3.0527  1.5119  1.3117
  191SAPI   C1121987   6.682   6.615   2.044 -0.2366 -0.1060 -0.2476
  191SAPI    H121988   6.740   6.603   2.138 -1.1900  0.8802  0.4914
  191SAPI     P21989   6.673   6.865   2.136  0.2972 -0.5132 -0.1839
  191SAPI   O1321990   6.595   6.987   2.100  0.1174 -0.7364 -0.3031
  191SAPI   O1421991   6.817   6.878   2.129 -0.0436  0.6561 -0.4393
  191SAPI   O1221992   6.612   6.732   2.049 -0.3781 -0.6883  0.6930
  191SAPI   O1121993   6.627   6.830   2.285  0.1151  0.0237  0.1405
  191SAPI    C121994   6.685   6.882   2.402 -0.6775  0.1159 -0.0984
  191SAPI    HA21995   6.773   6.943   2.375 -0.8248 -0.4242 -1.9509
  191SAPI    HB21996   6.610   6.946   2.453 -2.1774 -2.2430  0.8260
  191SAPI    C221997   6.726   6.769   2.505 -0.7960 -1.0251  0.0155
  191SAPI    HS21998   6.799   6.707   2.448 -1.1557  1.5632 -3.6025
  191SAPI   O2121999   6.609   6.703   2.543 -0.1571  0.2872 -0.9627
  191SAPI   C2122000   6.556   6.609   2.476  0.0477 -0.0977 -0.0466
  191SAPI   O2222001   6.603   6.563   2.373  1.0065 -0.1135 -0.1357
  191SAPI   C2222002   6.428   6.553   2.553  0.4531  0.4867  0.6311
  191SAPI   H2R22003   6.456   6.523   2.656  0.7598 -0.9686  0.1371
  191SAPI   H2S22004   6.352   6.634   2.560  0.5355  0.6329 -0.0653
  191SAPI    C322005   6.791   6.839   2.629 -0.3695 -0.0865  0.2171
  191SAPI    HX22006   6.724   6.905   2.688 -1.6382  0.7091 -1.9672
  191SAPI    HY22007   6.864   6.914   2.591  0.0318  0.2305  1.5568
  191SAPI   O3122008   6.866   6.753   2.715  0.4839 -0.6929  0.2215
  191SAPI   C3122009   6.985   6.715   2.691  0.2357 -0.6500  0.9316
  191SAPI   O3222010   7.048   6.742   2.588 -0.3296 -0.2454  0.4037
  191SAPI   C3222011   7.040   6.614   2.789  0.0978 -0.2772  0.1149
  191SAPI   H2X22012   6.955   6.546   2.813  0.7634 -0.6825  1.3643
  191SAPI   H2Y22013   7.066   6.684   2.871  1.1005 -1.1083  0.5259
  191SAPI   C2322014   6.362   6.435   2.473  0.2948 -0.7825  0.6377
  191SAPI   H3R22015   6.434   6.351   2.469 -0.4518 -1.3801 -0.4286
  191SAPI   H3S22016   6.353   6.463   2.366  0.4450  0.0462  0.8329
  191SAPI   C2422017   6.239   6.373   2.532  0.7108 -0.3096 -0.1353
  191SAPI   H4R22018   6.259   6.349   2.639 -3.0870 -0.9236  0.5993
  191SAPI   H4S22019   6.219   6.277   2.480  0.5301 -0.2884 -0.1072
  191SAPI   C2522020   6.123   6.477   2.529  0.1988 -0.6269 -0.1058
  191SAPI   H5R22021   6.102   6.497   2.422  1.1776  0.9676 -0.0459
  191SAPI   C2622022   6.064   6.545   2.628 -0.5151  0.7597  0.7196
  191SAPI   H6R22023   5.971   6.598   2.605 -1.2429 -1.5446 -2.2342
  191SAPI   C2722024   6.093   6.525   2.773  0.5539 -0.3673  0.3144
  191SAPI   H7R22025   6.084   6.625   2.821 -0.0110  0.0173 -0.5719
  191SAPI   H7S22026   6.201   6.504   2.786  1.0598 -0.3035 -3.0181
  191SAPI   C2822027   6.017   6.411   2.832 -0.1371 -0.2041 -0.6100
  191SAPI   H8R22028   5.953   6.357   2.761 -1.7782 -1.0023  1.3666
  191SAPI   C2922029   6.005   6.380   2.964  0.4470 -0.2103  0.1083
  191SAPI   H9R22030   5.958   6.283   2.986 -2.4036  1.4403  1.8001
  191SAPI  C21022031   6.054   6.449   3.088  0.5020 -0.1418  0.4863
  191SAPI  H10R22032   5.977   6.461   3.168 -0.0644 -0.0966 -0.0569
  191SAPI  H10S22033   6.077   6.556   3.067 -0.9719 -0.3682 -2.9302
  191SAPI  C21122034   6.166   6.391   3.168  0.0919  0.3629 -0.1396
  191SAPI  H11R22035   6.238   6.331   3.111 -1.5358 -0.1039 -1.8037
  191SAPI  C21222036   6.192   6.407   3.297  0.7167 -0.8959 -0.5206
  191SAPI  H12R22037   6.283   6.360   3.337  1.3979 -0.6697 -1.7622
  191SAPI  C21322038   6.109   6.485   3.398  0.5729  0.4381  0.3512
  191SAPI  H13R22039   6.002   6.460   3.382  1.0785 -0.7846 -1.3740
  191SAPI  H13S22040   6.106   6.590   3.362 -1.5776 -0.5072 -2.5921
  191SAPI  C21422041   6.129   6.478   3.544  0.1740 -0.0116 -0.4504
  191SAPI  H14R22042   6.043   6.439   3.599 -0.9384  0.6942 -1.6288
  191SAPI  C21522043   6.225   6.536   3.621  0.3841  0.2423  0.9080
  191SAPI  H15R22044   6.205   6.531   3.729 -0.8792 -0.1709  0.6744
  191SAPI  C21622045   6.349   6.601   3.569 -0.1945  0.6937 -0.0947
  191SAPI  H16R22046   6.374   6.684   3.639 -1.9459  1.7055 -0.6039
  191SAPI  H16S22047   6.328   6.640   3.467 -1.4675  0.0173 -0.1177
  191SAPI  C21722048   6.465   6.501   3.558  0.0851 -0.7117  0.1771
  191SAPI  H17R22049   6.547   6.546   3.498  0.2095 -0.7350  0.3307
  191SAPI  H17S22050   6.426   6.410   3.507 -1.4275  0.1197 -0.2118
  191SAPI  C21822051   6.542   6.475   3.689 -0.1101 -0.9899  0.1932
  191SAPI  H18R22052   6.559   6.558   3.762 -0.8356 -2.7967  2.5525
  191SAPI  H18S22053   6.639   6.430   3.658 -0.1883 -0.8912 -0.1929
  191SAPI  C21922054   6.469   6.377   3.781 -0.2783  0.3008 -1.1823
  191SAPI  H19R22055   6.425   6.292   3.724  1.3828 -1.4545  0.0504
  191SAPI  H19S22056   6.383   6.432   3.826 -0.0350  0.2839 -0.6857
  191SAPI  C22022057   6.553   6.316   3.890 -0.1809  0.0928  0.0807
  191SAPI  H20R22058   6.651   6.288   3.845  0.0640 -1.9606  1.7569
  191SAPI  H20S22059   6.507   6.223   3.927 -1.5660  0.8259  0.2582
  191SAPI  H20T22060   6.581   6.385   3.973  1.4271  1.1448 -1.2416
  191SAPI   C3322061   7.174   6.550   2.750 -0.1345 -0.2317 -0.7230
  191SAPI   H3X22062   7.241   6.618   2.694 -0.0854 -0.1175 -0.5274
  191SAPI   H3Y22063   7.143   6.486   2.665 -2.3316 -1.6636  1.0132
  191SAPI   C3422064   7.250   6.488   2.868  0.0691 -0.2084 -0.2566
  191SAPI   H4X22065   7.331   6.425   2.825 -0.8164 -1.4078 -0.2331
  191SAPI   H4Y22066   7.206   6.418   2.942  0.5877  1.1060  1.3607
  191SAPI   C3522067   7.315   6.590   2.961  0.0654 -0.1971  0.4116
  191SAPI   H5X22068   7.236   6.652   3.009 -2.3774 -2.2499 -0.6825
  191SAPI   H5Y22069   7.387   6.653   2.906 -0.5808  0.8939  0.7967
  191SAPI   C3622070   7.393   6.528   3.081 -0.2227  0.2069  0.2461
  191SAPI   H6X22071   7.449   6.611   3.128  1.8057 -0.9496 -0.0200
  191SAPI   H6Y22072   7.463   6.453   3.037 -3.2767 -1.2277 -2.7495
  191SAPI   C3722073   7.320   6.451   3.193 -0.8762 -0.6172 -0.9757
  191SAPI   H7X22074   7.296   6.350   3.154 -0.6880 -0.7006 -0.8782
  191SAPI   H7Y22075   7.227   6.498   3.232  1.5496  1.5311  2.8813
  191SAPI   C3822076   7.408   6.442   3.320  0.0783 -0.0731 -0.4767
  191SAPI   H8X22077   7.447   6.540   3.354 -0.9008  0.3037 -0.4360
  191SAPI   H8Y22078   7.497   6.380   3.293  1.4432  2.1284 -1.3822
  191SAPI   C3922079   7.339   6.368   3.439  0.1765 -0.2792  0.2796
  191SAPI   H9X22080   7.290   6.277   3.399 -0.4488  1.4624 -3.2632
  191SAPI   H9Y22081   7.256   6.435   3.472 -0.1609 -0.7871  0.4787
  191SAPI  C31022082   7.433   6.333   3.551  0.4297 -0.0140  0.4803
  191SAPI  H10X22083   7.473   6.430   3.586  2.2074  0.2641 -2.1045
  191SAPI  H10Y22084   7.509   6.261   3.514 -1.8043 -2.0782 -0.3756
  191SAPI  C31122085   7.367   6.263   3.674  0.2267 -0.2060  0.4324
  191SAPI  H11X22086   7.337   6.164   3.632 -0.6042  0.6665 -1.1559
  191SAPI  H11Y22087   7.270   6.310   3.698  0.8249  1.4046 -0.1697
  191SAPI  C31222088   7.448   6.240   3.797  0.3804  0.1848 -0.3220
  191SAPI  H12X22089   7.486   6.339   3.829  2.8223 -0.3097 -1.5157
  191SAPI  H12Y22090   7.533   6.171   3.780 -1.2404 -1.7962 -0.9131
  191SAPI  C31322091   7.357   6.199   3.912 -0.0327  0.2734 -0.2851
  191SAPI  H13X22092   7.301   6.106   3.886 -0.4815  0.3207  0.4677
  191SAPI  H13Y22093   7.280   6.274   3.940 -1.3200 -1.6027  1.4603
  191SAPI  C31422094   7.435   6.178   4.038 -0.2545 -0.2586 -0.8568
  191SAPI  H14X22095   7.483   6.270   4.079 -2.0915  1.5221 -2.4354
  191SAPI  H14Y22096   7.518   6.108   4.012 -0.3617 -1.6437  2.2014
  191SAPI  C31522097   7.361   6.106   4.150 -0.4033  0.6854 -0.0735
  191SAPI  H15X22098   7.429   6.087   4.236 -1.8546 -1.5374  0.6965
  191SAPI  H15Y22099   7.326   6.008   4.110  0.1052 -0.3767  1.9527
  191SAPI  C31622100   7.239   6.179   4.204 -0.0578 -1.2284 -0.3063
  191SAPI  H16X22101   7.168   6.194   4.121 -3.0484  0.1660  2.2956
  191SAPI  H16Y22102   7.277   6.281   4.226 -2.1851  0.0095 -2.0904
  191SAPI  C31722103   7.162   6.116   4.322 -0.4699  0.3817 -0.6596
  191SAPI  H17X22104   7.119   6.026   4.273  3.2062 -1.9515 -0.0091
  191SAPI  H17Y22105   7.085   6.192   4.348 -0.5106  0.1011  0.0713
  191SAPI  C31822106   7.252   6.086   4.442 -0.7378 -0.0951  0.0154
  191SAPI  H18X22107   7.191   6.074   4.534 -0.6603 -0.5613  0.0076
  191SAPI  H18Y22108   7.332   6.161   4.455 -0.6979 -0.3068  1.0686
  191SAPI  H18Z22109   7.303   5.989   4.424  1.8488  1.1140  0.3660
  192SAPI   C1222110   4.757   4.755   2.063  0.0974  0.3117  0.5766
  192SAPI    H222111   4.681   4.681   2.095  0.0213  0.1947  0.1334
  192SAPI    O222112   4.818   4.802   2.180  0.2833 -0.8501 -0.1808
  192SAPI   HO222113   4.747   4.831   2.238 -0.5972  0.7209 -1.9120
  192SAPI   C1322114   4.855   4.684   1.974  0.8030  0.0307  0.2787
  192SAPI    H322115   4.810   4.664   1.874  2.3636 -2.4506 -0.0347
  192SAPI    O322116   4.890   4.556   2.025 -0.1995 -0.4306 -0.5005
  192SAPI   HO322117   4.836   4.487   1.985 -1.2461  0.4670 -0.6634
  192SAPI   C1422118   4.971   4.773   1.941 -0.3697  0.1862  0.1332
  192SAPI    H422119   5.016   4.787   2.041  0.1201 -0.1789 -0.0305
  192SAPI    O422120   5.074   4.711   1.859  0.0834 -0.0987  0.5869
  192SAPI   HO422121   5.151   4.766   1.845  0.2935 -0.8768 -1.9433
  192SAPI   C1522122   4.927   4.906   1.878 -1.0350  0.2139 -0.1095
  192SAPI    H522123   4.945   4.891   1.770 -1.2631 -0.2042 -0.0901
  192SAPI    O522124   5.026   5.012   1.904 -0.0090  0.1633 -0.6363
  192SAPI   HO522125   5.099   5.002   1.842 -0.8952 -0.2892 -1.6466
  192SAPI   C1622126   4.783   4.950   1.896  0.3359 -0.1022 -0.4763
  192SAPI    H622127   4.793   5.039   1.961 -1.3995 -0.5881  0.4990
  192SAPI    O622128   4.735   5.000   1.773 -0.4519  0.6470 -0.6343
  192SAPI   HO622129   4.720   5.092   1.796 -1.3136  0.2764  0.4069
  192SAPI   C1122130   4.690   4.858   1.969 -0.1979 -1.0198  0.5657
  192SAPI    H122131   4.648   4.803   1.883 -0.4087  2.1852 -1.5311
  192SAPI     P22132   4.434   4.900   2.048 -0.2393  0.3270 -0.1525
  192SAPI   O1322133   4.410   4.756   2.040 -0.8290  0.0286 -0.6841
  192SAPI   O1422134   4.356   4.982   1.951 -0.1419 -0.9099  0.3916
  192SAPI   O1222135   4.595   4.940   2.040  0.2024  0.1782  0.2455
  192SAPI   O1122136   4.385   4.939   2.193 -0.1736 -0.3180  0.3838
  192SAPI    C122137   4.373   5.074   2.228  0.0618 -0.2156 -0.7294
  192SAPI    HA22138   4.394   5.140   2.141  1.9158 -0.9209 -0.8636
  192SAPI    HB22139   4.276   5.105   2.272  0.9156  0.3513  0.8118
  192SAPI    C222140   4.477   5.103   2.344  0.4004 -0.2558  0.6652
  192SAPI    HS22141   4.581   5.080   2.313  0.9153  0.4278  1.7931
  192SAPI   O2122142   4.457   5.025   2.470  0.7019  0.3522 -0.0331
  192SAPI   C2122143   4.506   4.903   2.468 -1.0512  0.8637 -0.1839
  192SAPI   O2222144   4.570   4.852   2.376  0.3524  0.2139 -0.1013
  192SAPI   C2222145   4.467   4.830   2.597  0.8551  0.5439 -0.4601
  192SAPI   H2R22146   4.410   4.895   2.666 -1.0169 -0.9579 -0.5137
  192SAPI   H2S22147   4.396   4.751   2.565  1.4070 -0.4036  0.5971
  192SAPI    C322148   4.475   5.254   2.392  0.6280 -0.3451 -0.1186
  192SAPI    HX22149   4.369   5.282   2.410  0.3399 -1.4173 -0.1185
  192SAPI    HY22150   4.504   5.326   2.312  1.0743  1.6269  1.7189
  192SAPI   O3122151   4.559   5.277   2.505 -0.4661 -0.2955  0.3145
  192SAPI   C3122152   4.682   5.309   2.488  0.1894  0.4666  0.1519
  192SAPI   O3222153   4.743   5.321   2.383  0.9088  0.1378  0.1841
  192SAPI   C3222154   4.745   5.350   2.622 -0.6974 -0.2243  0.6390
  192SAPI   H2X22155   4.849   5.312   2.631 -0.6560  0.2075  2.2459
  192SAPI   H2Y22156   4.685   5.290   2.694  0.5070 -2.7386 -0.3412
  192SAPI   C2322157   4.590   4.775   2.676 -0.3167  0.5891 -0.1624
  192SAPI   H3R22158   4.633   4.859   2.735 -1.1235 -0.1455  1.5524
  192SAPI   H3S22159   4.663   4.748   2.597 -0.8032  0.4290 -0.5626
  192SAPI   C2422160   4.568   4.644   2.755  0.0757  0.0869 -0.2718
  192SAPI   H4R22161   4.529   4.561   2.693 -1.1261  1.1669 -1.0055
  192SAPI   H4S22162   4.486   4.671   2.825  0.3391  0.2363 -0.0149
  192SAPI   C2522163   4.704   4.623   2.825 -0.0884 -0.5593 -0.9533
  192SAPI   H5R22164   4.792   4.595   2.765  2.7487  3.9533  0.6019
  192SAPI   C2622165   4.711   4.623   2.958  0.5549 -0.3020  0.0444
  192SAPI   H6R22166   4.809   4.607   3.005  0.9728  0.7154 -0.4615
  192SAPI   C2722167   4.597   4.641   3.055  0.2803  0.2502 -0.4120
  192SAPI   H7R22168   4.501   4.601   3.016 -0.3580 -0.8011  2.0495
  192SAPI   H7S22169   4.587   4.750   3.071 -0.3440  0.1891 -0.3796
  192SAPI   C2822170   4.624   4.572   3.195  0.7382  0.1351 -0.4855
  192SAPI   H8R22171   4.566   4.479   3.203 -2.3262  1.7372 -2.0863
  192SAPI   C2922172   4.688   4.621   3.298  0.3262 -1.0482 -0.2466
  192SAPI   H9R22173   4.692   4.550   3.382  0.6977 -0.3597  0.3281
  192SAPI  C21022174   4.779   4.747   3.307 -0.3636 -0.1091 -0.4057
  192SAPI  H10R22175   4.742   4.800   3.397 -1.1254  0.6327 -1.1399
  192SAPI  H10S22176   4.759   4.812   3.220 -2.1596  0.7196  0.5670
  192SAPI  C21122177   4.932   4.721   3.317  0.4379 -0.6292 -0.2269
  192SAPI  H11R22178   4.976   4.657   3.239  1.7607 -0.0787  0.0471
  192SAPI  C21222179   5.008   4.742   3.424 -0.5060  0.6748  0.1098
  192SAPI  H12R22180   5.116   4.740   3.406 -0.8570 -1.0078 -2.1237
  192SAPI  C21322181   4.968   4.805   3.557  0.3610 -0.9909  0.2497
  192SAPI  H13R22182   4.892   4.884   3.539 -1.5114 -2.5934  0.7933
  192SAPI  H13S22183   5.052   4.865   3.598 -0.6124  0.1394  0.6290
  192SAPI  C21422184   4.919   4.717   3.669 -0.1384 -0.0370  0.6807
  192SAPI  H14R22185   4.958   4.614   3.673  1.4565  0.5725  2.3763
  192SAPI  C21522186   4.842   4.765   3.775 -0.3536 -0.1052  0.1674
  192SAPI  H15R22187   4.807   4.694   3.851 -0.1074  0.1770  0.5446
  192SAPI  C21622188   4.767   4.894   3.781 -0.1507  0.1034  0.1125
  192SAPI  H16R22189   4.737   4.933   3.681 -2.0378 -1.0754  0.1627
  192SAPI  H16S22190   4.834   4.971   3.825 -0.8682  1.9081 -1.7475
  192SAPI  C21722191   4.637   4.884   3.867 -0.3726 -0.5466 -0.2192
  192SAPI  H17R22192   4.580   4.795   3.835 -2.7179  0.3392  1.2336
  192SAPI  H17S22193   4.575   4.972   3.839 -1.8222 -1.4210  0.1533
  192SAPI  C21822194   4.645   4.902   4.015 -0.1734  0.1897  0.5420
  192SAPI  H18R22195   4.703   4.829   4.077 -1.0079 -0.0752  1.0180
  192SAPI  H18S22196   4.539   4.898   4.048 -0.4095  0.0359 -0.2177
  192SAPI  C21922197   4.696   5.042   4.060  0.6439  0.1539  0.4622
  192SAPI  H19R22198   4.641   5.116   3.999  2.0457 -0.5904 -1.8512
  192SAPI  H19S22199   4.802   5.058   4.030 -0.2490  0.7521 -2.6666
  192SAPI  C22022200   4.670   5.056   4.212 -0.2933  0.1287 -0.4096
  192SAPI  H20R22201   4.703   5.157   4.243 -3.3157  1.1003 -0.0078
  192SAPI  H20S22202   4.719   4.984   4.281 -2.9493 -0.6332  0.8037
  192SAPI  H20T22203   4.560   5.047   4.228 -0.1877 -1.7757 -0.5467
  192SAPI   C3322204   4.742   5.505   2.643 -0.0255 -0.1146  0.1943
  192SAPI   H3X22205   4.645   5.518   2.696  1.0484  1.9118  1.7609
  192SAPI   H3Y22206   4.743   5.545   2.539  1.3765  0.3526  0.3769
  192SAPI   C3422207   4.866   5.557   2.712  0.6974 -0.2499  0.3809
  192SAPI   H4X22208   4.866   5.667   2.693  1.0972 -0.5049 -1.2792
  192SAPI   H4Y22209   4.961   5.511   2.676  0.5428  0.7602 -1.4865
  192SAPI   C3522210   4.836   5.551   2.862  0.1326  0.2488 -0.8135
  192SAPI   H5X22211   4.826   5.444   2.888 -2.1847  0.6555  0.2696
  192SAPI   H5Y22212   4.739   5.602   2.882  0.0341  0.5739 -2.0295
  192SAPI   C3622213   4.954   5.602   2.945  0.0362 -0.0346  0.8020
  192SAPI   H6X22214   4.950   5.712   2.960 -0.1517  0.0628  0.0697
  192SAPI   H6Y22215   5.052   5.594   2.893  0.3488  0.6752  1.2574
  192SAPI   C3722216   4.972   5.544   3.085  0.1558  0.2551 -0.0092
  192SAPI   H7X22217   5.027   5.448   3.088 -0.2504  0.0476  2.4518
  192SAPI   H7Y22218   4.869   5.530   3.123 -0.2265  1.0577 -0.7255
  192SAPI   C3822219   5.037   5.646   3.183 -0.1369  0.3483 -0.3608
  192SAPI   H8X22220   4.959   5.724   3.190  0.0629  0.4239  1.7818
  192SAPI   H8Y22221   5.137   5.685   3.157 -0.1788  0.8878  0.2669
  192SAPI   C3922222   5.055   5.576   3.325 -0.3602  0.2665 -0.8203
  192SAPI   H9X22223   5.128   5.493   3.337 -3.3169 -2.4933 -0.7140
  192SAPI   H9Y22224   4.957   5.529   3.346 -0.5529  0.6626 -0.8275
  192SAPI  C31022225   5.074   5.689   3.433 -0.3111 -0.0636 -0.8018
  192SAPI  H10X22226   4.985   5.752   3.412 -0.7935 -0.0122  1.2066
  192SAPI  H10Y22227   5.171   5.742   3.435 -0.4025  0.0831  0.1991
  192SAPI  C31122228   5.061   5.635   3.577  0.3019 -0.3360 -0.3177
  192SAPI  H11X22229   5.132   5.551   3.590  0.1813 -0.1148  2.1069
  192SAPI  H11Y22230   4.953   5.610   3.585  0.0401  0.4204 -1.2812
  192SAPI  C31222231   5.078   5.745   3.682 -0.0100 -0.1111 -0.1781
  192SAPI  H12X22232   4.994   5.818   3.674 -0.3176 -0.6240 -2.3431
  192SAPI  H12Y22233   5.178   5.793   3.672  0.3615 -0.7564  0.3862
  192SAPI  C31322234   5.067   5.700   3.835  0.2290 -0.1332  0.1330
  192SAPI  H13X22235   5.152   5.631   3.849  0.2136 -0.4849 -1.3214
  192SAPI  H13Y22236   4.972   5.644   3.849 -1.4693  2.2588 -1.0906
  192SAPI  C31422237   5.077   5.824   3.921 -0.1708 -0.0514 -0.3147
  192SAPI  H14X22238   5.012   5.909   3.893  0.4402  0.5171 -0.0378
  192SAPI  H14Y22239   5.179   5.863   3.899 -1.0394  1.7979 -1.2927
  192SAPI  C31522240   5.053   5.787   4.074  0.5236 -0.7027  0.7440
  192SAPI  H15X22241   4.953   5.740   4.084 -0.1894  0.5898 -0.0558
  192SAPI  H15Y22242   5.064   5.888   4.119  0.4416  2.3058 -4.9553
  192SAPI  C31622243   5.162   5.703   4.137  0.6320  0.0979  0.3240
  192SAPI  H16X22244   5.251   5.765   4.113 -0.2088  1.1403 -0.1782
  192SAPI  H16Y22245   5.182   5.608   4.082 -4.0391  0.2563 -2.1305
  192SAPI  C31722246   5.148   5.692   4.291 -0.0541 -0.0206  0.0546
  192SAPI  H17X22247   5.060   5.624   4.295 -0.1597  0.0697 -0.5520
  192SAPI  H17Y22248   5.125   5.790   4.338  0.1841 -0.6332  1.5057
  192SAPI  C31822249   5.268   5.613   4.351 -0.2708  0.0170 -0.3469
  192SAPI  H18X22250   5.248   5.574   4.453  0.7394  0.5742  0.0785
  192SAPI  H18Y22251   5.357   5.679   4.345 -0.1299 -0.1688 -0.3349
  192SAPI  H18Z22252   5.289   5.519   4.294  0.9973  1.1058 -1.7554
  193POT    POT22253   4.878   3.965   1.611 -0.1639 -0.5545  0.0194
  194POT    POT22254   5.502   2.319   1.689 -0.2492 -0.0834 -0.0581
  195POT    POT22255   4.476   0.740   2.299 -0.2969  0.1470 -0.0175
  196POT    POT22256   0.042   2.902   1.813 -0.3976  0.2409  0.0094
  197POT    POT22257   3.772   2.850   0.928 -0.1115  0.6307 -0.1500
  198POT    POT22258   3.122   2.300   1.126 -0.0561 -0.1688  0.2156
  199POT    POT22259   6.055   1.265   8.553 -0.3882 -0.0765  0.2935
  200POT    POT22260   5.665   3.471   0.022  0.1840 -0.0429  0.2508
  201POT    POT22261   1.757   6.532   0.846  0.0558  0.0531 -0.2108
  202POT    POT22262   3.889   6.581   1.072 -0.5915  0.1410 -0.1203
  203POT    POT22263   0.225   3.428   6.445 -0.1530  0.0197 -0.0312
  204POT    POT22264   1.172   3.739   6.610 -0.0575  0.0069  0.0637
  205POT    POT22265   3.636   1.577   7.974 -0.1173  0.0217  0.2673
  206POT    POT22266   3.507   1.182   0.018  0.1239  0.2403  0.0001
  207POT    POT22267   0.433   0.055   1.902 -0.5564 -0.3107 -0.1532
  208POT    POT22268   3.159   0.533   8.175  0.2159 -0.1463 -0.0257
  209POT    POT22269   5.593   4.568   6.870  0.2255 -0.6602 -0.3227
  210POT    POT22270   5.399   4.302   0.342  0.0457 -0.4056 -0.0250
  211POT    POT22271   3.465   6.023   6.525 -0.3546 -0.1378 -0.1200
  212POT    POT22272   3.541   1.358   6.501  0.1185 -0.5022  0.1632
  213POT    POT22273   5.226   3.692   2.094  0.1804  0.0798 -0.0933
  214POT    POT22274   6.490   3.445   0.590  0.2384 -0.2965 -0.1257
  215POT    POT22275   5.839   2.109   7.405 -0.0688  0.0335  0.3874
  216POT    POT22276   3.470   2.554   7.321 -0.3869  0.0136 -0.5587
  217POT    POT22277   5.265   1.184   1.545 -0.3423 -0.1623 -0.0563
  218POT    POT22278   0.555   6.014   1.429  0.1886  0.2612 -0.0110
  219POT    POT22279   5.490   1.962   7.307  0.1638  0.0991 -0.1993
  220POT    POT22280   1.672   2.623   1.966 -0.1917  0.0488  0.1714
  221POT    POT22281   3.351   3.930   8.255  0.2189  0.0491  0.0942
  222POT    POT22282   1.107   3.370   0.304  0.0832 -0.4225  0.0428
  223POT    POT22283   0.842   4.046   1.243 -0.3383  0.0349 -0.3567
  224POT    POT22284   2.264   4.812   6.949 -0.2487 -0.1740 -0.0797
  225POT    POT22285   0.220   2.739   7.489  0.0368  0.0234  0.5111
  226POT    POT22286   1.454   1.052   7.299 -0.0826 -0.2698  0.1529
  227POT    POT22287   4.272   0.520   7.624  0.0284 -0.5146 -0.1498
  228POT    POT22288   2.181   2.603   0.897 -0.0461  0.4378  0.2367
  229POT    POT22289   5.283   5.965   0.301  0.0939  0.0668 -0.0902
  230POT    POT22290   5.143   6.138   8.454 -0.1077  0.0370  0.3243
  231POT    POT22291   4.049   2.380   8.082 -0.1423 -0.0001 -0.0428
  232POT    POT22292   6.586   5.917   7.739 -0.4849  0.0159 -0.0777
  233CLA    CLA22293   3.300   1.702   8.438 -0.1349  0.1132  0.3589
  234CLA    CLA22294   3.439   0.515   8.261 -0.3742 -0.3078 -0.0600
  235CLA    CLA22295   5.363   2.997   2.479  0.4464 -0.0305  0.1204
  236CLA    CLA22296   3.692   1.379   8.725 -0.2206 -0.0536  0.1029
  237CLA    CLA22297   5.187   0.111   8.331  0.0399 -0.0419 -0.0495
  238CLA    CLA22298   5.252   2.093   7.429  0.3595  0.0861  0.1332
  239CLA    CLA22299   4.016   1.737   1.362 -0.2328  0.0682  0.2657
  240CLA    CLA22300   6.393   5.941   7.249 -0.0030 -0.0725 -0.4122
  241CLA    CLA22301   4.803   4.011   8.751 -0.0149  0.0129 -0.1144
  242CLA    CLA22302   6.106   4.566   7.331  0.3787  0.0872  0.3095
  243CLA    CLA22303   0.562   6.270   0.531 -0.4347 -0.0882 -0.0496
  244CLA    CLA22304   6.220   6.356   8.327 -0.0353 -0.0731 -0.1592
  245CLA    CLA22305   4.859   5.520   0.233  0.0599 -0.3881 -0.0345
  246CLA    CLA22306   1.858   1.917   0.958 -0.4863  0.3983 -0.0443
  247CLA    CLA22307   2.502   6.544   0.191  0.1335 -0.3900 -0.1894
  248CLA    CLA22308   4.798   1.339   1.519  0.1253 -0.1990 -0.0675
  249TIP3   OH222309   1.600   4.539   0.845  0.1706  0.0206  0.6326
  249TIP3    H122310   1.547   4.617   0.861  1.4021  0.8595  0.7151
  249TIP3    H222311   1.613   4.538   0.750  1.1008  0.5500  0.7524
  250TIP3   OH222312   5.888   6.824   8.316 -0.8812  0.2229  0.0940
  250TIP3    H122313   5.945   6.806   8.391  2.0386  2.5903 -1.3099
  250TIP3    H222314   5.811   6.867   8.354  0.7783  1.9075  1.7851
  251TIP3   OH222315   1.440   0.802   7.119 -0.6840  0.3608  0.0327
  251TIP3    H122316   1.505   0.832   7.056 -0.3686  0.5016  0.4167
  251TIP3    H222317   1.369   0.866   7.114 -0.0076  1.2099  0.8644
  252TIP3   OH222318   4.444   2.472   7.026 -0.3186  0.1693  0.0721
  252TIP3    H122319   4.535   2.446   7.008 -0.7896 -0.9741 -0.8325
  252TIP3    H222320   4.446   2.568   7.026  1.0784  0.1728  1.1557
  253TIP3   OH222321   6.461   0.352   2.480  0.2276  0.2899 -0.5164
  253TIP3    H122322   6.538   0.325   2.530 -0.6741 -2.0527 -0.2386
  253TIP3    H222323   6.419   0.419   2.533  0.8039 -0.1352  0.4984
  254TIP3   OH222324   0.782   6.214   7.861 -0.1705 -0.0684  1.2335
  254TIP3    H122325   0.779   6.137   7.805  0.5954  0.7450  0.0252
  254TIP3    H222326   0.791   6.179   7.950  0.9460 -1.3619  0.6453
  255TIP3   OH222327   2.350   6.704   0.919 -0.0420  0.6432  0.1106
  255TIP3    H122328   2.445   6.706   0.902 -0.2063  0.5601 -0.8592
  255TIP3    H222329   2.334   6.616   0.951  0.3890  1.0253  1.4416
  256TIP3   OH222330   5.913   6.129   8.125 -0.3800  0.2058  0.1160
  256TIP3    H122331   5.885   6.053   8.073  0.3460 -0.1103  0.1677
  256TIP3    H222332   5.875   6.114   8.212 -2.3830  1.1979 -0.5168
  257TIP3   OH222333   4.364   3.282   0.660  0.2371 -0.5228  0.3803
  257TIP3    H122334   4.393   3.191   0.652 -0.1761 -0.8664  2.3152
  257TIP3    H222335   4.412   3.315   0.736  1.3949  1.3347 -1.0538
  258TIP3   OH222336   2.055   0.801   7.598  0.3907  0.3538  0.7051
  258TIP3    H122337   1.959   0.793   7.597  0.4391 -0.3767  0.9258
  258TIP3    H222338   2.076   0.821   7.689  0.3608  2.0514  0.3797
  259TIP3   OH222339   1.436   6.010   0.543  0.2028 -0.0370  0.0917
  259TIP3    H122340   1.429   6.044   0.632  0.1171 -0.5616  0.2896
  259TIP3    H222341   1.517   5.959   0.543  0.3234  0.1570 -0.1948
  260TIP3   OH222342   4.255   5.184   0.364  0.8219 -0.2934  0.0108
  260TIP3    H122343   4.261   5.103   0.314 -0.6056 -0.9969  0.8946
  260TIP3    H222344   4.280   5.159   0.453 -0.0371  0.1184  0.3815
  261TIP3   OH222345   0.937   6.153   2.421 -0.3724 -0.1443 -0.0594
  261TIP3    H122346   0.891   6.071   2.405 -0.4768  0.2973 -2.2590
  261TIP3    H222347   0.877   6.221   2.390 -1.7233  1.1729  4.5991
  262TIP3   OH222348   0.495   4.945   0.174  0.1391  0.7857 -0.5102
  262TIP3    H122349   0.590   4.930   0.176 -0.0061 -0.1804 -0.4469
  262TIP3    H222350   0.465   4.919   0.261 -0.2305  0.6912 -0.6660
  263TIP3   OH222351   6.467   5.591   1.377  0.3397  0.4237  0.2606
  263TIP3    H122352   6.451   5.660   1.442 -0.3808  1.4711 -0.9911
  263TIP3    H222353   6.380   5.560   1.352  0.5361  0.8743 -1.0590
  264TIP3   OH222354   2.756   2.438   0.538 -0.2483  1.3959 -0.3878
  264TIP3    H122355   2.846   2.436   0.571 -0.5006  0.4502  0.2943
  264TIP3    H222356   2.726   2.347   0.544 -0.2615  1.0958 -3.4143
  265TIP3   OH222357   1.192   4.338   2.320 -0.2049  0.8379 -0.1347
  265TIP3    H122358   1.239   4.308   2.242 -1.6563 -2.4743  0.1150
  265TIP3    H222359   1.249   4.315   2.393  0.3786  2.3665 -0.0662
  266TIP3   OH222360   1.674   2.270   0.149 -0.0973  0.0060  0.1772
  266TIP3    H122361   1.666   2.319   0.231 -1.1086  1.0492 -0.5182
  266TIP3    H222362   1.745   2.314   0.102 -1.9649  1.8541 -1.0888
  267TIP3   OH222363   6.693   5.985   7.438  0.1500 -0.1767  0.1443
  267TIP3    H122364   6.767   5.958   7.385 -0.0899 -1.2985  0.3506
  267TIP3    H222365   6.619   5.987   7.377  0.2515  0.4797  0.0361
  268TIP3   OH222366   4.084   4.685   1.603 -0.0374 -0.3472  0.1312
  268TIP3    H122367   4.126   4.666   1.519  0.5144 -0.8422  0.5091
  268TIP3    H222368   4.154   4.721   1.658 -0.4137  0.0497  0.3524
  269TIP3   OH222369   1.272   3.460   8.618  0.1236 -0.4695  0.5538
  269TIP3    H122370   1.226   3.463   8.534  0.1154  0.3730  0.5802
  269TIP3    H222371   1.235   3.532   8.668  0.0307 -1.0566  1.3391
  270TIP3   OH222372   5.475   5.826   8.458 -0.2043  0.1733  0.4395
  270TIP3    H122373   5.474   5.735   8.484 -1.1404 -0.7337 -2.3773
  270TIP3    H222374   5.557   5.836   8.409 -0.5353  0.5886 -0.0442
  271TIP3   OH222375   4.535   5.250   8.524 -0.2318  0.1553  0.6212
  271TIP3    H122376   4.558   5.301   8.447 -0.4870  0.1460  0.5389
  271TIP3    H222377   4.591   5.172   8.519 -1.6464 -0.8267 -0.6330
  272TIP3   OH222378   3.267   1.181   0.146  0.0478 -0.3511 -0.6913
  272TIP3    H122379   3.214   1.134   0.083 -1.3230  0.1989 -0.0005
  272TIP3    H222380   3.253   1.274   0.125  0.3542 -0.1839 -0.1837
  273TIP3   OH222381   4.142   0.324   1.758  0.2880 -0.3601  0.2819
  273TIP3    H122382   4.190   0.254   1.803 -0.9834 -1.0985  0.5240
  273TIP3    H222383   4.095   0.370   1.827  0.1098 -0.0744 -0.0250
  274TIP3   OH222384   5.206   3.000   7.844  0.1135 -0.4308  0.2683
  274TIP3    H122385   5.298   3.026   7.843 -0.5440  2.1245  0.1480
  274TIP3    H222386   5.182   2.996   7.751  0.2785 -1.9700  0.2638
  275TIP3   OH222387   6.402   4.290   0.174 -0.2029 -0.5193 -0.4903
  275TIP3    H122388   6.381   4.373   0.132 -0.3101 -0.8949 -1.1978
  275TIP3    H222389   6.418   4.313   0.265  0.6710  0.4183 -0.8526
  276TIP3   OH222390   4.785   0.337   1.248 -0.4973 -0.5356 -0.2619
  276TIP3    H122391   4.747   0.377   1.326 -0.3773 -1.5398  0.3394
  276TIP3    H222392   4.730   0.367   1.176  0.4226  1.7936 -0.0608
  277TIP3   OH222393   5.196   5.940   6.531  0.4161 -0.2167  0.3228
  277TIP3    H122394   5.149   5.877   6.477 -0.3937 -0.7049  1.5413
  277TIP3    H222395   5.266   5.890   6.572 -0.5417 -0.4897  1.6944
  278TIP3   OH222396   0.278   3.543   6.990 -0.1025 -0.3400  0.2613
  278TIP3    H122397   0.300   3.599   7.064  0.7593  0.1399 -0.3435
  278TIP3    H222398   0.347   3.477   6.988  0.4218  0.2202 -0.6782
  279TIP3   OH222399   1.571   2.533   0.067  0.4213 -0.1071 -0.2508
  279TIP3    H122400   1.570   2.472   0.142  1.1167 -1.8026 -1.5557
  279TIP3    H222401   1.497   2.504   0.013 -0.5821  1.6243  0.1150
  280TIP3   OH222402   1.949   3.767   0.720  0.2989  0.2091 -0.0047
  280TIP3    H122403   1.932   3.676   0.698 -1.4871 -0.0081  1.8962
  280TIP3    H222404   1.990   3.764   0.806 -0.7782  1.1974  0.5749
  281TIP3   OH222405   3.828   4.153   0.380  0.1802  0.0830 -0.0540
  281TIP3    H122406   3.805   4.237   0.341  2.7473  0.5693 -0.6925
  281TIP3    H222407   3.856   4.099   0.307  2.0706 -0.0375  0.6956
  282TIP3   OH222408   0.132   3.825   7.599 -0.0497  0.0665 -0.2281
  282TIP3    H122409   0.092   3.826   7.512  1.0561 -0.0429 -0.7452
  282TIP3    H222410   0.225   3.816   7.583 -0.0029 -2.8095  1.0413
  283TIP3   OH222411   0.695   2.569   2.448  0.2849 -0.2682 -0.3712
  283TIP3    H122412   0.731   2.609   2.369  0.0740 -1.2021 -0.9522
  283TIP3    H222413   0.756   2.595   2.517  0.9515 -0.1432 -0.9882
  284TIP3   OH222414   1.735   0.438   7.089 -0.4867 -0.3754 -0.0510
  284TIP3    H122415   1.826   0.466   7.078 -1.2356  2.6533  0.4958
  284TIP3    H222416   1.708   0.409   7.002  0.6455 -0.1550 -0.4944
  285TIP3   OH222417   3.117   0.759   0.780 -0.3662 -0.2012  0.1811
  285TIP3    H122418   3.034   0.807   0.781  0.8339  1.9868  0.9209
  285TIP3    H222419   3.139   0.748   0.873  0.2086 -0.7513 -0.0121
  286TIP3   OH222420   2.222   5.752   6.854 -0.1366 -0.0041 -0.0772
  286TIP3    H122421   2.290   5.803   6.897 -0.5224  2.6319 -2.2952
  286TIP3    H222422   2.142   5.773   6.903  0.0019  0.0372  0.1335
  287TIP3   OH222423   1.939   1.079   1.231 -0.0911  0.2960 -0.3845
  287TIP3    H122424   1.974   1.072   1.142 -0.5433 -0.0117 -0.5440
  287TIP3    H222425   1.902   0.992   1.248  0.2387  0.2681  0.2111
  288TIP3   OH222426   3.048   4.677   1.063  0.3393  0.2876 -0.3440
  288TIP3    H122427   3.085   4.718   0.984  2.6959  0.1410  0.6268
  288TIP3    H222428   3.064   4.584   1.051  0.6712  0.2636  0.2908
  289TIP3   OH222429   3.989   5.298   0.765  0.0912 -0.0399 -0.4871
  289TIP3    H122430   4.072   5.258   0.789  0.1477  0.4367  0.1243
  289TIP3    H222431   3.937   5.297   0.846 -0.1908  0.4231 -0.6555
  290TIP3   OH222432   1.596   4.828   8.112  0.1469  0.1861 -0.4611
  290TIP3    H122433   1.617   4.735   8.114 -0.1379  0.1202  1.1602
  290TIP3    H222434   1.501   4.830   8.099 -0.0525  0.1698  0.8101
  291TIP3   OH222435   2.026   4.338   1.430  0.4582 -0.1281 -0.0490
  291TIP3    H122436   1.981   4.253   1.433  1.6504 -0.8178 -0.9550
  291TIP3    H222437   2.117   4.317   1.449  1.2794  0.5425 -2.8109
  292TIP3   OH222438   4.735   2.121   5.799 -0.0451  0.2152  0.3677
  292TIP3    H122439   4.746   2.105   5.892  0.1061  1.0800  0.5078
  292TIP3    H222440   4.735   2.034   5.759  0.9477 -0.1156  1.0603
  293TIP3   OH222441   4.215   2.169   7.499 -0.1686 -0.3806  0.6566
  293TIP3    H122442   4.265   2.115   7.437  1.1909  0.1647  1.2516
  293TIP3    H222443   4.251   2.147   7.585 -0.0905  0.9328  0.9775
  294TIP3   OH222444   4.534   4.289   7.261  0.3499  0.1339 -0.1411
  294TIP3    H122445   4.588   4.363   7.234  2.2628 -1.5706 -1.3070
  294TIP3    H222446   4.549   4.222   7.194 -0.1441 -1.8417  1.5991
  295TIP3   OH222447   1.308   1.145   0.675  0.2959  0.5168  0.0657
  295TIP3    H122448   1.401   1.168   0.669  1.0233 -2.1465 -0.2453
  295TIP3    H222449   1.307   1.060   0.718 -2.0877  0.8068  0.7285
  296TIP3   OH222450   4.905   2.715   0.699  0.1165  0.1708  0.8716
  296TIP3    H122451   4.810   2.724   0.711 -0.1771 -0.7624 -0.5000
  296TIP3    H222452   4.915   2.682   0.609  1.8379  2.0444  0.2938
  297TIP3   OH222453   1.275   0.459   7.590 -0.0088  0.4410  0.4014
  297TIP3    H122454   1.261   0.523   7.660  1.3846  0.3052  0.8406
  297TIP3    H222455   1.309   0.511   7.517 -0.3815  0.4185  0.2087
  298TIP3   OH222456   6.599   5.576   8.794 -0.7030 -0.2748  0.0267
  298TIP3    H122457   6.631   5.486   8.790 -0.5707 -0.2198 -0.2135
  298TIP3    H222458   6.510   5.569   8.829 -0.8701 -0.5430 -0.4443
  299TIP3   OH222459   6.288   1.327   0.388 -0.3117 -0.2353  0.1435
  299TIP3    H122460   6.320   1.268   0.456  0.5822 -0.8985 -0.8173
  299TIP3    H222461   6.293   1.276   0.307 -1.5088  0.4774 -0.4024
  300TIP3   OH222462   0.747   4.475   0.232 -0.0532  0.2900  0.4380
  300TIP3    H122463   0.654   4.490   0.243  0.0313  0.3994  1.0212
  300TIP3    H222464   0.770   4.410   0.299 -0.0224 -0.9945 -0.7654
  301TIP3   OH222465   1.025   1.121   8.315 -0.2867 -0.0112 -0.6550
  301TIP3    H122466   0.991   1.126   8.405  0.0567  1.9080 -0.5978
  301TIP3    H222467   1.103   1.176   8.315 -0.9584  1.0426 -2.4055
  302TIP3   OH222468   6.149   6.051   7.078  0.6439 -0.2611 -0.6545
  302TIP3    H122469   6.180   6.130   7.034  1.8846 -0.9810 -1.1165
  302TIP3    H222470   6.224   6.021   7.130 -0.5447  0.1643  1.4358
  303TIP3   OH222471   1.951   2.020   1.963  0.2646  0.3669  0.6430
  303TIP3    H122472   1.938   2.073   1.884  1.8663 -0.8353 -0.4924
  303TIP3    H222473   1.885   2.052   2.024 -1.1294  1.2466 -1.2231
  304TIP3   OH222474   5.355   1.694   8.457  0.0425 -0.3828 -0.2411
  304TIP3    H122475   5.399   1.651   8.530 -1.2239 -2.5414 -0.6608
  304TIP3    H222476   5.348   1.627   8.390 -0.5856  0.9792 -1.6047
  305TIP3   OH222477   4.297   6.804   1.108 -0.2930 -0.1547 -0.1325
  305TIP3    H122478   4.240   6.757   1.169 -2.2999  0.1816 -1.6394
  305TIP3    H222479   4.377   6.751   1.105 -2.0248 -2.9768 -0.9386
  306TIP3   OH222480   1.591   5.392   7.557  0.9220 -0.1890 -0.4688
  306TIP3    H122481   1.552   5.326   7.500  2.2312 -1.9631  0.6187
  306TIP3    H222482   1.638   5.450   7.497 -2.5577  1.6025 -1.7483
  307TIP3   OH222483   4.089   3.178   7.385 -0.3773 -0.3722  0.0189
  307TIP3    H122484   4.168   3.150   7.431  0.0887  1.5885  0.5329
  307TIP3    H222485   4.116   3.255   7.335 -2.0223  0.5945  0.5094
  308TIP3   OH222486   0.166   1.717   0.189 -0.1895 -0.4377  0.4720
  308TIP3    H122487   0.236   1.686   0.132  0.3701  1.7430 -0.1226
  308TIP3    H222488   0.205   1.790   0.238 -1.7291  0.1151  0.9379
  309TIP3   OH222489   6.475   0.026   7.746 -0.6920 -0.3422 -0.2279
  309TIP3    H122490   6.419   0.066   7.679  1.2262  1.7337 -0.7181
  309TIP3    H222491   6.564   0.039   7.714  0.1908 -1.6300  1.5245
  310TIP3   OH222492   0.076   5.394   2.074 -0.1136 -0.1139  0.0555
  310TIP3    H122493   0.153   5.344   2.100 -0.8606 -1.1149  0.4088
  310TIP3    H222494   0.058   5.366   1.984 -0.3712 -0.2975  0.1604
  311TIP3   OH222495   5.611   3.435   8.503 -0.1642  0.1646  0.2220
  311TIP3    H122496   5.585   3.426   8.412 -3.6600 -0.8314  1.1660
  311TIP3    H222497   5.644   3.348   8.527 -1.9612 -0.4670  0.5707
  312TIP3   OH222498   0.747   2.165   2.353 -0.1058  0.1033 -0.2360
  312TIP3    H122499   0.664   2.119   2.365 -1.0090  1.2874 -1.6885
  312TIP3    H222500   0.791   2.157   2.438 -2.9989  1.9726  1.6186
  313TIP3   OH222501   6.380   1.953   8.207 -0.3476  0.3896 -0.4252
  313TIP3    H122502   6.336   2.032   8.175  1.2931  1.0687 -1.0863
  313TIP3    H222503   6.339   1.936   8.291 -0.4082  2.2510 -0.0306
  314TIP3   OH222504   4.267   1.638   1.208 -0.5119 -0.3657  0.7346
  314TIP3    H122505   4.306   1.565   1.255 -1.7692 -1.4353  0.1733
  314TIP3    H222506   4.197   1.670   1.265 -0.9659 -0.6118  0.3304
  315TIP3   OH222507   1.858   4.475   6.767  0.0501  0.7711 -0.1932
  315TIP3    H122508   1.822   4.459   6.680 -1.5961  1.9677  0.2108
  315TIP3    H222509   1.924   4.544   6.754  1.7184 -0.8638 -0.8198
  316TIP3   OH222510   1.821   3.716   2.284  0.2621  0.2812  0.3823
  316TIP3    H122511   1.802   3.807   2.261  1.2839  0.3081 -0.4222
  316TIP3    H222512   1.836   3.719   2.379  0.8208  1.0600  0.2859
  317TIP3   OH222513   1.751   4.078   0.291  0.1052 -0.2221 -0.3140
  317TIP3    H122514   1.788   4.031   0.365  2.0845  0.8256 -0.5796
  317TIP3    H222515   1.671   4.118   0.325 -0.1469 -1.4939  0.6515
  318TIP3   OH222516   4.466   1.481   0.567  0.5478 -0.0757  0.4187
  318TIP3    H122517   4.507   1.535   0.500 -2.1875  1.6230 -0.0587
  318TIP3    H222518   4.478   1.530   0.648 -0.4450  0.4089  0.2824
  319TIP3   OH222519   2.343   1.639   0.504 -0.5690 -0.4114 -0.5812
  319TIP3    H122520   2.300   1.689   0.573 -0.6153 -3.1471  1.5589
  319TIP3    H222521   2.389   1.569   0.550  3.9094  0.5952 -2.9192
  320TIP3   OH222522   6.703   5.455   1.617  0.0936  0.5129  0.3676
  320TIP3    H122523   6.666   5.392   1.556 -0.5998  1.6523 -0.4341
  320TIP3    H222524   6.770   5.501   1.566 -0.0124  1.0102  0.6657
  321TIP3   OH222525   3.252   2.662   0.755 -0.3792 -0.2068 -0.0560
  321TIP3    H122526   3.292   2.746   0.777 -0.7420 -0.2871  0.9567
  321TIP3    H222527   3.316   2.597   0.782 -0.4572 -0.2812 -0.0505
  322TIP3   OH222528   2.979   4.550   2.127  0.4968 -0.1556  0.6530
  322TIP3    H122529   2.893   4.522   2.097  1.0672 -1.6143  0.2653
  322TIP3    H222530   2.999   4.491   2.200  0.7201  0.8743  1.4385
  323TIP3   OH222531   0.469   6.142   1.792  0.0176 -0.4581  0.2997
  323TIP3    H122532   0.477   6.208   1.723 -0.4696  0.2368  0.8846
  323TIP3    H222533   0.532   6.169   1.858  0.2020 -0.8974  0.3068
  324TIP3   OH222534   6.769   6.348   0.774 -0.1862 -0.2006  0.1278
  324TIP3    H122535   6.827   6.340   0.850 -1.8558  0.7282  1.5657
  324TIP3    H222536   6.795   6.276   0.716  3.4651  1.0799 -0.0954
  325TIP3   OH222537   1.676   3.900   0.757  0.2461 -0.1929 -0.1252
  325TIP3    H122538   1.742   3.838   0.724  1.1328 -0.0626  1.3041
  325TIP3    H222539   1.702   3.916   0.848  0.6033  3.0066 -0.6916
  326TIP3   OH222540   2.620   6.297   0.336 -0.5282 -0.9325 -0.3723
  326TIP3    H122541   2.570   6.375   0.310  0.5372 -0.1886 -0.2728
  326TIP3    H222542   2.560   6.248   0.391 -1.2711 -0.2432 -0.5411
  327TIP3   OH222543   6.718   2.966   8.467 -0.3370 -0.1137 -0.2538
  327TIP3    H122544   6.783   2.985   8.400  0.3652 -0.5663  0.2895
  327TIP3    H222545   6.767   2.927   8.539 -1.0762  0.3745  0.5390
  328TIP3   OH222546   1.403   6.270   1.505  0.2035 -0.3502 -0.0001
  328TIP3    H122547   1.404   6.346   1.448  0.8443  1.0160  1.7445
  328TIP3    H222548   1.323   6.279   1.556  1.4994  0.6156  1.9915
  329TIP3   OH222549   5.057   0.025   7.838 -0.2122  0.3827 -0.3141
  329TIP3    H122550   5.083   0.062   7.923 -1.8624 -0.0299  0.4063
  329TIP3    H222551   5.104   0.078   7.774  0.3771  1.2868  0.8186
  330TIP3   OH222552   2.775   3.576   6.662 -0.2034  0.2563 -0.1123
  330TIP3    H122553   2.767   3.486   6.630 -0.2917  0.5873 -1.0563
  330TIP3    H222554   2.694   3.591   6.712  0.5525 -0.7155  1.4559
  331TIP3   OH222555   6.373   4.133   0.829  0.1767 -0.2651 -0.6718
  331TIP3    H122556   6.324   4.144   0.910  0.1397 -0.3089 -0.6884
  331TIP3    H222557   6.451   4.083   0.855 -0.5096 -1.4962 -0.9102
  332TIP3   OH222558   5.468   0.348   7.777 -0.1803 -0.0741 -0.6561
  332TIP3    H122559   5.490   0.257   7.797 -0.5622  0.2263  1.2593
  332TIP3    H222560   5.373   0.347   7.763 -0.6302  0.3945  1.9189
  333TIP3   OH222561   1.191   0.540   8.540 -0.4974 -0.4419 -0.5788
  333TIP3    H122562   1.286   0.540   8.554 -0.8483  1.2010  2.6364
  333TIP3    H222563   1.166   0.448   8.548  0.5549 -0.6088  1.4220
  334TIP3   OH222564   0.647   2.133   7.076  0.1667 -0.3178  0.1205
  334TIP3    H122565   0.628   2.054   7.026  0.5568 -1.7703  2.1379
  334TIP3    H222566   0.680   2.195   7.011  0.9998 -2.2120 -1.3721
  335TIP3   OH222567   3.865   2.502   8.235  0.3994 -0.1843 -0.6970
  335TIP3    H122568   3.868   2.501   8.331  2.6729  0.1489 -0.7071
  335TIP3    H222569   3.893   2.591   8.211  0.1388 -0.3552 -1.6767
  336TIP3   OH222570   3.168   1.742   6.768  0.7669  0.0578  0.1665
  336TIP3    H122571   3.163   1.667   6.709 -0.2086 -1.7154  2.3634
  336TIP3    H222572   3.114   1.809   6.726  0.9303 -0.7677 -1.4335
  337TIP3   OH222573   5.607   1.045   0.666  0.0017 -0.3441 -0.2770
  337TIP3    H122574   5.557   0.981   0.616  0.7509  0.4999 -2.2157
  337TIP3    H222575   5.657   1.093   0.600  1.6638  0.3230  1.3752
  338TIP3   OH222576   4.532   6.038   0.886 -0.0661 -0.5069  0.1109
  338TIP3    H122577   4.572   6.087   0.814 -0.3679  0.0351  0.3085
  338TIP3    H222578   4.581   5.956   0.888  0.2835 -0.3197 -0.3843
  339TIP3   OH222579   0.819   5.435   8.018  0.4046 -0.0192 -0.0518
  339TIP3    H122580   0.766   5.514   8.008 -1.7517 -1.5961 -2.7922
  339TIP3    H222581   0.839   5.431   8.111  0.5384  3.6125  0.2259
  340TIP3   OH222582   3.417   2.016   0.995 -0.8759 -0.3545 -0.1093
  340TIP3    H122583   3.325   2.029   1.018 -0.9991  1.2702 -1.2987
  340TIP3    H222584   3.459   1.992   1.077 -2.2114 -0.2582  0.6349
  341TIP3   OH222585   3.657   5.472   7.552 -0.9019  0.3093 -0.1150
  341TIP3    H122586   3.665   5.471   7.647  2.1028 -1.3667 -0.2728
  341TIP3    H222587   3.601   5.397   7.532  0.5137 -0.8847  0.2721
  342TIP3   OH222588   5.851   2.469   2.049  0.1570 -0.2120 -0.2009
  342TIP3    H122589   5.846   2.534   2.119 -0.3733 -0.9313  0.4379
  342TIP3    H222590   5.943   2.442   2.048  0.2692  0.1496 -0.1222
  343TIP3   OH222591   0.977   6.146   6.621 -0.3548 -0.2935  0.1203
  343TIP3    H122592   0.910   6.108   6.563  0.0240 -1.5124  0.4699
  343TIP3    H222593   1.045   6.176   6.561 -0.3243 -0.8327 -0.1238
  344TIP3   OH222594   6.080   2.994   1.157 -0.1899  0.2334  0.2487
  344TIP3    H122595   6.027   3.040   1.222 -0.8739 -0.6785  0.3686
  344TIP3    H222596   6.015   2.952   1.099  0.4092 -0.0494 -0.2310
  345TIP3   OH222597   5.493   1.873   7.817  0.3031 -0.4235 -0.2583
  345TIP3    H122598   5.563   1.870   7.883  0.6778  0.7941 -0.5640
  345TIP3    H222599   5.514   1.803   7.757  1.7437  0.4028 -0.7741
  346TIP3   OH222600   1.105   0.653   0.186 -0.6211 -0.3141  0.4229
  346TIP3    H122601   1.067   0.741   0.197  0.4061  0.3296 -0.9314
  346TIP3    H222602   1.057   0.615   0.113 -1.4712 -1.1515  1.3822
  347TIP3   OH222603   6.524   4.211   8.771  0.2954 -0.5620 -0.3555
  347TIP3    H122604   6.469   4.233   8.846 -1.3701 -1.4399 -1.2580
  347TIP3    H222605   6.502   4.278   8.705  1.8004  0.2492 -0.0722
  348TIP3   OH222606   1.066   0.059   0.582  0.8802  0.4203 -0.2260
  348TIP3    H122607   0.976   0.028   0.594  0.7868 -0.4416 -2.6047
  348TIP3    H222608   1.114   0.020   0.654 -0.1426 -1.4708 -0.5050
  349TIP3   OH222609   5.719   5.340   1.402 -0.4371 -0.1302  0.6385
  349TIP3    H122610   5.756   5.422   1.433 -3.5069  1.0165  1.7148
  349TIP3    H222611   5.766   5.272   1.449  2.3470  0.9214 -0.4557
  350TIP3   OH222612   0.139   0.795   1.217 -0.7011 -0.0068 -0.0092
  350TIP3    H122613   0.193   0.800   1.295 -0.4164 -1.0203 -0.1243
  350TIP3    H222614   0.056   0.836   1.242 -1.0256 -1.3139  1.2010
  351TIP3   OH222615   5.738   0.675   6.283 -0.2157 -0.6723 -0.5392
  351TIP3    H122616   5.823   0.699   6.246 -0.2175 -1.4168 -1.0502
  351TIP3    H222617   5.714   0.594   6.238 -0.4868 -1.3028  0.6846
  352TIP3   OH222618   2.830   5.289   7.692  0.1911 -0.1299 -0.1416
  352TIP3    H122619   2.791   5.324   7.612  2.0012  1.3383 -0.4545
  352TIP3    H222620   2.890   5.220   7.661  1.3290  0.8318 -0.1533
  353TIP3   OH222621   6.001   5.759   7.760  0.0845  0.0504  0.4554
  353TIP3    H122622   5.915   5.781   7.726  0.6078 -1.3848 -2.0421
  353TIP3    H222623   6.062   5.781   7.690  1.3422 -2.2828  0.6945
  354TIP3   OH222624   4.420   4.884   7.362  0.2416 -0.3681 -0.4732
  354TIP3    H122625   4.432   4.979   7.360  0.1424 -0.3266  0.6742
  354TIP3    H222626   4.330   4.872   7.393 -0.4373 -0.8155 -2.4621
  355TIP3   OH222627   0.117   3.405   1.292  0.0357 -0.5144  0.4077
  355TIP3    H122628   0.091   3.456   1.368  0.5591 -1.4328  1.2331
  355TIP3    H222629   0.211   3.421   1.284 -0.4706  1.9694 -1.9222
  356TIP3   OH222630   6.612   2.913   0.057  0.0157 -0.0672 -0.3684
  356TIP3    H122631   6.525   2.883   0.084  0.6356 -0.8827  0.8208
  356TIP3    H222632   6.642   2.845  -0.004  0.4124 -0.5843  0.3897
  357TIP3   OH222633   5.292   0.342   1.255  0.0067  0.0585  0.0824
  357TIP3    H122634   5.202   0.359   1.224  0.2741  0.2480 -0.6286
  357TIP3    H222635   5.282   0.320   1.347 -0.9617 -1.6648 -0.3808
  358TIP3   OH222636   6.517   3.824   6.792 -0.0155 -0.2606 -0.2725
  358TIP3    H122637   6.470   3.879   6.730  1.6636  1.2802 -0.2664
  358TIP3    H222638   6.531   3.880   6.869 -0.5537 -1.5740  0.8343
  359TIP3   OH222639   3.938   4.843   7.278  0.1463 -0.1704 -0.1989
  359TIP3    H122640   3.972   4.867   7.191 -0.5500  0.7535 -0.2289
  359TIP3    H222641   3.845   4.865   7.274  0.0130 -0.5456  0.6386
  360TIP3   OH222642   2.801   4.109   0.297  0.5103 -0.2751  0.2045
  360TIP3    H122643   2.735   4.096   0.366 -0.0400  0.0609 -0.2534
  360TIP3    H222644   2.763   4.175   0.239  0.3625 -1.5222 -1.1833
  361TIP3   OH222645   0.479   0.476   2.327 -0.0046 -0.1983 -0.0631
  361TIP3    H122646   0.508   0.392   2.292 -1.2948 -0.6500 -0.1274
  361TIP3    H222647   0.385   0.464   2.342 -0.0190  0.9160  0.8722
  362TIP3   OH222648   0.780   1.924   8.477  0.3447  0.1254  0.0924
  362TIP3    H122649   0.776   1.858   8.546 -0.6379 -3.1502 -2.7738
  362TIP3    H222650   0.689   1.947   8.460  0.2466 -1.4020 -1.9095
  363TIP3   OH222651   2.983   5.251   8.341 -0.0643  0.0192  0.7908
  363TIP3    H122652   3.014   5.198   8.267 -3.1237  1.1637 -1.5119
  363TIP3    H222653   2.946   5.188   8.402 -0.0532 -0.7896 -0.0175
  364TIP3   OH222654   5.986   0.830   8.771 -0.3032 -0.6208  0.4683
  364TIP3    H122655   5.992   0.734   8.770 -0.9048 -0.6639 -0.6407
  364TIP3    H222656   5.946   0.851   8.855  0.4087 -1.3013  0.9891
  365TIP3   OH222657   1.463   3.285   7.744 -0.3351  0.5014  0.6716
  365TIP3    H122658   1.390   3.249   7.693  0.2530  0.5173 -0.2039
  365TIP3    H222659   1.499   3.354   7.688  0.5305  0.3072  0.9714
  366TIP3   OH222660   1.334   6.716   7.110  0.0740 -0.0672 -0.1772
  366TIP3    H122661   1.360   6.649   7.173 -0.0580 -0.5036 -0.5773
  366TIP3    H222662   1.239   6.711   7.107  0.1170 -0.6178 -1.0066
  367TIP3   OH222663   5.194   1.166   6.377 -0.2562  0.0530 -0.5648
  367TIP3    H122664   5.146   1.245   6.354  2.7297  2.5569  1.0224
  367TIP3    H222665   5.282   1.180   6.340  0.5865 -2.1854  0.4206
  368TIP3   OH222666   0.423   0.976   0.810  0.4656 -0.3283 -0.1934
  368TIP3    H122667   0.511   0.943   0.792  0.6888  0.3328 -0.3272
  368TIP3    H222668   0.393   0.925   0.886 -0.2804 -2.8110 -2.0054
  369TIP3   OH222669   6.120   1.556   2.264  0.1933 -0.2448  0.4260
  369TIP3    H122670   6.027   1.533   2.259 -0.0053  0.8111 -1.7425
  369TIP3    H222671   6.149   1.561   2.173  1.5886  2.4236  0.9170
  370TIP3   OH222672   4.883   5.446   7.953 -0.7164 -0.2920 -0.6762
  370TIP3    H122673   4.811   5.391   7.922 -0.8117 -0.2629 -0.5086
  370TIP3    H222674   4.840   5.521   7.995 -0.8108 -2.5050  3.7894
  371TIP3   OH222675   6.022   6.731   0.101  0.7903 -0.3057  0.2156
  371TIP3    H122676   6.114   6.754   0.088  1.0954 -1.8743 -0.6518
  371TIP3    H222677   6.021   6.635   0.101 -1.1171 -0.3730 -1.9402
  372TIP3   OH222678   1.598   0.925   0.109 -0.0187 -0.3782  0.1986
  372TIP3    H122679   1.512   0.884   0.098  0.0565 -0.4487 -0.1165
  372TIP3    H222680   1.598   0.998   0.047  0.2527 -0.5388  0.0086
  373TIP3   OH222681   1.457   4.509   6.658  0.2992 -0.1298  0.7755
  373TIP3    H122682   1.541   4.504   6.612 -0.3333 -1.7990 -0.2575
  373TIP3    H222683   1.480   4.500   6.750  1.1538 -1.9789  0.4128
  374TIP3   OH222684   2.481   3.754   2.457 -0.2970  0.1255 -0.0052
  374TIP3    H122685   2.448   3.667   2.434  0.1577  0.1400 -0.7482
  374TIP3    H222686   2.416   3.814   2.423  0.0961  0.1236 -0.7858
  375TIP3   OH222687   5.079   2.102   1.521 -0.3607  0.1945 -0.3826
  375TIP3    H122688   4.987   2.125   1.528  0.1743  1.9162  2.4400
  375TIP3    H222689   5.092   2.033   1.587  0.3023 -0.3718 -1.0809
  376TIP3   OH222690   3.892   3.047   0.732  0.2436 -0.5964 -0.2201
  376TIP3    H122691   3.869   2.990   0.659  0.1420 -1.2727  0.3237
  376TIP3    H222692   3.872   3.135   0.702  1.7339 -0.6856 -1.6143
  377TIP3   OH222693   2.935   5.928   8.739 -0.5170 -0.3025 -0.0731
  377TIP3    H122694   2.902   5.856   8.685  1.0206 -0.3240 -1.0361
  377TIP3    H222695   3.018   5.895   8.774  0.4351  1.1425 -0.8772
  378TIP3   OH222696   3.151   0.259   1.775  0.3055 -0.1794 -0.1494
  378TIP3    H122697   3.065   0.294   1.797 -0.4693 -2.2093  0.2967
  378TIP3    H222698   3.150   0.250   1.679 -0.8970 -2.2057 -0.0184
  379TIP3   OH222699   1.653   3.896   1.469  0.1636  0.2174  0.2484
  379TIP3    H122700   1.616   3.809   1.488 -1.0387  0.3432 -1.3333
  379TIP3    H222701   1.650   3.941   1.553 -1.7277 -0.3887  0.5662
  380TIP3   OH222702   1.645   6.117   8.585 -0.0584  0.0290  0.3376
  380TIP3    H122703   1.654   6.062   8.507 -0.5880 -0.0559  0.3388
  380TIP3    H222704   1.606   6.198   8.552 -0.8371 -0.2338  0.6158
  381TIP3   OH222705   4.619   4.284   8.611 -0.2220  0.0041  0.0675
  381TIP3    H122706   4.681   4.229   8.658  0.2341  0.0735 -0.4416
  381TIP3    H222707   4.572   4.331   8.680 -0.5243 -0.9069  0.4986
  382TIP3   OH222708   1.110   1.629   8.263 -0.3038  0.3378 -0.6453
  382TIP3    H122709   1.179   1.636   8.197 -0.2404 -0.8909 -0.7268
  382TIP3    H222710   1.150   1.582   8.336 -0.2427  2.0555  0.4848
  383TIP3   OH222711   2.562   4.705   8.038 -0.0086  0.0281 -0.3369
  383TIP3    H122712   2.617   4.634   8.069  0.9538  1.7170  2.1278
  383TIP3    H222713   2.477   4.689   8.079 -0.1385 -0.3104 -0.7315
  384TIP3   OH222714   5.166   0.541   7.401  0.1956 -0.0209  0.3116
  384TIP3    H122715   5.160   0.452   7.436 -2.8187 -0.3732 -0.7983
  384TIP3    H222716   5.241   0.579   7.446 -0.0842 -2.2099  2.8973
  385TIP3   OH222717   3.419   0.254   2.441 -0.1790 -0.2468  0.3390
  385TIP3    H122718   3.440   0.161   2.433 -2.1229 -0.8510  1.5879
  385TIP3    H222719   3.344   0.267   2.383  0.2720  0.6469 -0.0693
  386TIP3   OH222720   3.677   5.875   0.824  0.5242 -0.2952  0.2119
  386TIP3    H122721   3.762   5.919   0.815 -0.7797  2.2369 -0.7485
  386TIP3    H222722   3.644   5.870   0.734 -0.3162 -1.3810  0.5634
  387TIP3   OH222723   3.371   0.303   1.175  0.2201 -0.7991 -0.5331
  387TIP3    H122724   3.366   0.399   1.179  0.9951 -0.7669 -0.1903
  387TIP3    H222725   3.280   0.274   1.187  0.1264 -0.1487  0.4848
  388TIP3   OH222726   5.101   1.091   0.083 -0.1609  0.3973  0.2541
  388TIP3    H122727   5.151   1.010   0.097  0.7592  1.1564  1.5478
  388TIP3    H222728   5.010   1.065   0.095  0.1405 -0.4099  0.8576
  389TIP3   OH222729   4.049   5.829   1.033  0.1064  0.0760 -0.5662
  389TIP3    H122730   4.068   5.923   1.040 -0.4840  0.1307  0.5518
  389TIP3    H222731   3.987   5.823   0.960 -0.4196  0.6529 -0.1811
  390TIP3   OH222732   3.884   3.277   1.160 -0.3774  0.2689 -0.2087
  390TIP3    H122733   3.889   3.331   1.239  2.5320 -1.3643  0.8556
  390TIP3    H222734   3.923   3.330   1.091 -0.4455  0.6906  0.0738
  391TIP3   OH222735   2.130   1.779   0.623  0.4765 -0.4408  0.3048
  391TIP3    H122736   2.108   1.872   0.628 -1.1130 -0.6420 -1.6763
  391TIP3    H222737   2.081   1.747   0.547  0.3978 -3.0646  1.3579
  392TIP3   OH222738   4.979   2.561   6.567 -0.2459 -0.6640  0.1955
  392TIP3    H122739   5.015   2.638   6.524 -1.5573 -1.6658 -2.9684
  392TIP3    H222740   5.029   2.487   6.531 -2.3653 -1.6805 -0.8459
  393TIP3   OH222741   4.610   2.173   1.931 -0.8515  0.1904 -0.2353
  393TIP3    H122742   4.561   2.178   2.013  0.6854  1.4273  0.6406
  393TIP3    H222743   4.675   2.104   1.946 -1.0579 -0.1090 -0.6955
  394TIP3   OH222744   2.661   3.715   8.787 -0.2797 -0.1421  0.5584
  394TIP3    H122745   2.712   3.652   8.838  1.5896 -1.8954 -3.0783
  394TIP3    H222746   2.597   3.661   8.740  0.6861  0.6707 -1.8585
  395TIP3   OH222747   3.019   0.188   6.486 -0.3919  0.1072  0.0424
  395TIP3    H122748   2.977   0.196   6.400  0.4021  0.0263 -0.3633
  395TIP3    H222749   3.001   0.097   6.513 -0.7826  0.1815  0.0438
  396TIP3   OH222750   3.961   3.280   6.947  0.0625  0.0211  0.4463
  396TIP3    H122751   3.953   3.191   6.980  1.5947 -0.3928 -0.2273
  396TIP3    H222752   3.874   3.318   6.959 -1.2452 -2.2369 -1.2063
  397TIP3   OH222753   2.702   3.365   1.296  0.6546  0.0751 -0.0441
  397TIP3    H122754   2.688   3.272   1.313  0.4716 -0.0740 -0.9109
  397TIP3    H222755   2.709   3.370   1.200 -0.8589  1.1369 -0.1315
  398TIP3   OH222756   3.068   4.971   7.406  0.0378  0.1478  0.1787
  398TIP3    H122757   3.056   5.010   7.319  0.6766 -0.0284  0.0078
  398TIP3    H222758   3.062   4.877   7.391 -1.0442  0.1507  0.5203
  399TIP3   OH222759   0.478   6.427   1.706  0.0628 -0.1555 -0.1314
  399TIP3    H122760   0.523   6.500   1.663  1.4503 -1.5205 -1.0816
  399TIP3    H222761   0.395   6.421   1.658 -0.4020  1.2307  0.4415
  400TIP3   OH222762   3.026   2.807   7.280  0.5036  0.5608 -0.6430
  400TIP3    H122763   2.998   2.816   7.371  0.0636  0.2549 -0.7438
  400TIP3    H222764   2.958   2.753   7.239 -0.4043  2.3967 -1.6629
  401TIP3   OH222765   3.016   0.716   8.777 -0.2246 -0.0885  0.1738
  401TIP3    H122766   3.047   0.638   8.823  2.2854  0.1340 -0.9890
  401TIP3    H222767   2.935   0.687   8.734 -0.6330 -1.3305  1.6645
  402TIP3   OH222768   6.803   1.365   1.577 -0.9239  0.7596  0.7115
  402TIP3    H122769   6.865   1.342   1.646  0.5836  0.6815 -0.6115
  402TIP3    H222770   6.774   1.453   1.598 -0.2127  0.8722  1.2366
  403TIP3   OH222771   0.502   5.458   7.738 -0.1641  0.0302  0.1176
  403TIP3    H122772   0.559   5.520   7.692  2.1315 -0.2217  2.3645
  403TIP3    H222773   0.444   5.513   7.791 -2.1470  0.2882 -2.1656
  404TIP3   OH222774   1.263   3.763   2.138 -0.1066  0.6229 -0.2685
  404TIP3    H122775   1.299   3.711   2.210 -0.3197  0.7444 -0.0733
  404TIP3    H222776   1.221   3.699   2.080  1.1991  0.3668 -0.9754
  405TIP3   OH222777   6.729   2.965   1.094 -0.1617  0.3970  0.4825
  405TIP3    H122778   6.811   3.011   1.112 -0.8952  1.6896  0.6152
  405TIP3    H222779   6.710   2.984   1.002 -0.6093  0.5896  0.6126
  406TIP3   OH222780   4.245   1.889   5.994 -0.1584  0.1952 -0.0341
  406TIP3    H122781   4.234   1.919   5.903  0.1226  0.9455  0.1769
  406TIP3    H222782   4.316   1.825   5.990  0.3861  0.8062 -0.2228
  407TIP3   OH222783   0.278   2.682   7.739  0.2820  0.1258  0.3809
  407TIP3    H122784   0.363   2.722   7.758  0.3266 -0.2557  1.0484
  407TIP3    H222785   0.290   2.589   7.759 -0.1849  0.0008  0.1113
  408TIP3   OH222786   1.919   3.607   7.833 -0.2528 -0.2831 -0.9256
  408TIP3    H122787   1.943   3.580   7.744  0.4253  0.2746 -0.9221
  408TIP3    H222788   1.990   3.574   7.887 -0.8922 -1.0188 -0.5147
  409TIP3   OH222789   1.036   0.583   8.768  0.2109 -0.0420  0.0016
  409TIP3    H122790   1.070   0.571   8.679  0.2572 -0.8320  0.1159
  409TIP3    H222791   1.003   0.496   8.792  1.3646 -0.1653  1.2457
  410TIP3   OH222792   1.586   1.770   1.253 -0.1338 -0.3338 -0.4505
  410TIP3    H122793   1.543   1.696   1.211 -0.1364 -0.6438  0.0878
  410TIP3    H222794   1.615   1.735   1.338  1.3051 -0.1859 -0.8612
  411TIP3   OH222795   6.149   6.393   7.806 -0.0014 -0.7004 -0.3836
  411TIP3    H122796   6.112   6.363   7.889 -0.9759  0.1322 -0.4964
  411TIP3    H222797   6.192   6.476   7.829  2.4945 -1.9720 -0.1052
  412TIP3   OH222798   4.110   1.583   0.392  0.2159  0.7864  0.1111
  412TIP3    H122799   4.081   1.673   0.403 -2.0391  0.0611  0.4733
  412TIP3    H222800   4.100   1.543   0.478 -1.0647 -0.3955 -0.5431
  413TIP3   OH222801   0.506   4.433   8.572  0.1017  0.2824  0.3158
  413TIP3    H122802   0.600   4.438   8.588 -0.0490  0.5695  1.1476
  413TIP3    H222803   0.499   4.407   8.480  0.9894  0.2149  0.2584
  414TIP3   OH222804   0.405   1.197   8.579 -0.0774 -0.1161 -0.0716
  414TIP3    H122805   0.462   1.273   8.590  0.1615 -0.3148  0.0832
  414TIP3    H222806   0.416   1.146   8.659 -0.9148  0.1314  0.2079
  415TIP3   OH222807   3.027   0.746   1.636 -0.3311  0.1508 -0.2998
  415TIP3    H122808   2.973   0.773   1.710 -3.6252  0.6111 -2.6823
  415TIP3    H222809   2.981   0.671   1.599  2.6801 -1.8196 -0.4281
  416TIP3   OH222810   0.718   3.628   0.995 -0.0832 -0.8927  0.6558
  416TIP3    H122811   0.794   3.642   0.939  0.7979 -0.3186  1.9256
  416TIP3    H222812   0.643   3.649   0.940  0.6263 -2.0110 -0.7971
  417TIP3   OH222813   6.205   1.769   6.140  0.1334 -0.7290  0.0957
  417TIP3    H122814   6.149   1.692   6.126 -0.9643  0.2071 -0.8452
  417TIP3    H222815   6.190   1.824   6.064  0.1523  0.8681  1.1961
  418TIP3   OH222816   0.244   4.420   0.416  0.2353  0.2281  0.2947
  418TIP3    H122817   0.239   4.334   0.457  1.7085 -0.1234 -0.1987
  418TIP3    H222818   0.265   4.479   0.488  1.2165 -0.1488  0.3411
  419TIP3   OH222819   0.203   3.067   7.172  0.5293 -0.0312  0.1120
  419TIP3    H122820   0.152   3.010   7.115 -1.0569  0.2348  1.2155
  419TIP3    H222821   0.164   3.154   7.160  0.7649  0.1972  0.9286
  420TIP3   OH222822   0.676   6.272   8.736  0.6103  0.1688  0.2550
  420TIP3    H122823   0.630   6.191   8.715 -0.3648  0.5714  0.7500
  420TIP3    H222824   0.768   6.253   8.718  0.6063 -1.5240  1.7099
  421TIP3   OH222825   0.402   2.099   0.515  0.7967 -0.1459 -0.2924
  421TIP3    H122826   0.487   2.106   0.558 -0.0786  2.9080  1.2261
  421TIP3    H222827   0.347   2.052   0.577  0.5092  0.9643  0.3165
  422TIP3   OH222828   4.735   0.582   7.025  0.6355 -0.6847  0.0916
  422TIP3    H122829   4.760   0.509   6.969  0.4077 -0.7188  0.0330
  422TIP3    H222830   4.670   0.546   7.085  2.0969 -1.0641  1.4787
  423TIP3   OH222831   2.919   2.855   0.276  0.3066 -0.2201  0.3123
  423TIP3    H122832   2.977   2.794   0.230  0.1708  0.1501 -0.3733
  423TIP3    H222833   2.912   2.820   0.365 -1.2743 -2.3036 -0.5360
  424TIP3   OH222834   3.428   2.531   0.400  0.2884  0.4091 -0.1901
  424TIP3    H122835   3.471   2.473   0.462 -2.3262 -1.8514 -0.2839
  424TIP3    H222836   3.396   2.473   0.330  0.2681  2.4301 -1.9728
  425TIP3   OH222837   6.070   3.094   0.388  0.0918 -0.0357 -0.0058
  425TIP3    H122838   6.068   3.187   0.411  0.8977  0.0307 -0.1715
  425TIP3    H222839   6.032   3.050   0.463  1.9422  0.2446  1.1514
  426TIP3   OH222840   3.301   1.783   8.046  0.6404  0.6094 -0.0927
  426TIP3    H122841   3.256   1.849   8.098  0.9130  1.7746 -1.2972
  426TIP3    H222842   3.349   1.832   7.980  1.5619 -0.7512 -0.4839
  427TIP3   OH222843   6.128   1.903   6.686  0.4070  0.3705 -0.5039
  427TIP3    H122844   6.093   1.961   6.618 -0.4770 -0.1385 -0.5008
  427TIP3    H222845   6.208   1.867   6.647  0.6258  1.1071 -0.7479
  428TIP3   OH222846   6.766   6.558   7.010  0.4221 -0.2679  0.3839
  428TIP3    H122847   6.726   6.567   6.924  1.0045 -0.3639  0.0970
  428TIP3    H222848   6.705   6.601   7.070  0.4165  0.5548 -0.1939
  429TIP3   OH222849   4.269   0.311   7.852  0.0762  0.2351  0.2920
  429TIP3    H122850   4.278   0.340   7.943  1.2668  0.2833  0.1767
  429TIP3    H222851   4.355   0.274   7.830 -0.1513  0.3546 -0.8567
  430TIP3   OH222852   6.707   4.660   0.758 -0.3201  0.4596  0.1109
  430TIP3    H122853   6.732   4.752   0.746  1.0192  0.2845  1.2759
  430TIP3    H222854   6.706   4.648   0.853  0.7342 -1.0338 -0.0409
  431TIP3   OH222855   3.142   5.435   7.518 -0.2603 -0.0951 -0.1176
  431TIP3    H122856   3.223   5.441   7.468  0.0901  0.4728  0.5128
  431TIP3    H222857   3.166   5.391   7.599 -0.9942 -1.8003 -0.7569
  432TIP3   OH222858   3.499   6.295   6.842 -0.9765  0.3745 -0.4319
  432TIP3    H122859   3.471   6.386   6.854  1.0821  1.2790 -1.8948
  432TIP3    H222860   3.492   6.280   6.748  1.2637 -0.0353 -0.5825
  433TIP3   OH222861   6.065   2.725   2.006 -0.1610 -0.2753  0.3458
  433TIP3    H122862   6.084   2.662   2.076 -1.1224 -0.1286  0.7540
  433TIP3    H222863   6.148   2.771   1.992 -0.0937  0.1044  1.8131
  434TIP3   OH222864   0.243   2.722   0.588  0.2989 -0.3910 -0.2828
  434TIP3    H122865   0.282   2.636   0.605 -2.2933 -1.6413 -0.2205
  434TIP3    H222866   0.178   2.706   0.520 -2.0413  0.9546  1.4781
  435TIP3   OH222867   0.241   0.086   1.520  0.1897  0.2774  0.3042
  435TIP3    H122868   0.323   0.134   1.508  0.7963 -0.5727  0.9065
  435TIP3    H222869   0.230   0.080   1.615 -1.0542  1.1467  0.2504
  436TIP3   OH222870   2.155   1.175   1.653  0.0266  0.1950  0.1235
  436TIP3    H122871   2.227   1.191   1.715  1.0249 -1.1654 -0.6500
  436TIP3    H222872   2.193   1.119   1.585 -1.3061  0.8699 -1.2339
  437TIP3   OH222873   3.428   4.295   1.684  0.5122 -0.5967  0.2644
  437TIP3    H122874   3.389   4.369   1.731 -2.1499 -1.5310 -0.3200
  437TIP3    H222875   3.474   4.335   1.610  0.6255  0.5614  0.9347
  438TIP3   OH222876   4.106   4.411   7.345  0.4553  0.4132  0.0407
  438TIP3    H122877   4.067   4.498   7.335  1.1523  0.8401  0.8746
  438TIP3    H222878   4.052   4.367   7.409  0.2820  0.3426 -0.1536
  439TIP3   OH222879   2.361   4.703   1.027  0.0384  0.2809 -0.2451
  439TIP3    H122880   2.329   4.664   1.108 -0.2193  1.4901  0.2439
  439TIP3    H222881   2.348   4.634   0.961  2.1038 -1.5054  1.0470
  440TIP3   OH222882   0.372   5.223   2.526  0.7937 -0.4423 -0.2114
  440TIP3    H122883   0.361   5.318   2.534  0.4996 -0.3430 -1.4389
  440TIP3    H222884   0.462   5.212   2.497  0.5602 -0.4554 -0.9639
  441TIP3   OH222885   0.362   2.598   8.186 -0.4869  0.0955 -0.0267
  441TIP3    H122886   0.298   2.584   8.115  0.6138 -0.3882 -0.9504
  441TIP3    H222887   0.340   2.531   8.250 -0.4755 -0.5311 -0.6616
  442TIP3   OH222888   1.062   4.600   2.245 -0.4933  0.5371 -1.1282
  442TIP3    H122889   1.092   4.510   2.258  1.4113  1.1774 -0.6531
  442TIP3    H222890   1.107   4.650   2.313 -2.7075  1.6500 -0.3887
  443TIP3   OH222891   3.270   4.943   7.951 -0.3413 -0.3188 -0.1743
  443TIP3    H122892   3.341   5.007   7.961 -2.4151  2.0430  0.6748
  443TIP3    H222893   3.241   4.954   7.861 -1.1460  0.5217  0.1664
  444TIP3   OH222894   3.965   1.645   6.880  0.2516  0.2896 -0.0034
  444TIP3    H122895   4.045   1.689   6.909 -0.1430  0.8002  0.3305
  444TIP3    H222896   3.899   1.714   6.877 -0.5516 -0.3833  1.1859
  445TIP3   OH222897   2.834   3.665   7.380  0.4985 -0.1517 -0.2489
  445TIP3    H122898   2.775   3.740   7.381  0.0335 -0.5077 -0.2177
  445TIP3    H222899   2.921   3.702   7.365  0.4687  0.5161  1.0984
  446TIP3   OH222900   0.228   4.700   0.304 -0.5372  0.5322  0.1866
  446TIP3    H122901   0.148   4.668   0.346 -0.3361 -0.5947 -0.2493
  446TIP3    H222902   0.251   4.779   0.353 -0.2755 -0.7517  2.2462
  447TIP3   OH222903   2.055   5.056   1.340  0.0305  0.1794 -0.9753
  447TIP3    H122904   2.021   4.967   1.330  0.4912 -0.1259 -0.0212
  447TIP3    H222905   1.978   5.112   1.341 -0.6561 -0.5932  2.2524
  448TIP3   OH222906   6.149   4.003   0.220 -0.0047  0.8852 -0.1653
  448TIP3    H122907   6.122   3.930   0.164 -0.0693  0.6918  0.1122
  448TIP3    H222908   6.238   4.024   0.191  0.5540 -0.2110  0.6466
  449TIP3   OH222909   3.658   0.596   7.224  0.3061  0.8488  0.0528
  449TIP3    H122910   3.592   0.614   7.156 -0.1222  0.8527  0.4651
  449TIP3    H222911   3.607   0.564   7.299  0.8145  0.4329  0.2287
  450TIP3   OH222912   1.613   3.138   0.864 -0.0509  0.1410 -0.1521
  450TIP3    H122913   1.631   3.112   0.954  0.1379  1.0910  0.0999
  450TIP3    H222914   1.574   3.061   0.823  0.6027 -0.5558  0.5177
  451TIP3   OH222915   2.003   0.680   0.791 -0.2149 -0.0833  0.1973
  451TIP3    H122916   2.034   0.602   0.744 -1.1603 -0.4484  0.1582
  451TIP3    H222917   2.005   0.750   0.725  1.2326  0.0907  0.3952
  452TIP3   OH222918   5.191   0.488   0.085 -0.8468  0.5222 -0.1054
  452TIP3    H122919   5.258   0.439   0.037 -0.3073  0.3890  0.7505
  452TIP3    H222920   5.237   0.562   0.124 -1.4092  1.0146 -0.3548
  453TIP3   OH222921   1.387   4.458   7.574 -0.3106 -0.5625 -0.3238
  453TIP3    H122922   1.348   4.436   7.490 -0.2761 -0.2387 -0.4255
  453TIP3    H222923   1.385   4.377   7.624 -1.2690 -0.5089 -0.2662
  454TIP3   OH222924   4.789   4.615   7.986 -0.0221 -0.4380  0.0306
  454TIP3    H122925   4.813   4.602   8.078  0.3315  0.3523  0.0545
  454TIP3    H222926   4.848   4.558   7.938  0.3623 -0.2186  0.2398
  455TIP3   OH222927   2.843   1.593   1.390  0.3901  0.5165  0.1063
  455TIP3    H122928   2.855   1.501   1.410  0.1660  0.5478  0.3771
  455TIP3    H222929   2.803   1.594   1.302  1.5665  0.3896 -0.4477
  456TIP3   OH222930   0.615   2.045   0.222 -0.1310 -0.2136 -0.2410
  456TIP3    H122931   0.650   1.982   0.158 -1.2748  0.2698 -1.3851
  456TIP3    H222932   0.624   2.130   0.180 -1.1881  0.0842  0.0959
  457TIP3   OH222933   1.350   2.178   0.876 -0.3043  0.1264  0.0954
  457TIP3    H122934   1.275   2.220   0.917 -0.2065  0.2957  0.1005
  457TIP3    H222935   1.315   2.097   0.839 -0.9395  1.2151 -1.7873
  458TIP3   OH222936   6.344   5.118   8.448 -0.5790  0.8223 -0.4646
  458TIP3    H122937   6.289   5.107   8.526 -0.2131 -0.9049 -0.4093
  458TIP3    H222938   6.430   5.087   8.474 -0.6232 -0.4777 -1.7469
  459TIP3   OH222939   5.742   3.858   1.896 -0.2174 -0.5703 -0.2242
  459TIP3    H122940   5.823   3.829   1.940  0.3551  0.8212 -0.2946
  459TIP3    H222941   5.696   3.777   1.875  0.4935 -1.3581  1.0635
  460TIP3   OH222942   0.032   2.265   1.106 -0.1499 -0.1996 -0.1119
  460TIP3    H122943  -0.040   2.318   1.140  2.0209  2.6401  0.4347
  460TIP3    H222944   0.058   2.211   1.181 -1.0025 -0.4756  0.0001
  461TIP3   OH222945   3.790   2.690   0.421  0.1259  0.1178  0.3151
  461TIP3    H122946   3.820   2.741   0.346 -0.1120  0.4946  0.4703
  461TIP3    H222947   3.697   2.675   0.404  0.1948 -0.2705  0.2694
  462TIP3   OH222948   1.290   4.816   7.936 -1.3128  0.0104 -0.1689
  462TIP3    H122949   1.344   4.806   7.857 -0.8423  0.2337  0.1225
  462TIP3    H222950   1.285   4.910   7.951  1.8969 -0.0461  2.2815
  463TIP3   OH222951   1.924   3.521   0.600  0.6487  0.2514 -0.7937
  463TIP3    H122952   1.969   3.488   0.522  0.9444 -0.9817 -0.1320
  463TIP3    H222953   1.932   3.450   0.664  2.9910  2.2841  1.4131
  464TIP3   OH222954   6.661   5.418   2.431  0.1240  0.1097  0.8218
  464TIP3    H122955   6.619   5.339   2.398  0.7211  0.2143 -0.2289
  464TIP3    H222956   6.751   5.391   2.452  0.1438  0.3601  1.0661
  465TIP3   OH222957   3.359   2.209   6.952 -0.6253  0.2925  0.3845
  465TIP3    H122958   3.415   2.151   6.901 -0.7487 -0.1923  0.7931
  465TIP3    H222959   3.281   2.220   6.898 -1.1811 -1.0214  0.8920
  466TIP3   OH222960   2.552   2.092   1.047  0.5110 -0.4933 -0.2202
  466TIP3    H122961   2.546   2.015   0.991 -0.7197 -0.2351 -0.4755
  466TIP3    H222962   2.576   2.058   1.133  0.6139 -1.0815 -0.4767
  467TIP3   OH222963   1.575   3.658   0.410 -0.0905 -0.4087 -0.8095
  467TIP3    H122964   1.655   3.704   0.433 -0.2540  0.0139 -1.0783
  467TIP3    H222965   1.545   3.619   0.493 -0.4134  0.6879 -0.3924
  468TIP3   OH222966   6.777   6.598   8.258 -0.0528  0.0114  0.9309
  468TIP3    H122967   6.828   6.523   8.227  0.9755 -0.3080  3.1487
  468TIP3    H222968   6.687   6.580   8.231  0.4384 -1.2274  0.0537
  469TIP3   OH222969   1.323   2.939   7.332  0.3207  0.1414  0.3112
  469TIP3    H122970   1.367   2.974   7.255 -1.0183  0.5220 -0.3113
  469TIP3    H222971   1.353   2.848   7.338  0.9966  0.3215 -0.2224
  470TIP3   OH222972   5.604   2.236   7.991 -0.0642 -0.1467 -0.2998
  470TIP3    H122973   5.578   2.285   8.069  2.2138  1.6005 -0.5460
  470TIP3    H222974   5.544   2.266   7.923 -0.0219  0.7569  0.0445
  471TIP3   OH222975   4.137   1.876   6.922 -0.7171  0.5805  0.1464
  471TIP3    H122976   4.227   1.906   6.914 -0.8075  0.4387 -1.6346
  471TIP3    H222977   4.086   1.934   6.866 -1.1610 -1.6379 -1.9200
  472TIP3   OH222978   1.604   4.767   1.334  0.3311  0.1502 -0.5361
  472TIP3    H122979   1.596   4.692   1.275  0.5162  0.7062 -1.2805
  472TIP3    H222980   1.626   4.729   1.419 -1.3642 -0.7637 -0.4809
  473TIP3   OH222981   2.850   3.705   8.393 -0.2379  0.6644  0.0678
  473TIP3    H122982   2.805   3.656   8.324  0.4809  1.3467 -0.9287
  473TIP3    H222983   2.872   3.639   8.459 -2.8339  0.3461  0.7168
  474TIP3   OH222984   6.227   1.631   8.620 -0.3911 -0.1185 -0.3362
  474TIP3    H122985   6.242   1.613   8.713  1.0947 -1.0926 -0.7302
  474TIP3    H222986   6.263   1.718   8.606 -0.6831  0.0609 -0.0013
  475TIP3   OH222987   4.913   3.916   0.194  0.2009 -0.3235 -0.1240
  475TIP3    H122988   4.955   3.834   0.169  0.3772 -0.3183  0.1453
  475TIP3    H222989   4.875   3.950   0.113  2.1399  0.5077 -0.7336
  476TIP3   OH222990   1.072   4.164   8.300 -0.2734 -0.2883  0.1357
  476TIP3    H122991   1.133   4.166   8.373 -1.7323 -0.5641  1.4114
  476TIP3    H222992   1.072   4.072   8.272 -0.1610 -0.3018  0.1801
  477TIP3   OH222993   6.018   5.527   7.330 -0.2900 -0.5464 -0.4477
  477TIP3    H122994   6.114   5.533   7.333 -0.3310  1.3999 -1.1589
  477TIP3    H222995   6.001   5.449   7.277  0.8964 -1.0711 -0.1040
  478TIP3   OH222996   2.736   5.730   1.092  0.0874 -0.5124  0.5573
  478TIP3    H122997   2.786   5.673   1.035  1.0942 -1.2732  2.1205
  478TIP3    H222998   2.682   5.670   1.144 -2.7802  0.2790 -1.2812
  479TIP3   OH222999   4.311   2.858   2.068  0.2463  0.5472 -0.0103
  479TIP3    H123000   4.354   2.938   2.099 -0.0847  0.3480  0.9869
  479TIP3    H223001   4.224   2.861   2.107 -0.4232  0.5836 -1.4302
  480TIP3   OH223002   1.341   5.317   8.483  0.8560 -0.8638  0.3572
  480TIP3    H123003   1.248   5.312   8.463  0.7122  1.0997  0.3011
  480TIP3    H223004   1.381   5.247   8.431 -0.5023 -1.3320 -0.0970
  481TIP3   OH223005   4.439   0.958   0.563  0.0361 -0.4390  0.0320
  481TIP3    H123006   4.505   1.027   0.560 -0.9161  0.4822 -1.5431
  481TIP3    H223007   4.384   0.975   0.486 -1.9649 -1.2224  1.2201
  482TIP3   OH223008   4.081   2.634   0.510 -0.2859  0.0825 -0.4234
  482TIP3    H123009   4.106   2.691   0.437 -0.3840  1.6475  0.6980
  482TIP3    H223010   3.988   2.651   0.524 -0.4160 -0.6663 -0.3227
  483TIP3   OH223011   0.982   3.689   7.661  0.3720  0.4864  0.2021
  483TIP3    H123012   0.908   3.683   7.722 -0.9217 -0.9045 -1.3892
  483TIP3    H223013   1.053   3.641   7.704  0.4277  1.8811  1.7807
  484TIP3   OH223014   1.347   2.034   7.716  0.8802  0.2856 -0.1797
  484TIP3    H123015   1.296   2.051   7.638  1.4259  1.9231 -0.2138
  484TIP3    H223016   1.283   2.024   7.786  0.3384 -2.0583 -0.9221
  485TIP3   OH223017   1.044   1.068   0.812 -0.6942  0.2195  0.0766
  485TIP3    H123018   0.965   1.031   0.773 -0.3581  1.6528 -2.2201
  485TIP3    H223019   1.104   0.994   0.822 -1.5951 -0.5437 -0.1205
  486TIP3   OH223020   0.246   6.619   7.659 -0.1365 -0.3846 -0.5268
  486TIP3    H123021   0.244   6.710   7.629  1.8973 -0.2804 -0.5057
  486TIP3    H223022   0.155   6.590   7.657 -1.3066  2.5432  2.2265
  487TIP3   OH223023   3.169   0.163   2.274 -0.0136 -0.1339  0.2179
  487TIP3    H123024   3.160   0.219   2.197  0.5201 -0.2945  0.0336
  487TIP3    H223025   3.085   0.116   2.280 -0.3557  0.4732  0.2124
  488TIP3   OH223026   2.181   0.364   6.617  0.5285  0.3676  0.3427
  488TIP3    H123027   2.113   0.316   6.570  2.0624 -0.8434 -0.7579
  488TIP3    H223028   2.197   0.441   6.563 -1.0859  1.5579  1.4791
  489TIP3   OH223029   2.907   5.942   7.136  0.2415  0.2170 -0.1031
  489TIP3    H123030   2.925   5.986   7.219 -1.1453 -0.5178  0.6230
  489TIP3    H223031   2.895   5.850   7.159 -1.8877  0.2483 -0.8128
  490TIP3   OH223032   0.157   5.648   0.907  0.7792 -0.2973  0.0166
  490TIP3    H123033   0.141   5.690   0.992  0.4927 -0.1063 -0.1306
  490TIP3    H223034   0.071   5.621   0.877  1.0163 -1.5134  0.3685
  491TIP3   OH223035   4.402   4.301   1.694  0.3244 -0.3505  0.5055
  491TIP3    H123036   4.437   4.385   1.664  0.1865 -0.6381 -0.4771
  491TIP3    H223037   4.308   4.316   1.704  0.5075  0.0490  1.8826
  492TIP3   OH223038   2.995   1.209   8.546 -0.2416 -0.3309 -0.2187
  492TIP3    H123039   3.004   1.114   8.559 -1.0447 -0.9239 -3.2142
  492TIP3    H223040   3.080   1.237   8.514 -0.4461 -0.3697 -0.8151
  493TIP3   OH223041   2.143   1.630   7.532 -0.4046 -0.2865 -0.3163
  493TIP3    H123042   2.114   1.607   7.444 -1.0041 -1.4399  0.1607
  493TIP3    H223043   2.145   1.547   7.579  1.6486  0.0276  0.2838
  494TIP3   OH223044   3.799   4.215   8.141  0.1089 -0.3735  0.0591
  494TIP3    H123045   3.837   4.127   8.151  2.7750  0.7551  0.6299
  494TIP3    H223046   3.869   4.267   8.102 -0.2042  2.2525  2.6573
  495TIP3   OH223047   2.847   5.474   8.326 -0.7003 -0.1917  0.6038
  495TIP3    H123048   2.774   5.417   8.349 -0.4392 -0.1885  1.4558
  495TIP3    H223049   2.919   5.413   8.306 -0.0661 -0.2021  2.6543
  496TIP3   OH223050   2.288   3.656   8.291 -0.3760 -0.4263 -0.0323
  496TIP3    H123051   2.281   3.740   8.336  0.1335 -2.0677  3.4657
  496TIP3    H223052   2.367   3.664   8.238  0.7211  0.7541  1.6700
  497TIP3   OH223053   2.154   6.607   8.343 -0.2902 -0.5787  0.4103
  497TIP3    H123054   2.203   6.549   8.403 -1.2123 -1.2766  0.5183
  497TIP3    H223055   2.139   6.553   8.265  3.9772  1.3942 -2.1078
  498TIP3   OH223056   3.477   4.570   8.758 -0.9078 -0.0251  0.4661
  498TIP3    H123057   3.555   4.519   8.737 -2.0450 -1.2312 -1.2406
  498TIP3    H223058   3.448   4.536   8.843  0.9823  1.2419  1.6786
  499TIP3   OH223059   5.584   3.630   8.129  0.6970 -0.1216 -0.2614
  499TIP3    H123060   5.540   3.710   8.160  0.9491 -0.5786  1.4181
  499TIP3    H223061   5.611   3.650   8.040  1.0183  1.7825  0.2256
  500TIP3   OH223062   5.674   1.648   1.624  0.2902 -0.1696  0.4015
  500TIP3    H123063   5.616   1.582   1.662  1.5354 -0.6440  1.5725
  500TIP3    H223064   5.727   1.600   1.561  1.0425 -0.2668  1.0908
  501TIP3   OH223065   2.324   0.460   8.772 -0.4113  0.5004 -0.5283
  501TIP3    H123066   2.246   0.468   8.828  0.2715 -0.3357  0.5886
  501TIP3    H223067   2.352   0.369   8.783  1.7101  1.2013  0.4797
  502TIP3   OH223068   3.788   4.544   8.174  0.2288  0.3652 -0.7632
  502TIP3    H123069   3.713   4.507   8.126 -0.4688  1.1202 -0.2783
  502TIP3    H223070   3.784   4.638   8.155  0.3950  0.5671  0.1518
  503TIP3   OH223071   3.653   1.570   7.568  0.4820  0.3832  0.2876
  503TIP3    H123072   3.631   1.616   7.649 -3.0093  0.2924 -0.4576
  503TIP3    H223073   3.629   1.479   7.585 -0.9282  0.4842 -1.0127
  504TIP3   OH223074   5.950   2.519   0.525  0.1966  0.0409 -0.3652
  504TIP3    H123075   6.035   2.505   0.567  0.4868  0.1007 -0.9152
  504TIP3    H223076   5.900   2.441   0.545 -0.5872  1.0968  2.1911
  505TIP3   OH223077   3.030   4.584   7.863 -0.4135  0.2299 -0.3537
  505TIP3    H123078   2.936   4.600   7.850 -0.6018 -1.0931 -0.7375
  505TIP3    H223079   3.069   4.595   7.777  0.1288  2.6813  0.1239
  506TIP3   OH223080   0.151   6.298   0.080 -0.2879 -0.4560 -0.3278
  506TIP3    H123081   0.121   6.328  -0.006 -0.0618 -1.0945 -0.6413
  506TIP3    H223082   0.240   6.266   0.064 -0.2300 -0.5350  0.1533
  507TIP3   OH223083   2.837   1.384   0.838 -0.4040  0.1641  0.5790
  507TIP3    H123084   2.799   1.337   0.911 -1.0773  1.1820  0.9056
  507TIP3    H223085   2.782   1.360   0.763 -0.2958 -0.1346  0.5939
  508TIP3   OH223086   3.876   2.869   0.236  0.0922 -0.4211  0.9122
  508TIP3    H123087   3.875   2.839   0.145 -0.6123  1.2912  0.3144
  508TIP3    H223088   3.820   2.947   0.236  2.4259  1.3717  2.1711
  509TIP3   OH223089   5.379   1.569   8.733 -0.3478 -0.3588 -0.5486
  509TIP3    H123090   5.472   1.553   8.718  0.4108  0.4743  2.5034
  509TIP3    H223091   5.348   1.490   8.778 -0.8764 -0.2296 -0.6779
  510TIP3   OH223092   3.016   6.166   8.243 -0.0469  0.4035  0.0557
  510TIP3    H123093   2.950   6.153   8.175  0.4136 -0.6641 -0.1985
  510TIP3    H223094   3.071   6.237   8.209  0.2916 -0.2424 -0.7735
  511TIP3   OH223095   6.458   3.254   1.071  0.4185 -0.3254  0.5908
  511TIP3    H123096   6.494   3.186   1.127  0.2002 -0.2422  0.8350
  511TIP3    H223097   6.387   3.292   1.123  0.0006 -0.4701  0.1257
  512TIP3   OH223098   2.459   0.356   1.552 -0.5988 -0.0642  0.1674
  512TIP3    H123099   2.382   0.328   1.602 -0.1613  0.4404  1.1587
  512TIP3    H223100   2.424   0.407   1.479 -1.2199 -0.2515  0.3304
  513TIP3   OH223101   2.767   0.272   2.386  0.1740  0.1659  0.0503
  513TIP3    H123102   2.822   0.194   2.388  0.0678  0.0874 -0.0885
  513TIP3    H223103   2.693   0.248   2.330 -0.8486 -0.2771  1.5556
  514TIP3   OH223104   0.669   4.750   8.505  0.2228 -0.0571  0.5776
  514TIP3    H123105   0.694   4.839   8.530  2.3773 -0.9866  1.9431
  514TIP3    H223106   0.628   4.714   8.584  2.9061 -1.4869  1.4493
  515TIP3   OH223107   2.425   2.955   7.903 -0.1203  0.1143 -0.2254
  515TIP3    H123108   2.400   3.030   7.849 -0.4606  0.2902  0.1684
  515TIP3    H223109   2.369   2.884   7.873 -0.9127  0.4339  0.4617
  516TIP3   OH223110   2.746   5.485   0.142  0.0227  0.5070 -0.6972
  516TIP3    H123111   2.657   5.508   0.169 -0.0940 -1.4415  0.8305
  516TIP3    H223112   2.737   5.399   0.101  1.0806  0.7153 -1.3976
  517TIP3   OH223113   5.132   0.732   1.387  0.3413 -0.4320  0.0500
  517TIP3    H123114   5.186   0.662   1.424  1.7946  0.2944 -0.5859
  517TIP3    H223115   5.183   0.812   1.402 -0.4664  0.2605 -0.7700
  518TIP3   OH223116   6.104   3.207   2.028 -0.0376 -0.0071  0.8276
  518TIP3    H123117   6.044   3.140   1.996  0.4398 -1.1291  2.1830
  518TIP3    H223118   6.056   3.290   2.018 -0.2285 -0.3432 -1.9191
  519TIP3   OH223119   2.562   4.235   7.453  0.0039 -0.2814 -0.0578
  519TIP3    H123120   2.591   4.204   7.539 -0.7695  0.6251  0.5527
  519TIP3    H223121   2.643   4.263   7.409  0.3297 -0.0933  0.6454
  520TIP3   OH223122   4.628   2.755   1.026 -0.3145  0.1909 -0.3135
  520TIP3    H123123   4.655   2.839   1.063  0.6713 -0.7197  1.1292
  520TIP3    H223124   4.549   2.732   1.075 -0.1969 -0.0398 -0.2316
  521TIP3   OH223125   0.302   0.058   8.394  0.0170 -0.1102  0.4854
  521TIP3    H123126   0.213   0.049   8.358  0.3110  1.4635 -0.7692
  521TIP3    H223127   0.312   0.151   8.410  1.1409 -0.3763  1.4871
  522TIP3   OH223128   5.124   5.554   8.466  0.4802 -0.5417 -0.0846
  522TIP3    H123129   5.183   5.507   8.525  0.2831 -0.3499  0.2666
  522TIP3    H223130   5.063   5.600   8.524 -0.6630 -1.5538 -0.4489
  523TIP3   OH223131   5.342   2.683   7.478 -0.0167  0.4856 -0.2057
  523TIP3    H123132   5.278   2.615   7.456  1.4831 -0.9521 -0.2323
  523TIP3    H223133   5.306   2.762   7.437 -2.8794  0.2577  1.6124
  524TIP3   OH223134   4.652   3.718   8.038  0.3978 -0.4100  0.0509
  524TIP3    H123135   4.701   3.707   8.120  0.3685  1.0557  0.2874
  524TIP3    H223136   4.632   3.811   8.034 -0.8412 -0.6838 -0.9324
  525TIP3   OH223137   3.960   2.061   7.189 -0.3904 -0.2963 -0.2637
  525TIP3    H123138   3.900   2.096   7.254 -1.1296 -1.8113 -0.0778
  525TIP3    H223139   3.981   1.973   7.221  3.7256  0.8751  0.8732
  526TIP3   OH223140   0.777   6.070   8.507  0.0110 -0.1352  0.2034
  526TIP3    H123141   0.721   6.053   8.432  0.3351 -0.9748  0.1438
  526TIP3    H223142   0.859   6.025   8.487  0.4002  0.3496  0.6788
  527TIP3   OH223143   4.807   3.217   6.123 -0.4589 -0.2157 -0.2402
  527TIP3    H123144   4.811   3.140   6.067 -1.0401 -0.6960  0.3540
  527TIP3    H223145   4.768   3.185   6.205  0.0253  0.5391  0.3006
  528TIP3   OH223146   6.742   2.190   7.914 -0.4670 -0.0669 -0.3640
  528TIP3    H123147   6.727   2.143   7.832 -0.8571 -1.0536  0.2479
  528TIP3    H223148   6.656   2.195   7.955 -0.0163 -1.3039  0.8519
  529TIP3   OH223149   6.367   6.126   8.635 -0.5293 -0.0213  0.5896
  529TIP3    H123150   6.314   6.170   8.702 -1.8985  2.2438 -1.7892
  529TIP3    H223151   6.304   6.077   8.582  0.1533  0.1550 -0.4199
  530TIP3   OH223152   3.364   1.590   0.253 -0.4347 -0.3222 -0.1517
  530TIP3    H123153   3.412   1.533   0.193 -0.2592 -0.4567  0.1210
  530TIP3    H223154   3.407   1.579   0.337 -0.5168  0.0726 -0.0576
  531TIP3   OH223155   1.947   4.937   7.484  0.3365 -0.4268  0.2438
  531TIP3    H123156   1.938   5.031   7.472  1.2759 -0.2503  0.8323
  531TIP3    H223157   1.871   4.912   7.536  0.9914  0.3145  1.6019
  532TIP3   OH223158   2.332   6.452   7.992  0.5485 -0.0980 -0.3937
  532TIP3    H123159   2.396   6.383   7.971 -0.5645 -1.2695 -0.0687
  532TIP3    H223160   2.285   6.465   7.910  0.8844  0.4280 -0.5061
  533TIP3   OH223161   3.985   3.908   1.055  0.0742  0.1825 -0.5262
  533TIP3    H123162   4.077   3.916   1.080 -0.3556  3.3209  0.4243
  533TIP3    H223163   3.972   3.975   0.988 -2.0020  1.3612  0.9682
  534TIP3   OH223164   2.309   1.894   1.076  0.2126 -0.3224 -0.0484
  534TIP3    H123165   2.378   1.842   1.118  1.6352  0.4793 -1.2744
  534TIP3    H223166   2.252   1.830   1.034  0.9043 -0.9632 -0.0278
  535TIP3   OH223167   1.115   2.535   2.331 -0.1001  0.1766  0.0608
  535TIP3    H123168   1.094   2.581   2.249  0.0792  0.3929  0.1362
  535TIP3    H223169   1.060   2.456   2.328 -2.3186  1.5697  1.0700
  536TIP3   OH223170   0.380   2.143   1.780  0.0036  0.1779  0.0358
  536TIP3    H123171   0.376   2.085   1.703 -0.6298 -0.0586  0.2419
  536TIP3    H223172   0.440   2.213   1.754 -0.0768  0.0117 -0.6147
  537TIP3   OH223173   4.678   2.488   0.461  0.2860 -0.4466  0.2027
  537TIP3    H123174   4.773   2.479   0.458  0.1481 -2.2271  0.2162
  537TIP3    H223175   4.649   2.417   0.519 -1.0800 -0.1226 -0.0423
  538TIP3   OH223176   5.455   3.426   8.264  0.3146 -0.1538 -0.0647
  538TIP3    H123177   5.489   3.494   8.206  2.7674  0.3087  1.7404
  538TIP3    H223178   5.378   3.467   8.305  0.1885  0.5261 -0.9464
  539TIP3   OH223179   5.468   4.563   1.256  0.2944 -0.0395  0.6306
  539TIP3    H123180   5.384   4.556   1.212  0.6066 -1.9081  0.2748
  539TIP3    H223181   5.525   4.609   1.194  0.4773 -1.8506 -0.6134
  540TIP3   OH223182   4.336   5.311   7.750 -0.3574  0.0435  0.0111
  540TIP3    H123183   4.370   5.386   7.700  1.1682 -0.2308  0.5879
  540TIP3    H223184   4.262   5.280   7.698  0.3189  0.6326 -1.3657
  541TIP3   OH223185   0.082   1.625   1.033 -0.0576 -0.7371 -0.2413
  541TIP3    H123186   0.094   1.581   0.950  1.8213  0.1786 -0.5222
  541TIP3    H223187   0.046   1.711   1.010  1.1651 -0.1962 -0.2227
  542TIP3   OH223188   1.126   5.082   6.969 -1.1618  0.1857  0.2028
  542TIP3    H123189   1.081   5.026   7.031 -3.1472 -0.2449 -1.5207
  542TIP3    H223190   1.061   5.103   6.902  0.4551  1.8013 -1.0032
  543TIP3   OH223191   6.131   0.705   1.772  0.2079  0.0678  0.0481
  543TIP3    H123192   6.124   0.613   1.799  0.0711 -0.1018 -0.5522
  543TIP3    H223193   6.123   0.755   1.853 -1.5928 -0.3618  0.1749
  544TIP3   OH223194   0.494   0.486   8.234 -0.1927 -0.3696  0.2761
  544TIP3    H123195   0.586   0.497   8.259  0.7164 -0.2332 -2.7105
  544TIP3    H223196   0.456   0.573   8.245  0.5339  0.0075 -0.1055
  545TIP3   OH223197   6.479   5.639   6.950  0.4164 -0.1592  0.1019
  545TIP3    H123198   6.538   5.714   6.956  2.6571 -1.7475 -0.6708
  545TIP3    H223199   6.444   5.643   6.860  0.7197 -0.1627 -0.0173
  546TIP3   OH223200   5.303   2.546   1.592 -0.1603  0.4106 -0.3930
  546TIP3    H123201   5.372   2.607   1.565  1.5625 -0.6960  1.2697
  546TIP3    H223202   5.285   2.569   1.683 -1.5640  0.2607 -0.6180
  547TIP3   OH223203   3.633   0.931   2.137  0.0413 -0.2810  0.0867
  547TIP3    H123204   3.665   0.975   2.215 -0.5368 -0.2069  0.2881
  547TIP3    H223205   3.571   0.866   2.169 -0.2891 -0.1712 -0.3133
  548TIP3   OH223206   6.104   5.944   8.773 -0.6654 -0.5456 -0.4259
  548TIP3    H123207   6.098   6.021   8.717  0.6245 -0.3397 -0.3147
  548TIP3    H223208   6.103   5.979   8.862  0.2157 -0.6150 -0.3795
  549TIP3   OH223209   0.293   6.588   8.546  0.9936  0.2178 -0.0414
  549TIP3    H123210   0.337   6.526   8.604 -1.4229 -1.1044  0.5246
  549TIP3    H223211   0.242   6.644   8.605 -0.4048 -0.2383 -0.7843
  550TIP3   OH223212   3.726   5.094   6.733  0.1551  0.6069  0.0803
  550TIP3    H123213   3.739   5.135   6.647 -0.8794  2.7198  0.8478
  550TIP3    H223214   3.778   5.149   6.793 -0.2386  0.0024  0.9971
  551TIP3   OH223215   4.729   1.300   7.319 -0.0102 -0.3482 -0.1100
  551TIP3    H123216   4.732   1.234   7.250 -1.5864  0.1375 -0.6873
  551TIP3    H223217   4.636   1.308   7.341  0.3770  0.0784  1.5265
  552TIP3   OH223218   6.561   0.277   7.905  0.0620 -0.2435  0.1899
  552TIP3    H123219   6.521   0.338   7.967  1.2060  0.7887 -0.0517
  552TIP3    H223220   6.500   0.273   7.832  0.3743  1.3170 -0.1838
  553TIP3   OH223221   5.149   2.043   0.941  0.3483  0.3418 -0.3006
  553TIP3    H123222   5.138   1.975   1.008  1.6756 -2.0624 -2.3421
  553TIP3    H223223   5.061   2.056   0.906  0.0934 -0.5354 -0.0300
  554TIP3   OH223224   6.589   2.838   7.373  0.3476  0.1904 -0.0399
  554TIP3    H123225   6.512   2.851   7.317  0.0632  0.7876  0.4775
  554TIP3    H223226   6.587   2.912   7.434  0.5161 -0.5823  0.9245
  555TIP3   OH223227   1.788   0.027   8.571 -0.0802  0.5441  0.1878
  555TIP3    H123228   1.860   0.090   8.566 -0.0023  0.4712  0.3529
  555TIP3    H223229   1.727   0.054   8.503  0.3064  0.3566 -0.2373
  556TIP3   OH223230   5.726   1.679   1.121  0.3983  0.0609 -0.3791
  556TIP3    H123231   5.757   1.596   1.157  1.7883  0.0189 -1.6003
  556TIP3    H223232   5.790   1.743   1.150 -1.0929  0.9034  1.2269
  557TIP3   OH223233   1.006   0.228   1.755 -0.0755 -0.2623  0.1196
  557TIP3    H123234   0.991   0.301   1.695  1.7867 -0.3533 -0.5195
  557TIP3    H223235   0.928   0.173   1.745 -0.9898  1.0393 -0.2384
  558TIP3   OH223236   4.496   5.709   7.098  0.1036  0.5720  0.6321
  558TIP3    H123237   4.409   5.725   7.134  0.2671 -0.6502  1.6187
  558TIP3    H223238   4.481   5.647   7.026  0.1215  0.6749  0.5386
  559TIP3   OH223239   6.496   6.594   8.449  0.3847  0.7192 -0.1677
  559TIP3    H123240   6.509   6.561   8.360 -2.1614 -0.2473 -0.2691
  559TIP3    H223241   6.454   6.521   8.495 -2.0330  2.5134  0.6694
  560TIP3   OH223242   1.471   0.557   7.794 -0.6450 -0.2330  0.2274
  560TIP3    H123243   1.565   0.562   7.779 -1.1865  0.3810 -4.4586
  560TIP3    H223244   1.447   0.646   7.821  0.1402 -0.6562  2.5259
  561TIP3   OH223245   0.036   5.770   7.806  0.0020  0.3739 -0.5316
  561TIP3    H123246   0.003   5.855   7.838 -0.7179 -0.5886  1.4598
  561TIP3    H223247   0.110   5.793   7.750  0.6763  2.2747  1.0147
  562TIP3   OH223248   0.282   2.019   6.779 -0.2243 -0.1935  0.7683
  562TIP3    H123249   0.315   1.939   6.738  0.6747  0.7002 -0.3095
  562TIP3    H223250   0.358   2.078   6.781 -1.1586  1.0490  0.4579
  563TIP3   OH223251   4.733   3.173   7.847  0.2496 -0.2257  0.1312
  563TIP3    H123252   4.751   3.209   7.934 -0.4424 -2.0395  1.0783
  563TIP3    H223253   4.757   3.243   7.787  3.4590  0.1423  1.6169
  564TIP3   OH223254   5.755   1.872   7.223  0.1757 -0.3344  0.1681
  564TIP3    H123255   5.790   1.798   7.274  0.9881 -0.9587 -1.2467
  564TIP3    H223256   5.736   1.835   7.137  0.6235  1.1127 -0.5766
  565TIP3   OH223257   4.521   4.419   6.046  0.4650 -0.2934  0.7984
  565TIP3    H123258   4.518   4.514   6.053  1.5452  0.0385 -2.0047
  565TIP3    H223259   4.429   4.393   6.036  0.0461  0.2607  2.8255
  566TIP3   OH223260   2.861   4.975   7.600 -0.0350 -0.0531  0.1662
  566TIP3    H123261   2.814   4.899   7.567  0.0234 -0.1064  0.2039
  566TIP3    H223262   2.937   4.982   7.542 -0.5929  0.6117 -0.4967
  567TIP3   OH223263   2.846   2.622   7.677 -0.0184  0.5701  0.3362
  567TIP3    H123264   2.811   2.566   7.608 -0.1661  0.4633  0.4987
  567TIP3    H223265   2.876   2.561   7.744 -0.5811  0.6971  0.7106
  568TIP3   OH223266   0.542   2.300   8.473 -0.6427  0.6022  0.6567
  568TIP3    H123267   0.453   2.316   8.442 -0.9149 -0.9951  0.5287
  568TIP3    H223268   0.583   2.386   8.475 -2.5577  1.5555  1.8567
  569TIP3   OH223269   5.548   5.560   8.224  0.9094 -0.4196 -0.1782
  569TIP3    H123270   5.630   5.543   8.270  0.8201 -2.2628 -0.6533
  569TIP3    H223271   5.572   5.621   8.154  1.6034  0.0927  0.4966
  570TIP3   OH223272   6.646   2.054   7.689  0.0080  0.0104 -0.0078
  570TIP3    H123273   6.599   2.054   7.606 -3.9043  0.2571  1.9856
  570TIP3    H223274   6.605   1.985   7.740  0.2277  1.7614  2.7354
  571TIP3   OH223275   4.107   3.107   0.552  0.1816 -0.2541  0.0398
  571TIP3    H123276   4.164   3.063   0.615  0.5953  0.8745  0.4691
  571TIP3    H223277   4.142   3.196   0.545 -0.1979 -0.1926 -1.3662
  572TIP3   OH223278   4.040   3.669   8.051 -0.0054 -0.0520  0.1022
  572TIP3    H123279   4.134   3.685   8.043 -0.0373  0.3139  0.4398
  572TIP3    H223280   4.027   3.650   8.143 -0.4549  1.2157  0.3185
  573TIP3   OH223281   2.698   1.500   1.665  0.4279 -0.2989 -0.6181
  573TIP3    H123282   2.637   1.461   1.728  0.2902 -1.4131 -1.4043
  573TIP3    H223283   2.726   1.582   1.706  0.8667 -1.2972  1.2254
  574TIP3   OH223284   1.314   5.343   1.399 -0.2235  0.1641 -0.0815
  574TIP3    H123285   1.320   5.409   1.330  1.6795 -0.3803 -0.4908
  574TIP3    H223286   1.321   5.260   1.353  1.6514 -0.1995  0.7605
  575TIP3   OH223287   0.328   4.109   0.047 -0.4356  0.0211 -0.3145
  575TIP3    H123288   0.252   4.145   0.002  0.4687  1.7232 -0.5499
  575TIP3    H223289   0.299   4.022   0.077 -2.4042  0.5634 -0.5106
  576TIP3   OH223290   5.262   5.937   8.304  0.0440 -0.0124  0.3751
  576TIP3    H123291   5.323   5.893   8.363  0.7989  1.5541  0.8091
  576TIP3    H223292   5.235   5.869   8.242  2.1693 -0.7738  0.2154
  577TIP3   OH223293   2.392   0.549   7.727  0.0395  0.0631  0.6368
  577TIP3    H123294   2.389   0.644   7.741 -1.3400  0.0964  0.2925
  577TIP3    H223295   2.306   0.518   7.755 -0.8255 -0.5989 -2.3719
  578TIP3   OH223296   2.662   3.964   1.553  0.2257  0.8967  0.0138
  578TIP3    H123297   2.626   3.884   1.591 -0.3030  1.4998  0.7886
  578TIP3    H223298   2.751   3.939   1.527  0.7465  0.5442  1.9510
  579TIP3   OH223299   6.111   6.146   8.545  0.3130  0.4773 -0.4490
  579TIP3    H123300   6.020   6.168   8.566  0.6682  0.6825  1.0250
  579TIP3    H223301   6.130   6.194   8.465 -0.6089  1.1503 -0.2734
  580TIP3   OH223302   2.151   5.689   1.862 -0.9314  0.3623  0.4281
  580TIP3    H123303   2.241   5.667   1.885 -0.8465 -0.6136 -0.7430
  580TIP3    H223304   2.098   5.628   1.912 -0.7869 -1.1009 -1.1173
  581TIP3   OH223305   5.005   1.073   1.469 -0.5212 -0.2882 -0.1251
  581TIP3    H123306   4.943   1.016   1.424 -1.6104  0.0680  0.8684
  581TIP3    H223307   4.962   1.159   1.471 -0.4331 -0.2488  1.4047
  582TIP3   OH223308   1.903   3.429   8.644 -0.0147  0.0190 -0.1416
  582TIP3    H123309   1.907   3.524   8.656 -0.4909  0.3307 -2.0978
  582TIP3    H223310   1.994   3.403   8.632  0.1977  0.0824  1.1840
  583TIP3   OH223311   4.671   4.526   8.364 -0.2401  0.0202  0.1471
  583TIP3    H123312   4.723   4.605   8.355 -0.9656  0.5786  0.7112
  583TIP3    H223313   4.735   4.454   8.367  0.4789  0.6693  0.6760
  584TIP3   OH223314   3.581   5.859   0.081  0.0534  0.6115  0.1855
  584TIP3    H123315   3.564   5.942   0.036  0.8108 -0.1257 -1.5680
  584TIP3    H223316   3.497   5.813   0.076 -0.1151  0.8997  0.3309
  585TIP3   OH223317   6.039   0.597   7.406  0.3017 -0.2323  0.2939
  585TIP3    H123318   5.974   0.658   7.372  0.4849 -0.1344  0.1125
  585TIP3    H223319   6.107   0.595   7.338  2.0592  2.0796  1.8654
  586TIP3   OH223320   4.208   5.351   6.198 -0.0993  0.2657 -0.4801
  586TIP3    H123321   4.272   5.418   6.219 -1.9354  1.6697  1.0552
  586TIP3    H223322   4.246   5.270   6.231  1.0458  0.9994  0.0653
  587TIP3   OH223323   0.361   5.179   0.926  0.0092  0.9384 -0.4745
  587TIP3    H123324   0.354   5.260   0.978 -1.1422 -0.3897  1.6162
  587TIP3    H223325   0.447   5.184   0.885  0.5409  2.6160  0.7197
  588TIP3   OH223326   3.496   2.900   8.544  0.1132 -0.5116 -0.4361
  588TIP3    H123327   3.447   2.843   8.604  0.5450 -0.6019 -0.1679
  588TIP3    H223328   3.430   2.932   8.483 -0.5452  0.4448  0.7288
  589TIP3   OH223329   4.208   6.506   7.047  0.6266 -0.1715  0.0066
  589TIP3    H123330   4.283   6.525   6.991  1.2239  1.3605  1.2565
  589TIP3    H223331   4.208   6.576   7.112 -2.2798  0.2482 -0.3253
  590TIP3   OH223332   1.671   6.714   8.257 -0.2343 -0.0828  0.1212
  590TIP3    H123333   1.748   6.660   8.277 -0.9493 -1.1075  0.1968
  590TIP3    H223334   1.624   6.665   8.189  0.4508  1.7577 -1.7784
  591TIP3   OH223335   4.923   0.456   8.460 -0.4921  0.4957 -0.1217
  591TIP3    H123336   4.959   0.444   8.548  1.3190  2.0114 -0.5996
  591TIP3    H223337   4.998   0.446   8.402 -1.7470 -0.9709 -1.5769
  592TIP3   OH223338   5.391   6.283   2.706  0.3963 -0.2563 -0.5375
  592TIP3    H123339   5.321   6.337   2.743  1.1146 -0.7118  1.6501
  592TIP3    H223340   5.345   6.210   2.664 -0.4742 -0.1785  0.2442
  593TIP3   OH223341   5.945   0.478   6.015  0.0076  0.0597  0.0192
  593TIP3    H123342   5.859   0.437   6.023  0.2990 -0.6920 -0.5660
  593TIP3    H223343   6.006   0.411   6.048  0.2233  1.3982  2.5680
  594TIP3   OH223344   3.896   5.266   1.280  0.2059  0.4021 -0.5443
  594TIP3    H123345   3.923   5.221   1.200  1.9614  0.3206  0.0616
  594TIP3    H223346   3.944   5.349   1.279 -0.9596  1.1083 -0.3188
  595TIP3   OH223347   0.256   1.639   6.844  0.1070 -0.1958 -0.1805
  595TIP3    H123348   0.323   1.698   6.878 -0.7894  0.7561 -0.0075
  595TIP3    H223349   0.299   1.554   6.838  0.2805 -0.5450  3.6457
  596TIP3   OH223350   5.754   5.333   7.930  0.2121  0.4742 -0.2911
  596TIP3    H123351   5.782   5.319   7.840 -2.4281 -1.5825 -0.9097
  596TIP3    H223352   5.770   5.250   7.974 -0.0324  0.9317  0.7074
  597TIP3   OH223353   0.003   6.060   8.743  0.2821 -0.4034  0.4946
  597TIP3    H123354  -0.008   6.085   8.834 -0.8464  2.6544 -0.3410
  597TIP3    H223355  -0.085   6.057   8.707  0.7379 -0.8270 -0.6463
  598TIP3   OH223356   0.637   1.161   7.893  0.5172  0.3506  0.4030
  598TIP3    H123357   0.591   1.108   7.958  1.8337  0.6674  1.6214
  598TIP3    H223358   0.568   1.214   7.853 -0.4480 -0.5110  0.8596
  599TIP3   OH223359   3.505   2.333   8.814 -0.3592  0.4448  0.4517
  599TIP3    H123360   3.594   2.341   8.848  0.4185 -0.7200 -1.1652
  599TIP3    H223361   3.461   2.275   8.876  0.5779 -0.4497  0.3146
  600TIP3   OH223362   4.856   5.692   7.361  0.0572  0.3934 -0.0310
  600TIP3    H123363   4.922   5.760   7.375  2.3345 -2.0605  2.0457
  600TIP3    H223364   4.897   5.630   7.302 -0.8361 -0.6115  0.3808
  601TIP3   OH223365   6.727   0.888   1.321  0.4793  0.4415 -0.4339
  601TIP3    H123366   6.687   0.931   1.245  2.0874  0.5745 -1.2626
  601TIP3    H223367   6.744   0.959   1.383 -0.6957  0.3559  0.0033
  602TIP3   OH223368   1.657   4.290   1.648  1.2562  0.1261  0.4144
  602TIP3    H123369   1.704   4.371   1.669 -1.6091  1.7362  1.2205
  602TIP3    H223370   1.638   4.250   1.733  0.7775 -0.2318  0.1476
  603TIP3   OH223371   1.184   2.460   6.295  0.1069  0.2259  0.3154
  603TIP3    H123372   1.265   2.411   6.310 -0.6909 -0.7963  1.3966
  603TIP3    H223373   1.118   2.414   6.346 -1.0807  1.3020 -0.2062
  604TIP3   OH223374   5.590   4.645   6.338 -0.3494  0.3490 -0.2836
  604TIP3    H123375   5.658   4.657   6.272 -0.9736  0.7891 -0.8594
  604TIP3    H223376   5.631   4.592   6.406  0.2705 -0.2164 -1.0857
  605TIP3   OH223377   1.834   4.726   1.069 -0.7708 -0.4878  0.2666
  605TIP3    H123378   1.791   4.810   1.090 -0.1528 -0.3748  1.1453
  605TIP3    H223379   1.824   4.674   1.149  0.7943 -0.4212  0.5239
  606TIP3   OH223380   3.743   0.975   7.510  0.1228 -0.1248  0.2110
  606TIP3    H123381   3.741   0.885   7.477 -2.4861 -0.2717  0.5919
  606TIP3    H223382   3.720   1.029   7.435 -4.3230 -0.3515  1.1132
  607TIP3   OH223383   0.363   1.620   7.829  0.2668  0.6661  0.1937
  607TIP3    H123384   0.292   1.675   7.861  0.0668  0.2483  0.4730
  607TIP3    H223385   0.321   1.564   7.763  0.7491  1.7891 -1.1236
  608TIP3   OH223386   0.260   0.729   8.634 -0.2142 -0.2684  0.3130
  608TIP3    H123387   0.242   0.635   8.647 -0.7901 -0.3365 -0.8917
  608TIP3    H223388   0.182   0.763   8.591  0.2030  0.6675  0.2742
  609TIP3   OH223389   1.098   6.218   1.118 -0.2873  0.0907  0.4654
  609TIP3    H123390   1.004   6.235   1.119 -0.3155 -0.0220  1.4071
  609TIP3    H223391   1.114   6.168   1.199  0.1143 -2.4609 -1.0763
  610TIP3   OH223392   0.852   1.783   6.847 -0.6560 -0.1580  0.8586
  610TIP3    H123393   0.895   1.742   6.772 -0.4611  2.7225 -0.7430
  610TIP3    H223394   0.916   1.777   6.918 -0.0141 -1.1089  0.2262
  611TIP3   OH223395   3.575   3.863   1.127  0.4015  0.6502 -0.1353
  611TIP3    H123396   3.655   3.814   1.107  1.7561  1.9042  1.8168
  611TIP3    H223397   3.541   3.888   1.041  0.2450 -2.6356 -1.1694
  612TIP3   OH223398   6.528   5.941   6.989  0.3487 -0.5187 -0.3956
  612TIP3    H123399   6.483   5.954   7.072  0.5537 -1.0164 -0.2012
  612TIP3    H223400   6.467   5.973   6.922  0.4726  0.5621 -0.0076
  613TIP3   OH223401   1.956   4.365   0.725 -0.3382 -0.3416  0.1333
  613TIP3    H123402   1.881   4.337   0.672 -1.5384  1.6582  0.6661
  613TIP3    H223403   1.918   4.390   0.809  1.2093 -1.0441  1.0891
  614TIP3   OH223404   4.886   1.510   8.256 -0.3360 -0.3284 -0.5344
  614TIP3    H123405   4.820   1.441   8.260 -1.0506  0.3137 -0.9356
  614TIP3    H223406   4.888   1.546   8.345 -3.3549  2.1786 -1.2860
  615TIP3   OH223407   1.396   0.984   2.041 -0.3281 -0.2396 -0.5262
  615TIP3    H123408   1.423   1.075   2.054  0.0570 -0.4868  0.4596
  615TIP3    H223409   1.302   0.984   2.060  0.0479 -0.4206  1.6354
  616TIP3   OH223410   2.736   6.621   8.389 -0.1405  0.2639 -0.0833
  616TIP3    H123411   2.723   6.579   8.304 -1.6536  2.7685 -1.2239
  616TIP3    H223412   2.804   6.686   8.374  1.3552 -0.8955  1.3349
  617TIP3   OH223413   0.453   0.588   7.670 -0.0233 -0.6274  0.3154
  617TIP3    H123414   0.480   0.593   7.762  0.9513 -1.7812  0.1103
  617TIP3    H223415   0.360   0.565   7.674 -1.2346  3.5107  1.0280
  618TIP3   OH223416   0.917   2.452   1.122  0.3363 -0.3909 -0.3042
  618TIP3    H123417   0.844   2.512   1.106  0.2456 -0.4551 -0.1367
  618TIP3    H223418   0.971   2.496   1.187  1.0162  0.1297 -1.1949
  619TIP3   OH223419   2.910   5.920   7.852  0.1661 -0.5105 -0.4033
  619TIP3    H123420   2.839   5.855   7.859 -0.3807  0.1819  0.7968
  619TIP3    H223421   2.986   5.875   7.890 -0.9427  0.5110  3.4719
  620TIP3   OH223422   3.063   2.761   1.191 -0.1675 -0.3266  0.4048
  620TIP3    H123423   3.026   2.680   1.227 -0.0122 -0.2894  0.6547
  620TIP3    H223424   3.151   2.765   1.228  0.5122 -1.0078 -1.0940
  621TIP3   OH223425   0.812   5.634   0.624 -0.0612  0.0678 -0.1324
  621TIP3    H123426   0.730   5.682   0.634  1.0305  1.9097  0.4141
  621TIP3    H223427   0.873   5.678   0.683  2.0108  0.3575 -2.3354
  622TIP3   OH223428   0.210   5.053   7.703  0.3304  0.6625  0.4374
  622TIP3    H123429   0.201   5.147   7.719  1.2575  0.7350  0.5911
  622TIP3    H223430   0.305   5.038   7.702  0.1913 -0.4874  1.7612
  623TIP3   OH223431   5.936   0.137   1.634  0.2487  0.4613  0.0910
  623TIP3    H123432   5.965   0.187   1.558  0.6416  0.6355  0.3513
  623TIP3    H223433   6.011   0.083   1.658  0.0826  0.3054  0.2732
  624TIP3   OH223434   1.952   4.016   2.029  0.3944 -0.1073  0.2266
  624TIP3    H123435   2.034   3.999   2.076 -0.2096 -1.1572  0.9455
  624TIP3    H223436   1.884   3.985   2.089 -0.6350  2.0932  0.2770
  625TIP3   OH223437   1.933   4.881   0.848  0.0805  0.1080 -0.6654
  625TIP3    H123438   1.940   4.799   0.897 -0.4607 -0.0826 -0.9006
  625TIP3    H223439   1.856   4.869   0.793  0.3854  0.5190 -1.1910
  626TIP3   OH223440   4.726   6.740   1.553 -0.2892 -0.0035 -0.0155
  626TIP3    H123441   4.759   6.791   1.479 -0.8312  0.6390  0.1774
  626TIP3    H223442   4.667   6.676   1.513 -1.3874  1.0068 -0.0652
  627TIP3   OH223443   4.519   3.555   6.927 -0.4888  0.0095  0.0887
  627TIP3    H123444   4.539   3.539   7.019  0.3959  0.3717 -0.0403
  627TIP3    H223445   4.520   3.468   6.887 -0.2232 -0.0771  0.2875
  628TIP3   OH223446   1.904   3.547   0.093  0.2030  0.4675 -0.1585
  628TIP3    H123447   1.942   3.462   0.117 -0.7631 -0.2556 -1.0921
  628TIP3    H223448   1.954   3.575   0.016  1.0024  1.1156  0.5770
  629TIP3   OH223449   1.636   5.130   2.415  0.7118  0.3413 -0.4598
  629TIP3    H123450   1.625   5.044   2.455  1.0895  0.1779 -0.6992
  629TIP3    H223451   1.560   5.140   2.358 -0.0250  0.7356  0.5686
  630TIP3   OH223452   4.900   4.668   8.226 -0.6007 -0.8936 -0.0312
  630TIP3    H123453   4.963   4.737   8.246 -1.4497 -0.2682  0.5644
  630TIP3    H223454   4.954   4.595   8.194  0.4377 -0.4454  0.6271
  631TIP3   OH223455   5.860   3.434   1.846 -0.2226 -0.1365  0.0600
  631TIP3    H123456   5.912   3.428   1.926  1.2601 -0.2961 -0.8899
  631TIP3    H223457   5.770   3.440   1.877  0.3033 -0.3969  1.7354
  632TIP3   OH223458   4.373   5.143   1.332  0.7676 -0.5710 -0.2687
  632TIP3    H123459   4.382   5.227   1.288  0.2945 -0.9918 -1.1864
  632TIP3    H223460   4.459   5.128   1.373  1.1783 -0.1100 -0.9474
  633TIP3   OH223461   3.057   2.729   7.555  0.0382 -0.4288 -0.1997
  633TIP3    H123462   3.105   2.774   7.624 -0.6754  0.1152 -0.0448
  633TIP3    H223463   2.974   2.705   7.596 -0.2419 -0.4262 -0.7602
  634TIP3   OH223464   2.189   6.407   1.578 -0.0403  0.5479  1.1352
  634TIP3    H123465   2.250   6.338   1.554 -0.9497  0.0289  0.2126
  634TIP3    H223466   2.103   6.364   1.574 -0.6007  1.6918  0.7148
  635TIP3   OH223467   5.319   1.472   8.288 -0.2113 -0.5966 -0.1714
  635TIP3    H123468   5.249   1.412   8.262 -0.2081 -0.0911 -1.4022
  635TIP3    H223469   5.329   1.530   8.213  1.6430 -0.7558 -0.0791
  636TIP3   OH223470   5.915   1.273   1.832  0.1935  0.5329  0.3255
  636TIP3    H123471   5.913   1.290   1.926 -1.6714  1.2680  0.2018
  636TIP3    H223472   5.837   1.317   1.798  0.4319 -0.3205 -1.4629
  637TIP3   OH223473   4.938   2.212   1.270 -0.3799  0.1842  0.1342
  637TIP3    H123474   4.863   2.250   1.315 -0.9808 -0.9931  0.1628
  637TIP3    H223475   4.930   2.241   1.179 -0.2065  1.0191  0.3799
  638TIP3   OH223476   0.299   1.507   1.518  0.3231 -0.4168 -0.7039
  638TIP3    H123477   0.359   1.444   1.557  0.7244  0.7549  0.6813
  638TIP3    H223478   0.293   1.481   1.426  1.1428 -1.9275 -0.3661
  639TIP3   OH223479   0.028   1.502   6.187  0.0560 -0.0482  0.1507
  639TIP3    H123480   0.009   1.413   6.158 -0.5377  0.2942 -0.5329
  639TIP3    H223481   0.122   1.513   6.170  0.2045 -0.6322  0.5213
  640TIP3   OH223482   6.472   2.729   0.390 -0.3955 -0.1911  0.2259
  640TIP3    H123483   6.393   2.685   0.422 -0.1064 -0.8126  0.1193
  640TIP3    H223484   6.513   2.765   0.468 -0.5893 -0.2082  0.3340
  641TIP3   OH223485   0.233   3.794   8.058  0.1474 -0.8610  0.1430
  641TIP3    H123486   0.157   3.807   8.115  2.0234  0.5723  2.5287
  641TIP3    H223487   0.251   3.880   8.021  1.8293 -0.5949  1.4095
  642TIP3   OH223488   5.521   4.476   0.117 -0.7932  0.1389  0.1780
  642TIP3    H123489   5.499   4.517   0.033 -0.2179 -0.9328 -0.5129
  642TIP3    H223490   5.581   4.538   0.158 -1.5735  0.9731  0.0992
  643TIP3   OH223491   2.585   4.116   7.922  0.3495 -0.1199 -0.8526
  643TIP3    H123492   2.652   4.130   7.989 -0.5883 -0.2890  0.1442
  643TIP3    H223493   2.507   4.158   7.958 -0.4376 -1.1061 -1.3758
  644TIP3   OH223494   4.737   3.597   0.231 -0.2309 -0.0749 -0.6950
  644TIP3    H123495   4.667   3.661   0.246  1.6164  2.0449 -0.6272
  644TIP3    H223496   4.695   3.512   0.246 -2.3541  1.1692  1.0697
  645TIP3   OH223497   0.792   3.260   7.793  0.1909  0.0940 -0.4126
  645TIP3    H123498   0.819   3.313   7.718 -1.7349  0.7355 -0.6870
  645TIP3    H223499   0.737   3.318   7.846  2.6340  0.1599  2.3515
  646TIP3   OH223500   1.031   2.298   2.245 -0.0771 -0.1943 -0.1893
  646TIP3    H123501   1.088   2.227   2.275 -0.2081 -1.1751 -2.0744
  646TIP3    H223502   0.948   2.255   2.225 -0.8446  0.8712  0.6287
  647TIP3   OH223503   6.273   2.558   0.469 -0.0815 -0.4852 -0.3673
  647TIP3    H123504   6.334   2.491   0.497 -0.1407  0.1778  1.4686
  647TIP3    H223505   6.208   2.510   0.417 -0.3289 -1.9503  1.1838
  648TIP3   OH223506   6.582   4.619   7.058 -0.3587  0.0534  0.6191
  648TIP3    H123507   6.616   4.623   6.968  0.3304  1.2182  0.9225
  648TIP3    H223508   6.622   4.540   7.094 -1.2626 -0.8722 -0.3300
  649TIP3   OH223509   5.827   2.571   0.778 -0.5503  0.8072  0.4857
  649TIP3    H123510   5.893   2.636   0.802 -0.9966  1.0442  1.1224
  649TIP3    H223511   5.838   2.558   0.684  1.1992 -0.0742  0.7871
  650TIP3   OH223512   0.932   3.768   0.777  0.2138 -0.1389  0.3090
  650TIP3    H123513   0.991   3.706   0.735  1.6142  1.6963 -0.5584
  650TIP3    H223514   0.849   3.757   0.729  0.5159 -1.1029 -0.0253
  651TIP3   OH223515   5.367   6.740   1.018 -0.4096 -0.0251 -0.1285
  651TIP3    H123516   5.329   6.654   1.003  1.2734 -0.4451 -2.6742
  651TIP3    H223517   5.385   6.742   1.112 -0.8618 -2.2787  0.0642
  652TIP3   OH223518   0.922   4.653   0.022  0.3823 -0.1118  0.3492
  652TIP3    H123519   0.980   4.593  -0.026  0.4106 -0.4024  0.7425
  652TIP3    H223520   0.881   4.598   0.089 -1.0882 -0.1317 -0.5259
  653TIP3   OH223521   0.184   5.800   6.477 -0.5055  0.0813 -0.0920
  653TIP3    H123522   0.118   5.733   6.462 -1.2721  0.7678  0.1057
  653TIP3    H223523   0.135   5.882   6.478  0.1056  0.4756  1.7048
  654TIP3   OH223524   4.086   2.063   1.314 -0.0623 -0.0884  0.2568
  654TIP3    H123525   4.091   1.969   1.300 -0.7115 -0.1281  0.2828
  654TIP3    H223526   4.160   2.083   1.371  0.3460 -0.5113 -0.1217
  655TIP3   OH223527   0.638   0.720   8.386  0.4983  0.1443  0.0998
  655TIP3    H123528   0.605   0.672   8.462  0.9835  2.5209  1.9296
  655TIP3    H223529   0.730   0.693   8.380 -0.0394 -1.6567 -1.0666
  656TIP3   OH223530   4.409   5.066   1.612 -0.1892 -0.5282  0.1438
  656TIP3    H123531   4.500   5.067   1.582 -0.8379 -0.7306 -2.0006
  656TIP3    H223532   4.378   5.156   1.598 -0.4071 -0.5379  0.5537
  657TIP3   OH223533   0.779   0.604   0.807 -0.3654  0.3981  0.4503
  657TIP3    H123534   0.696   0.558   0.793 -0.0524  0.2621 -1.0831
  657TIP3    H223535   0.844   0.534   0.817  0.1936  0.4095 -2.3718
  658TIP3   OH223536   0.733   1.626   2.004 -0.0829 -0.2192  1.2986
  658TIP3    H123537   0.715   1.532   2.003  0.0033 -0.2415  0.5226
  658TIP3    H223538   0.651   1.666   2.030 -1.5333 -0.2883 -2.4548
  659TIP3   OH223539   6.163   4.811   2.001 -0.2811 -0.5628 -0.1259
  659TIP3    H123540   6.163   4.893   2.050  2.4629  0.4078 -1.5068
  659TIP3    H223541   6.079   4.809   1.955 -0.7162  1.0748  0.5609
  660TIP3   OH223542   0.951   1.214   8.057 -0.6114 -0.3240  0.1089
  660TIP3    H123543   0.903   1.145   8.012  0.6503 -0.2273 -1.4806
  660TIP3    H223544   0.979   1.174   8.139 -1.7619 -0.9673  0.2140
  661TIP3   OH223545   0.625   1.805   0.399 -0.2309  0.0974  0.1831
  661TIP3    H123546   0.625   1.740   0.328 -0.5409  1.0269 -0.7002
  661TIP3    H223547   0.616   1.889   0.354 -1.5309  0.6546  1.3916
  662TIP3   OH223548   4.990   6.373   7.196 -0.1705  0.2186  0.5208
  662TIP3    H123549   4.922   6.415   7.144  0.1038  1.1023  0.8568
  662TIP3    H223550   5.072   6.405   7.160  0.0318  0.4479  1.1675
  663TIP3   OH223551   3.425   4.815   0.903  0.3625 -0.1530  0.7973
  663TIP3    H123552   3.350   4.761   0.877 -0.7048  1.3289  0.7192
  663TIP3    H223553   3.497   4.752   0.912 -0.0182 -1.2148 -2.3680
  664TIP3   OH223554   2.484   5.396   1.047  0.4971  0.1854  0.0030
  664TIP3    H123555   2.516   5.337   0.978 -0.2818  1.3280 -1.3728
  664TIP3    H223556   2.474   5.339   1.124  1.3243 -1.1344 -0.8253
  665TIP3   OH223557   4.880   1.528   7.261  0.2715  0.2174  0.0901
  665TIP3    H123558   4.822   1.452   7.271 -0.0727  0.5912  1.0180
  665TIP3    H223559   4.880   1.570   7.346 -0.3695  1.8508 -0.6732
  666TIP3   OH223560   6.662   0.603   7.679 -0.8245 -0.2274  0.3220
  666TIP3    H123561   6.590   0.638   7.732 -2.1497 -2.0492 -0.1811
  666TIP3    H223562   6.704   0.537   7.736 -0.6138 -0.3640  0.0115
  667TIP3   OH223563   2.085   3.778   0.948 -0.1728 -0.4780  0.2964
  667TIP3    H123564   2.137   3.845   0.905  3.2846 -2.4457  1.0291
  667TIP3    H223565   2.044   3.823   1.022  0.4067  1.1883 -0.3496
  668TIP3   OH223566   3.715   2.738   6.941  0.2837  0.3129  1.0717
  668TIP3    H123567   3.793   2.770   6.894 -0.5186 -1.1831 -1.4909
  668TIP3    H223568   3.713   2.644   6.923 -2.1965  0.3447  0.8954
  669TIP3   OH223569   4.890   0.811   8.331  0.3870 -0.3836 -0.2323
  669TIP3    H123570   4.854   0.723   8.344  1.5152 -0.9052 -0.5235
  669TIP3    H223571   4.971   0.812   8.382  0.5810  0.3600 -0.5392
  670TIP3   OH223572   2.699   0.449   0.833  0.0249 -0.2907  0.3206
  670TIP3    H123573   2.695   0.439   0.738 -1.0580  0.6982  0.2430
  670TIP3    H223574   2.692   0.543   0.848 -0.0340 -0.4511  1.3927
  671TIP3   OH223575   5.962   2.853   2.403 -0.0855  0.0840 -0.1281
  671TIP3    H123576   6.011   2.901   2.336 -0.6651 -0.1162 -0.7109
  671TIP3    H223577   6.018   2.856   2.481 -0.5388  2.5757  0.1751
  672TIP3   OH223578   3.881   4.018   1.757 -0.3213  0.4272 -0.1898
  672TIP3    H123579   3.872   4.088   1.821 -1.0833  1.2288 -1.1389
  672TIP3    H223580   3.968   4.030   1.719 -0.2583  0.5483 -0.0073
  673TIP3   OH223581   6.155   1.259   7.063 -0.0597 -0.7923  0.6059
  673TIP3    H123582   6.068   1.297   7.075  0.4979  0.8395 -0.1755
  673TIP3    H223583   6.193   1.309   6.991  2.2886 -0.0229  2.2626
  674TIP3   OH223584   3.415   6.824   1.029 -0.3620  0.1928 -0.7910
  674TIP3    H123585   3.498   6.871   1.035 -0.3363 -0.0351  1.5155
  674TIP3    H223586   3.410   6.774   1.111 -3.4140  1.3298 -0.1545
  675TIP3   OH223587   0.155   2.482   7.453 -0.5453  0.6040 -0.0328
  675TIP3    H123588   0.094   2.411   7.434  0.4414 -0.2315 -0.1833
  675TIP3    H223589   0.230   2.465   7.396  0.7109  0.4211  1.5796
  676TIP3   OH223590   2.831   2.610   1.310 -0.1554  0.2061 -0.3399
  676TIP3    H123591   2.760   2.672   1.299  0.4689  0.7622 -1.4134
  676TIP3    H223592   2.796   2.526   1.281 -0.9276  0.0825  0.8893
  677TIP3   OH223593   3.627   3.827   8.201  0.4271  0.4292 -0.0266
  677TIP3    H123594   3.580   3.748   8.175  1.0823 -0.6671  1.9425
  677TIP3    H223595   3.678   3.850   8.123  0.4310 -1.2565 -0.5721
  678TIP3   OH223596   4.990   2.319   7.136  0.6705 -0.1694 -0.2862
  678TIP3    H123597   4.974   2.251   7.071  0.4395  0.4154 -0.8427
  678TIP3    H223598   4.988   2.272   7.220 -1.9160 -0.4858 -0.4436
  679TIP3   OH223599   1.994   5.823   6.964 -0.4958  0.3660  0.2997
  679TIP3    H123600   1.937   5.881   6.914  0.5329 -0.0661 -1.4587
  679TIP3    H223601   1.936   5.754   6.997 -1.2883  0.9394  0.1319
  680TIP3   OH223602   4.695   3.824   1.454  0.2977  0.2795 -0.1546
  680TIP3    H123603   4.660   3.784   1.374  0.8124  0.6239 -0.5652
  680TIP3    H223604   4.678   3.760   1.523 -2.2996  0.9505 -0.0502
  681TIP3   OH223605   0.132   0.580   0.129  0.2025 -0.4163 -0.3088
  681TIP3    H123606   0.123   0.569   0.224 -0.7593 -2.3650 -0.5901
  681TIP3    H223607   0.166   0.496   0.098  0.3975  0.1576 -1.7136
  682TIP3   OH223608   1.048   1.748   7.055  0.0777  0.8096  0.2407
  682TIP3    H123609   1.131   1.792   7.038  1.8597 -2.7207 -1.2105
  682TIP3    H223610   1.072   1.666   7.098 -2.6517 -0.4074 -0.3001
  683TIP3   OH223611   2.808   3.866   0.152  0.2977  0.3219 -0.5439
  683TIP3    H123612   2.835   3.807   0.223  1.7001  1.3427 -0.1907
  683TIP3    H223613   2.798   3.951   0.194  0.5520  0.8140 -1.4658
  684TIP3   OH223614   6.004   0.975   2.699 -0.4000 -0.3148 -1.1414
  684TIP3    H123615   5.999   0.879   2.701 -1.2733 -0.3340  2.1028
  684TIP3    H223616   5.926   1.002   2.652 -1.4324 -1.2352 -0.0312
  685TIP3   OH223617   5.065   4.465   8.148 -0.4600  0.6189 -0.4429
  685TIP3    H123618   5.055   4.403   8.076  1.3090  0.7930 -0.8802
  685TIP3    H223619   5.107   4.415   8.217 -1.7932  0.5608  0.3729
  686TIP3   OH223620   6.334   2.012   6.459  0.8342 -0.0957  0.8577
  686TIP3    H123621   6.362   1.954   6.389  2.7254 -1.8090  2.8913
  686TIP3    H223622   6.315   2.095   6.416 -0.2145 -1.6564 -1.9234
  687TIP3   OH223623   4.614   0.743   7.419 -0.4394 -0.2307  0.0373
  687TIP3    H123624   4.535   0.710   7.460 -0.5176  0.2646  0.2907
  687TIP3    H223625   4.583   0.799   7.348 -0.3216  0.0394  0.1955
  688TIP3   OH223626   2.431   6.775   2.472  0.1991  0.3615  0.1755
  688TIP3    H123627   2.432   6.725   2.390  0.1629  1.0326 -0.2465
  688TIP3    H223628   2.367   6.844   2.457 -1.6326 -0.9361  1.6786
  689TIP3   OH223629   3.529   1.400   0.157 -0.2340  0.0201 -0.1167
  689TIP3    H123630   3.571   1.382   0.241  0.5334 -3.7592 -1.1509
  689TIP3    H223631   3.594   1.449   0.107 -0.6837  2.2754  1.3350
  690TIP3   OH223632   5.253   4.218   6.758  0.7806  0.4620  0.3442
  690TIP3    H123633   5.161   4.219   6.731  0.9093  2.5416 -0.1864
  690TIP3    H223634   5.281   4.128   6.744 -1.0558 -0.1100  0.0952
  691TIP3   OH223635   3.744   6.536   2.813  0.1830  0.2924 -0.0658
  691TIP3    H123636   3.838   6.548   2.806  0.1618  0.8153  0.3849
  691TIP3    H223637   3.707   6.606   2.758  0.0620  0.1986 -0.1036
  692TIP3   OH223638   0.126   5.647   1.181 -0.3300  0.1745  0.6108
  692TIP3    H123639   0.072   5.649   1.260  0.6080  0.0250  1.2721
  692TIP3    H223640   0.168   5.561   1.183  0.7119  0.6799  0.6489
  693TIP3   OH223641   2.459   6.445   7.198  0.8105 -0.4242 -0.0301
  693TIP3    H123642   2.472   6.502   7.274 -2.6725  1.6337 -0.8069
  693TIP3    H223643   2.384   6.390   7.221  0.4558 -0.6196 -1.5332
  694TIP3   OH223644   5.878   5.881   1.674  0.0054 -0.0256  0.3156
  694TIP3    H123645   5.934   5.821   1.624  1.1753  1.6939 -0.5272
  694TIP3    H223646   5.936   5.917   1.741  0.1712  2.2778 -0.9762
  695TIP3   OH223647   2.543   0.146   0.731  0.1896  0.0060 -0.1036
  695TIP3    H123648   2.470   0.088   0.712  0.0038  0.7097 -1.6527
  695TIP3    H223649   2.594   0.149   0.650  1.1311  0.6744  0.4851
  696TIP3   OH223650   4.329   4.179   7.899 -0.1423 -0.2660  0.2829
  696TIP3    H123651   4.391   4.250   7.915 -0.1278 -0.4918  1.2821
  696TIP3    H223652   4.274   4.211   7.827  1.4435 -0.2713 -0.9945
  697TIP3   OH223653   1.241   1.807   1.059  0.0207  0.4633 -0.3427
  697TIP3    H123654   1.278   1.739   1.002 -1.4691  0.0300 -0.8521
  697TIP3    H223655   1.161   1.768   1.093  0.0779  1.3216  0.8042
  698TIP3   OH223656   2.319   1.794   1.972  0.2234 -0.1528  0.1744
  698TIP3    H123657   2.360   1.789   1.886  2.0492 -0.5965  1.0230
  698TIP3    H223658   2.362   1.726   2.024 -0.7742  0.1483  1.4728
  699TIP3   OH223659   5.044   0.749   0.404 -0.2324 -0.0418 -0.0178
  699TIP3    H123660   5.017   0.679   0.344  0.7676  0.1729 -0.7446
  699TIP3    H223661   5.082   0.703   0.479 -1.6567 -0.3176  0.5762
  700TIP3   OH223662   2.508   1.526   7.662 -0.1592  0.0881  0.1653
  700TIP3    H123663   2.534   1.597   7.721  0.5515  1.1179 -1.3374
  700TIP3    H223664   2.561   1.451   7.690  0.7503  0.7773  0.3388
  701TIP3   OH223665   5.166   5.635   7.422 -0.1411 -0.6645 -0.0311
  701TIP3    H123666   5.176   5.672   7.510  0.7385 -0.6002 -0.1502
  701TIP3    H223667   5.232   5.681   7.369 -0.6181 -0.7512 -0.7120
  702TIP3   OH223668   6.353   5.536   0.106  0.4519  0.1797 -0.1145
  702TIP3    H123669   6.373   5.476   0.178  0.9027 -1.6449 -1.6905
  702TIP3    H223670   6.309   5.610   0.149  1.1358 -0.5937  2.0797
  703TIP3   OH223671   3.058   0.025   6.094  0.1217 -0.6654 -0.1648
  703TIP3    H123672   3.013   0.078   6.159 -2.9023 -1.8192 -1.1390
  703TIP3    H223673   3.120  -0.028   6.144  1.0218  1.5283  1.1579
  704TIP3   OH223674   3.365   0.333   8.669 -0.2564  0.3412 -0.0283
  704TIP3    H123675   3.312   0.265   8.711 -0.5768  0.7913  0.3128
  704TIP3    H223676   3.395   0.388   8.742 -0.4355  0.8634 -0.3420
  705TIP3   OH223677   3.579   4.431   7.072 -0.3146  0.0990  0.1390
  705TIP3    H123678   3.519   4.359   7.094  0.4495 -1.1995 -1.7312
  705TIP3    H223679   3.522   4.507   7.063 -1.6067 -0.9292 -0.7775
  706TIP3   OH223680   6.290   4.733   8.751  0.5472  0.0412 -0.2863
  706TIP3    H123681   6.316   4.706   8.662  2.5484  0.2718  0.1865
  706TIP3    H223682   6.224   4.801   8.737  0.4315 -0.3080 -1.5798
  707TIP3   OH223683   2.322   3.770   8.560 -0.0030 -0.4657 -0.5778
  707TIP3    H123684   2.351   3.686   8.595  0.5322  0.4323  1.2011
  707TIP3    H223685   2.390   3.795   8.497  0.1785 -1.0302 -0.6070
  708TIP3   OH223686   4.480   0.194   7.768 -0.5540 -0.6743 -0.1240
  708TIP3    H123687   4.511   0.277   7.732 -2.4864  0.8298  1.4585
  708TIP3    H223688   4.542   0.173   7.837 -1.2585  0.6682  0.9513
  709TIP3   OH223689   5.885   4.051   1.133 -0.6505  0.6210  0.0647
  709TIP3    H123690   5.826   3.990   1.176 -0.5714 -0.7791 -1.6903
  709TIP3    H223691   5.836   4.134   1.129 -1.1911  0.3959  1.4849
  710TIP3   OH223692   5.772   5.575   1.774  0.2914  0.0153 -0.1865
  710TIP3    H123693   5.744   5.644   1.835  1.8193  0.0667  0.5217
  710TIP3    H223694   5.755   5.493   1.822 -2.2490 -0.2169 -1.3314
  711TIP3   OH223695   6.300   0.097   0.095 -0.3543  0.0861 -0.3150
  711TIP3    H123696   6.305   0.152   0.173  0.4496  0.7312 -0.8077
  711TIP3    H223697   6.227   0.132   0.044 -1.2902 -0.7312  0.4259
  712TIP3   OH223698   3.370   4.788   7.274 -0.1223  0.3499 -0.3124
  712TIP3    H123699   3.381   4.701   7.235  1.7922  0.6821 -0.5928
  712TIP3    H223700   3.447   4.799   7.330  0.1026  2.2095 -0.9266
  713TIP3   OH223701   1.770   1.783   0.621  0.2815  0.0660  0.1437
  713TIP3    H123702   1.808   1.782   0.709  2.1030  0.1048 -0.6070
  713TIP3    H223703   1.681   1.818   0.634  0.7012  0.5926  1.8875
  714TIP3   OH223704   3.797   1.575   1.135  0.5071  0.2676  0.4020
  714TIP3    H123705   3.851   1.552   1.060  0.9679 -0.8968  1.0500
  714TIP3    H223706   3.851   1.635   1.186  1.4552 -1.2785  1.3033
  715TIP3   OH223707   3.777   1.206   2.219  0.0290 -0.1470  0.0461
  715TIP3    H123708   3.768   1.220   2.125  0.5383  2.4364  0.3046
  715TIP3    H223709   3.857   1.253   2.243  1.0164 -2.4011  1.5116
  716TIP3   OH223710   5.416   0.406   6.164  0.1715  0.2368  0.1318
  716TIP3    H123711   5.328   0.377   6.141  0.5431 -0.0644 -1.0072
  716TIP3    H223712   5.410   0.501   6.166 -0.1928  0.2159  0.0663
  717TIP3   OH223713   4.323   2.166   8.107 -0.0304 -0.1310 -0.8457
  717TIP3    H123714   4.405   2.213   8.090  1.6227 -2.2578  0.6251
  717TIP3    H223715   4.345   2.105   8.178 -1.8059 -3.4038 -2.8490
  718TIP3   OH223716   3.574   2.594   7.847 -0.1529 -0.1587  0.4314
  718TIP3    H123717   3.600   2.686   7.837 -0.7258  0.2437  2.2454
  718TIP3    H223718   3.481   2.599   7.872  0.1543 -1.1442  1.8625
  719TIP3   OH223719   3.723   5.223   0.606  0.0499  0.1256 -0.1989
  719TIP3    H123720   3.693   5.300   0.653 -0.0678  0.3207 -0.5889
  719TIP3    H223721   3.818   5.222   0.620  0.3512  1.4812 -1.8251
  720TIP3   OH223722   6.414   2.731   8.709  0.1048  0.3753 -0.0002
  720TIP3    H123723   6.379   2.766   8.791  1.0733  1.4604 -0.0063
  720TIP3    H223724   6.343   2.741   8.646  0.1825  1.9653  0.1221
  721TIP3   OH223725   5.396   0.396   1.987  0.1046  0.1819  0.0862
  721TIP3    H123726   5.408   0.389   2.082 -1.3455  1.4156  0.4054
  721TIP3    H223727   5.429   0.484   1.966  0.8048 -0.2433 -0.6440
  722TIP3   OH223728   1.788   5.733   7.729 -0.6818 -0.3885 -0.0128
  722TIP3    H123729   1.784   5.828   7.718  1.3966 -0.0995  1.1240
  722TIP3    H223730   1.803   5.720   7.823 -1.7423 -1.9043 -0.0138
  723TIP3   OH223731   0.523   6.773   7.640  0.0764 -0.5848 -0.4180
  723TIP3    H123732   0.544   6.732   7.556 -0.5542 -2.1802  0.1638
  723TIP3    H223733   0.526   6.867   7.622 -0.0188 -0.8836 -2.2131
  724TIP3   OH223734   2.831   1.445   8.201  0.3770 -0.3872  0.0830
  724TIP3    H123735   2.838   1.514   8.135 -1.1752  0.4624  0.7159
  724TIP3    H223736   2.837   1.492   8.284 -0.8696 -0.9719  0.5307
  725TIP3   OH223737   6.710   5.908   1.596 -0.0496  0.1037 -0.2155
  725TIP3    H123738   6.712   5.938   1.687  2.2411  1.7120 -0.7024
  725TIP3    H223739   6.632   5.948   1.559  0.5097  1.8444  0.3688
  726TIP3   OH223740   1.906   1.009   8.490 -0.2187 -0.1871 -0.3008
  726TIP3    H123741   1.989   0.961   8.481 -0.9075 -1.7273  0.9960
  726TIP3    H223742   1.924   1.096   8.454  1.9521 -0.4822 -0.0493
  727TIP3   OH223743   5.125   4.581   1.508 -0.2763  0.8143  0.2503
  727TIP3    H123744   5.040   4.553   1.476 -1.2158  2.2542  1.3780
  727TIP3    H223745   5.167   4.499   1.537 -0.3920 -0.1839 -2.1594
  728TIP3   OH223746   5.563   3.103   7.044  0.6100 -0.2030  0.2994
  728TIP3    H123747   5.515   3.178   7.079 -0.2465 -0.5673 -0.0685
  728TIP3    H223748   5.532   3.095   6.954  2.4020  0.4111 -0.4168
  729TIP3   OH223749   1.704   4.497   6.539 -0.3513  0.3462  0.3588
  729TIP3    H123750   1.754   4.483   6.458 -1.5165  0.5780 -0.4192
  729TIP3    H223751   1.731   4.585   6.568  1.1716 -0.3037  1.0610
  730TIP3   OH223752   6.181   3.440   7.872  0.2427 -0.2562 -0.0752
  730TIP3    H123753   6.205   3.401   7.956  0.5922 -1.9632 -0.9291
  730TIP3    H223754   6.095   3.403   7.852 -0.9633  1.9649  0.5881
  731TIP3   OH223755   2.832   0.536   1.609  0.1023  0.2436  1.0419
  731TIP3    H123756   2.826   0.495   1.523  1.3063 -0.3734  1.2373
  731TIP3    H223757   2.776   0.484   1.665 -0.2985  0.3506  0.7434
  732TIP3   OH223758   5.700   3.152   8.530  0.9458 -0.6098  0.6995
  732TIP3    H123759   5.742   3.104   8.602  1.1613  1.1738  1.8318
  732TIP3    H223760   5.772   3.175   8.471  1.2988  0.6556  1.5788
  733TIP3   OH223761   1.563   1.925   0.978  0.2450 -0.2284  0.0707
  733TIP3    H123762   1.553   1.845   1.029 -0.9764 -1.0568 -1.3620
  733TIP3    H223763   1.657   1.932   0.962  0.4284 -1.0338  0.7429
  734TIP3   OH223764   2.956   0.478   7.196  0.5911 -0.5953  0.2402
  734TIP3    H123765   2.921   0.489   7.108  0.9699 -2.6400 -0.2115
  734TIP3    H223766   2.984   0.387   7.200  1.3658 -0.3280  2.2074
  735TIP3   OH223767   0.602   4.940   1.473  0.2160  0.0932  0.0768
  735TIP3    H123768   0.536   4.992   1.519  0.1595  0.3723 -0.3154
  735TIP3    H223769   0.672   4.928   1.538 -0.0063  0.2046  0.3396
  736TIP3   OH223770   3.534   4.450   1.145 -0.5574 -0.1688 -0.0906
  736TIP3    H123771   3.440   4.437   1.135 -0.6484  0.3274  0.1123
  736TIP3    H223772   3.548   4.541   1.120 -0.2417 -0.0201  0.6168
  737TIP3   OH223773   1.228   1.521   6.721  0.8366  0.4103  0.0000
  737TIP3    H123774   1.222   1.442   6.775  0.4943 -0.4227 -1.2231
  737TIP3    H223775   1.275   1.584   6.776  1.6232 -0.8246  0.7834
  738TIP3   OH223776   2.252   1.851   1.625 -0.1187 -0.5389 -0.5536
  738TIP3    H123777   2.236   1.915   1.694 -3.5571 -1.9181  0.1684
  738TIP3    H223778   2.201   1.883   1.551  1.1211 -0.6188 -1.4701
  739TIP3   OH223779   2.365   3.431   7.999 -0.7457 -0.1995 -0.2899
  739TIP3    H123780   2.306   3.506   7.996 -0.1125  0.4499  1.6268
  739TIP3    H223781   2.331   3.370   7.934 -1.2998  1.7185 -1.8802
  740TIP3   OH223782   4.897   2.351   6.384 -0.0490  0.1751  0.2817
  740TIP3    H123783   4.981   2.391   6.408  0.5824 -1.2377  0.5121
  740TIP3    H223784   4.832   2.404   6.430  0.6924  1.3464  0.0292
  741TIP3   OH223785   5.735   1.662   0.592 -0.3166  0.2034 -0.0825
  741TIP3    H123786   5.670   1.602   0.556 -0.0133  1.1806 -2.4612
  741TIP3    H223787   5.703   1.749   0.567  1.1601  0.7777 -0.0575
  742TIP3   OH223788   6.290   6.071   0.334  0.7856 -0.1382 -0.0034
  742TIP3    H123789   6.313   6.022   0.413 -3.4807  1.1573  2.3946
  742TIP3    H223790   6.339   6.152   0.341 -0.3028  0.4328  2.0896
  743TIP3   OH223791   5.382   1.977   8.467  0.1760  0.5108  0.0832
  743TIP3    H123792   5.375   2.007   8.376  1.0743 -0.4126 -0.3055
  743TIP3    H223793   5.353   1.886   8.465 -1.5939  0.9987  1.0819
  744TIP3   OH223794   4.782   2.988   7.096 -0.4179  0.1410 -0.3199
  744TIP3    H123795   4.773   2.893   7.102  0.1382  0.0689 -0.5766
  744TIP3    H223796   4.819   3.014   7.180 -0.4497  0.1205 -0.2993
  745TIP3   OH223797   1.578   6.057   8.000 -0.0199  0.0036 -0.3990
  745TIP3    H123798   1.599   6.003   8.076  0.1098 -0.4653 -0.7680
  745TIP3    H223799   1.648   6.123   7.998 -0.7435  0.8415  0.6561
  746TIP3   OH223800   2.825   0.531   8.589  0.1188 -0.2199 -0.2656
  746TIP3    H123801   2.746   0.562   8.633  0.3719  1.5635 -0.9919
  746TIP3    H223802   2.854   0.457   8.642 -0.4135  0.9083  1.6982
  747TIP3   OH223803   4.870   2.942   7.895 -0.4840 -0.7506  0.2069
  747TIP3    H123804   4.803   3.010   7.891 -1.0330 -1.2189  1.1526
  747TIP3    H223805   4.908   2.951   7.982  0.5898 -0.5907 -0.2619
  748TIP3   OH223806   1.159   4.322   0.921  0.3917  0.2524 -0.7676
  748TIP3    H123807   1.128   4.410   0.904 -0.5578 -0.0394 -0.5930
  748TIP3    H223808   1.111   4.267   0.860  0.9009 -0.1656 -0.8036
  749TIP3   OH223809   2.169   3.446   7.670 -0.1088 -0.2524 -0.3359
  749TIP3    H123810   2.134   3.412   7.753  2.3318  0.5931  1.1598
  749TIP3    H223811   2.236   3.509   7.697 -0.5493  1.5117 -3.0012
  750TIP3   OH223812   0.050   2.298   1.454  0.1885 -0.7857  0.4193
  750TIP3    H123813  -0.023   2.317   1.395 -0.5073 -0.2110  1.4174
  750TIP3    H223814   0.012   2.305   1.542  1.7826  1.1604  1.0319
  751TIP3   OH223815   1.438   6.039   7.275 -0.0036  0.1945  0.3107
  751TIP3    H123816   1.409   6.007   7.190 -2.5061  1.6954  0.5094
  751TIP3    H223817   1.388   6.120   7.289  3.1547  2.1222  1.5260
  752TIP3   OH223818   3.726   5.056   1.384 -0.3300  0.1947 -0.4461
  752TIP3    H123819   3.760   4.967   1.391 -1.1950 -0.4037 -2.7528
  752TIP3    H223820   3.798   5.107   1.346  0.5449  0.8240  1.8563
  753TIP3   OH223821   0.772   3.882   7.277 -0.4000  0.1629  0.5836
  753TIP3    H123822   0.780   3.898   7.183  0.7974  1.2879  0.8325
  753TIP3    H223823   0.744   3.967   7.313 -2.9568 -0.7913  1.0594
  754TIP3   OH223824   2.062   1.102   0.982  0.5554 -0.7237  0.7784
  754TIP3    H123825   2.133   1.055   0.937  0.6861 -0.3742  0.6193
  754TIP3    H223826   2.032   1.167   0.919 -2.0943 -2.9288 -0.4324
  755TIP3   OH223827   5.739   1.084   0.045  0.1434 -0.1638  0.7802
  755TIP3    H123828   5.753   1.037   0.127 -1.2186 -3.0445 -0.4978
  755TIP3    H223829   5.645   1.101   0.042  0.0142 -0.8864 -0.4832
  756TIP3   OH223830   4.215   5.803   7.137  0.3827  0.1774 -0.4037
  756TIP3    H123831   4.161   5.880   7.159 -1.5660 -0.9526 -0.9499
  756TIP3    H223832   4.182   5.775   7.052  1.6862 -0.7338 -0.6291
  757TIP3   OH223833   6.377   2.298   8.560 -0.3330 -0.5150 -0.3298
  757TIP3    H123834   6.301   2.327   8.610 -0.7024 -2.1355  0.0967
  757TIP3    H223835   6.371   2.202   8.559  0.3263 -0.5959 -2.4448
  758TIP3   OH223836   4.955   4.964   8.700 -0.3111  1.1498  0.1087
  758TIP3    H123837   4.928   5.030   8.764 -1.5894 -0.7776  1.6854
  758TIP3    H223838   5.050   4.958   8.710 -0.4811  0.8843  1.9141
  759TIP3   OH223839   1.362   5.662   8.170 -0.3935  0.6084 -0.2798
  759TIP3    H123840   1.418   5.632   8.097 -0.2146  2.1759 -0.8225
  759TIP3    H223841   1.402   5.622   8.248 -0.9182 -1.5724 -1.0472
  760TIP3   OH223842   5.417   2.789   6.851 -0.0552  0.1747  0.0220
  760TIP3    H123843   5.353   2.813   6.919 -0.2289 -0.5696  0.1231
  760TIP3    H223844   5.367   2.794   6.769  0.2199  1.3266 -0.0959
  761TIP3   OH223845   1.808   3.041   7.264 -0.4336 -0.4002  0.0749
  761TIP3    H123846   1.864   3.113   7.294  0.5822 -1.2162  0.2029
  761TIP3    H223847   1.767   3.075   7.184 -0.7611  0.6771  0.6808
  762TIP3   OH223848   0.404   3.800   7.591  0.5566 -0.3358  0.0880
  762TIP3    H123849   0.465   3.735   7.556  1.3546  0.3853  0.0958
  762TIP3    H223850   0.395   3.865   7.522  0.4560 -0.0146  0.3966
  763TIP3   OH223851   1.594   6.528   1.104 -0.4009  0.3799  0.2823
  763TIP3    H123852   1.602   6.565   1.192 -0.7136 -0.7200  0.7852
  763TIP3    H223853   1.535   6.453   1.114  3.4023 -2.9409  0.1454
  764TIP3   OH223854   2.111   6.771   8.570  0.4760  0.0767 -0.0206
  764TIP3    H123855   2.078   6.746   8.484 -0.5266  0.9588  0.0869
  764TIP3    H223856   2.075   6.858   8.585 -2.8997 -1.5640  3.0176
  765TIP3   OH223857   4.008   1.904   7.870  0.2823 -0.3601  0.1776
  765TIP3    H123858   4.087   1.850   7.874  0.6294 -0.2727 -2.9883
  765TIP3    H223859   3.940   1.844   7.842  0.0620  0.2945 -0.7139
  766TIP3   OH223860   2.669   1.018   1.471 -0.1140 -1.2038  0.0900
  766TIP3    H123861   2.719   1.060   1.541  0.8898 -2.5147  0.1787
  766TIP3    H223862   2.637   1.092   1.418 -1.4538 -0.1211  2.2231
  767TIP3   OH223863   2.693   3.495   1.535  0.1092 -0.2545  0.3195
  767TIP3    H123864   2.774   3.477   1.583  0.1840 -0.9528 -0.0634
  767TIP3    H223865   2.706   3.454   1.450 -0.7373 -0.5683  0.3327
  768TIP3   OH223866   1.073   0.590   8.214 -0.2831 -0.5331 -0.8915
  768TIP3    H123867   1.109   0.665   8.262 -0.8320 -1.1585  0.5492
  768TIP3    H223868   1.030   0.629   8.138 -0.0036  0.5544 -0.5171
  769TIP3   OH223869   5.972   3.189   8.519  0.0319 -0.1483  0.0509
  769TIP3    H123870   6.055   3.149   8.548  0.4744  0.2052 -0.7093
  769TIP3    H223871   5.963   3.267   8.573  1.0372  0.7024 -0.9530
  770TIP3   OH223872   6.823   1.687   8.075  1.0838 -0.3796 -0.5911
  770TIP3    H123873   6.753   1.719   8.131 -0.0587 -1.4334 -1.3869
  770TIP3    H223874   6.902   1.729   8.110  0.0356  1.1572  0.0690
  771TIP3   OH223875   5.406   1.628   6.612  0.0094 -0.9543  0.3444
  771TIP3    H123876   5.326   1.575   6.622 -2.3044  1.8413 -1.6203
  771TIP3    H223877   5.460   1.577   6.551 -2.2679 -1.0624 -1.7495
  772TIP3   OH223878   5.398   4.457   6.699  0.1619  0.5951 -0.4484
  772TIP3    H123879   5.454   4.451   6.622  1.0325 -0.9867  0.2665
  772TIP3    H223880   5.358   4.370   6.707  1.1670  0.2522  1.6448
  773TIP3   OH223881   6.422   3.463   7.725 -0.0802  0.0729  0.0549
  773TIP3    H123882   6.340   3.427   7.760 -0.0300  1.5069  1.8456
  773TIP3    H223883   6.491   3.417   7.772  0.0035  1.5407  1.4736
  774TIP3   OH223884   2.841   4.937   7.959 -0.1001 -0.2708 -0.2654
  774TIP3    H123885   2.776   4.878   7.921 -0.2412 -1.1331  1.2238
  774TIP3    H223886   2.867   4.894   8.041 -0.8437  2.1439  1.3220
  775TIP3   OH223887   4.887   0.937   2.355  0.4659 -0.3996 -0.0676
  775TIP3    H123888   4.939   0.974   2.285  1.8345 -1.0320  0.5855
  775TIP3    H223889   4.802   0.917   2.314  0.8762  0.2250 -1.2557
  776TIP3   OH223890   6.564   5.380   8.126  0.6817 -0.7263  0.6631
  776TIP3    H123891   6.494   5.407   8.066  1.7777 -0.3740 -0.5027
  776TIP3    H223892   6.590   5.293   8.095  1.2963 -0.5157  0.5808
  777TIP3   OH223893   3.228   6.524   6.596 -0.3013  0.3520 -0.6213
  777TIP3    H123894   3.289   6.574   6.543  2.0076 -2.9715 -1.3753
  777TIP3    H223895   3.260   6.532   6.686  0.0111  0.3029 -0.7302
  778TIP3   OH223896   6.089   6.542   1.159 -0.2419  0.1594  0.0543
  778TIP3    H123897   5.993   6.540   1.158 -0.2354 -0.3625 -0.9596
  778TIP3    H223898   6.115   6.478   1.092  0.7934  1.5269 -0.9026
  779TIP3   OH223899   0.047   6.416   1.028  0.0860  0.1470  0.0419
  779TIP3    H123900   0.142   6.407   1.031 -0.0751 -1.7748  1.7343
  779TIP3    H223901   0.017   6.379   1.111 -2.2043 -0.4083 -0.9542
  780TIP3   OH223902   6.521   0.706   1.897  0.7538  0.2331  0.4968
  780TIP3    H123903   6.491   0.662   1.977 -0.1282 -0.8462 -0.3876
  780TIP3    H223904   6.613   0.725   1.914  0.0572  2.2450  2.6943
  781TIP3   OH223905   1.374   3.659   6.419 -0.3098 -0.3961  0.2823
  781TIP3    H123906   1.355   3.586   6.477  2.3375  0.5098  2.5622
  781TIP3    H223907   1.469   3.671   6.426 -0.5421  2.8501 -0.4299
  782TIP3   OH223908   5.765   2.755   7.414 -0.2606 -0.1966  0.2596
  782TIP3    H123909   5.804   2.842   7.426  2.0377 -1.4724  3.2343
  782TIP3    H223910   5.828   2.709   7.358  0.5630 -1.0273  1.7992
  783TIP3   OH223911   1.610   0.878   1.916  0.3709  0.0862  0.1659
  783TIP3    H123912   1.531   0.884   1.971  0.3488 -1.0429  0.2802
  783TIP3    H223913   1.672   0.937   1.957  1.1559 -2.3381  2.8301
  784TIP3   OH223914   5.963   0.549   8.531 -0.0551 -0.2869 -0.1072
  784TIP3    H123915   5.915   0.631   8.532  0.4578  0.0841 -2.0022
  784TIP3    H223916   5.895   0.481   8.539 -0.7104  0.2780 -0.7097
  785TIP3   OH223917   4.315   2.073   7.752  0.1229 -0.0887  0.1937
  785TIP3    H123918   4.242   2.075   7.814  1.3215  2.1075  1.6880
  785TIP3    H223919   4.379   2.013   7.792 -0.5447 -1.5307 -0.8093
  786TIP3   OH223920   6.722   0.634   7.183  0.2146  0.6096  0.3192
  786TIP3    H123921   6.804   0.592   7.156  0.1626  0.5618  0.2341
  786TIP3    H223922   6.739   0.666   7.271  0.0979 -0.0064  0.5669
  787TIP3   OH223923   4.657   0.527   6.498 -0.2100 -0.2495 -0.6772
  787TIP3    H123924   4.718   0.583   6.450 -0.2589 -0.8998 -1.5232
  787TIP3    H223925   4.588   0.586   6.529  0.1319  0.2718 -0.9131
  788TIP3   OH223926   4.498   1.423   0.103  0.2484 -0.0834  0.3199
  788TIP3    H123927   4.423   1.467   0.144  0.8890  0.1002  1.3448
  788TIP3    H223928   4.463   1.341   0.069 -0.1161 -0.8266  2.3250
  789TIP3   OH223929   5.013   2.318   0.679 -0.1062  0.2692  0.3962
  789TIP3    H123930   4.976   2.346   0.596  1.3396 -0.2094 -0.4477
  789TIP3    H223931   5.041   2.399   0.722  0.4569  0.4237 -0.2473
  790TIP3   OH223932   0.626   2.334   8.105  0.5873  0.9213  0.1433
  790TIP3    H123933   0.593   2.344   8.016 -0.5682 -3.1938 -0.0569
  790TIP3    H223934   0.547   2.325   8.159  1.3056  0.2820  1.1099
  791TIP3   OH223935   0.161   5.272   1.615 -0.0657 -0.1707 -0.5893
  791TIP3    H123936   0.098   5.256   1.686 -0.0486  0.9071 -0.3194
  791TIP3    H223937   0.202   5.355   1.637  0.7924 -0.4013 -1.2599
  792TIP3   OH223938   5.466   1.379   1.485 -0.1699 -0.2942  0.2289
  792TIP3    H123939   5.465   1.462   1.437 -0.4373  0.3080  1.2393
  792TIP3    H223940   5.499   1.402   1.572 -1.3274 -1.0258  0.8948
  793TIP3   OH223941   1.206   2.933   0.274  0.1187 -0.0237 -0.8459
  793TIP3    H123942   1.191   2.948   0.181 -1.2658 -1.3850 -0.8877
  793TIP3    H223943   1.261   2.854   0.277  0.4536  0.2156 -0.5028
  794TIP3   OH223944   3.884   2.808   8.750  0.0915 -0.4215 -0.1864
  794TIP3    H123945   3.857   2.879   8.691  0.6746  1.5385  1.7680
  794TIP3    H223946   3.980   2.804   8.741  0.2162  0.0728  0.7537
  795TIP3   OH223947   3.892   3.012   1.097  0.0293 -0.0636 -0.0948
  795TIP3    H123948   3.953   2.969   1.157  0.1195  0.3377  0.1107
  795TIP3    H223949   3.886   3.102   1.131 -1.4182 -0.3466  0.4491
  796TIP3   OH223950   1.255   3.447   8.327 -0.0252 -0.4484  0.3982
  796TIP3    H123951   1.183   3.468   8.268 -1.0049 -0.7977  1.4302
  796TIP3    H223952   1.266   3.352   8.321 -0.3215 -0.5254  0.9708
  797TIP3   OH223953   0.186   1.332   7.241  0.2079 -0.0798 -0.2143
  797TIP3    H123954   0.103   1.335   7.194  0.1817  1.1659 -0.1194
  797TIP3    H223955   0.250   1.309   7.175 -0.0883 -0.1988 -0.4638
  798TIP3   OH223956   3.191   2.413   8.138  0.1952  0.0744 -0.1578
  798TIP3    H123957   3.196   2.409   8.234 -0.6190  0.7602 -0.0667
  798TIP3    H223958   3.183   2.322   8.110 -0.7026 -0.0693  0.5138
  799TIP3   OH223959   3.649   2.255   7.639  0.2447  0.0702 -0.2808
  799TIP3    H123960   3.668   2.211   7.722 -2.8778  2.8958  2.1939
  799TIP3    H223961   3.558   2.232   7.620  0.2660  1.1101 -1.8329
  800TIP3   OH223962   3.272   4.718   1.499 -0.2252  0.6841 -0.2267
  800TIP3    H123963   3.254   4.738   1.408  2.4111 -0.5241 -1.0985
  800TIP3    H223964   3.301   4.801   1.537 -0.8069  1.0633 -0.5929
  801TIP3   OH223965   1.091   1.524   1.067 -0.2777 -0.5600  0.4631
  801TIP3    H123966   0.999   1.515   1.043  0.0115  1.5705 -1.9257
  801TIP3    H223967   1.138   1.473   1.000  0.3309 -1.1269  1.3005
  802TIP3   OH223968   0.008   0.870   0.851 -0.2839  0.0683 -0.3238
  802TIP3    H123969   0.003   0.933   0.922 -1.0230 -0.8126  0.4393
  802TIP3    H223970   0.024   0.786   0.894 -0.5976 -0.4687 -1.2126
  803TIP3   OH223971   4.424   3.476   1.551  0.0022  0.1273 -0.2618
  803TIP3    H123972   4.517   3.477   1.574 -0.2587 -0.0196  0.8134
  803TIP3    H223973   4.424   3.472   1.455  1.1087 -1.2039 -0.2387
  804TIP3   OH223974   2.528   0.620   8.053 -0.1773 -0.9522  0.3516
  804TIP3    H123975   2.542   0.594   7.961 -0.9925  0.7026 -0.2875
  804TIP3    H223976   2.463   0.557   8.085 -2.4775  0.4125 -1.2988
  805TIP3   OH223977   5.003   3.896   7.972  0.3920  0.1213 -0.1740
  805TIP3    H123978   4.969   3.883   8.060  3.6226 -0.0488  1.2133
  805TIP3    H223979   5.073   3.830   7.963 -0.9402 -1.0710 -3.6097
  806TIP3   OH223980   2.743   6.703   1.538 -0.0298  0.1814 -0.4385
  806TIP3    H123981   2.708   6.669   1.621 -0.8156 -1.0322 -1.2252
  806TIP3    H223982   2.804   6.772   1.564  1.2923 -1.5156  1.2632
  807TIP3   OH223983   5.122   2.132   8.333  0.5343 -0.2277  0.5654
  807TIP3    H123984   5.125   2.220   8.297  0.8466 -0.0755  0.9561
  807TIP3    H223985   5.197   2.087   8.294 -0.1195 -0.5859 -0.3017
  808TIP3   OH223986   4.088   2.606   7.265  0.3632  0.7550 -0.3935
  808TIP3    H123987   4.138   2.627   7.343  0.2409 -0.6218  0.0881
  808TIP3    H223988   4.021   2.674   7.259  1.2969  1.7199 -0.1648
  809TIP3   OH223989   1.935   4.183   7.210 -0.8482  0.1558  0.4610
  809TIP3    H123990   1.891   4.131   7.277 -0.6255 -1.1162 -0.3370
  809TIP3    H223991   1.951   4.268   7.251  0.3579 -0.9641  2.4261
  810TIP3   OH223992   2.397   4.926   0.742 -0.0196 -0.1628 -0.1497
  810TIP3    H123993   2.311   4.896   0.713  0.1327 -0.1821 -0.6010
  810TIP3    H223994   2.447   4.845   0.757 -0.7499 -0.2274  2.3032
  811TIP3   OH223995   2.809   4.293   7.279 -0.2567 -0.0674  0.2581
  811TIP3    H123996   2.771   4.212   7.247 -0.2826 -0.2159  0.6573
  811TIP3    H223997   2.879   4.265   7.339  1.2010  0.1761 -1.2420
  812TIP3   OH223998   3.682   1.304   0.939  0.1215  0.8899 -0.1481
  812TIP3    H123999   3.699   1.213   0.912 -0.6340  0.4306  0.8578
  812TIP3    H224000   3.692   1.303   1.034 -1.1852  1.5480  0.0246
  813TIP3   OH224001   4.211   0.718   7.815 -0.3217 -0.1014 -0.4546
  813TIP3    H124002   4.292   0.713   7.867 -0.2558 -0.5816 -0.5955
  813TIP3    H224003   4.163   0.792   7.852 -1.3703 -1.8308  1.8491
  814TIP3   OH224004   4.023   3.163   0.074  0.1813  0.5405  0.0900
  814TIP3    H124005   4.094   3.194   0.017 -0.2762  0.2522 -0.6569
  814TIP3    H224006   4.069   3.119   0.146  0.7782  0.9877 -0.0068
  815TIP3   OH224007   3.159   2.346   2.327  0.5632  0.4105  0.1494
  815TIP3    H124008   3.121   2.294   2.257  1.3660  0.6247 -0.4640
  815TIP3    H224009   3.085   2.393   2.365  0.0698  0.0335 -0.3290
  816TIP3   OH224010   2.757   0.778   1.348  0.0135 -0.1238 -0.2011
  816TIP3    H124011   2.731   0.855   1.399  0.4150 -1.1605  1.6973
  816TIP3    H224012   2.825   0.810   1.289 -0.8414  1.2524 -0.4822
  817TIP3   OH224013   6.008   2.615   7.286 -0.0557 -0.0995  0.8561
  817TIP3    H124014   6.021   2.689   7.227 -0.5378 -1.7673 -1.5077
  817TIP3    H224015   6.097   2.583   7.305  0.1409 -1.8556 -2.2782
  818TIP3   OH224016   3.341   6.253   1.530 -0.1624  0.0555 -0.2252
  818TIP3    H124017   3.258   6.265   1.576 -0.4981  0.3367 -0.8909
  818TIP3    H224018   3.335   6.311   1.454  0.0087 -1.0458 -1.1044
  819TIP3   OH224019   3.709   2.180   6.237  0.0869  0.6395 -0.5340
  819TIP3    H124020   3.787   2.141   6.276  2.1680  3.7938 -1.2317
  819TIP3    H224021   3.721   2.274   6.248 -4.2854  1.2956  0.4509
  820TIP3   OH224022   0.103   4.463   8.590 -0.3655 -0.0157  0.1821
  820TIP3    H124023   0.079   4.438   8.500  0.4312 -1.1132  0.2550
  820TIP3    H224024   0.175   4.525   8.579 -1.9688  1.9335  0.0198
  821TIP3   OH224025   6.549   3.232   0.140 -0.2666 -0.0355  0.4523
  821TIP3    H124026   6.605   3.155   0.152  2.0241  1.1556 -1.5592
  821TIP3    H224027   6.465   3.196   0.113  0.0906 -1.8776  1.5864
  822TIP3   OH224028   6.658   4.702   6.665 -0.1219  0.8990 -0.5059
  822TIP3    H124029   6.568   4.692   6.695  0.0713 -0.4277 -0.3262
  822TIP3    H224030   6.673   4.628   6.607  0.5633  1.6296 -1.2930
  823TIP3   OH224031   6.124   1.258   6.738 -0.2854 -0.3167 -0.1015
  823TIP3    H124032   6.048   1.315   6.753 -0.2356 -0.1702 -0.3997
  823TIP3    H224033   6.116   1.231   6.646 -0.3981 -0.9258  0.0820
  824TIP3   OH224034   6.077   2.478   0.280  0.8767  0.1136 -0.2265
  824TIP3    H124035   6.018   2.503   0.351 -0.3840 -2.5133 -0.2378
  824TIP3    H224036   6.091   2.559   0.231 -1.4084  1.1798  0.7326
  825TIP3   OH224037   6.512   2.807   1.789 -0.2002 -0.0225  0.5700
  825TIP3    H124038   6.569   2.878   1.820  3.3956 -2.2908 -0.2880
  825TIP3    H224039   6.526   2.806   1.694 -1.7100 -0.7117  0.3315
  826TIP3   OH224040   5.455   1.291   0.168  0.7083  0.5147 -0.6237
  826TIP3    H124041   5.389   1.301   0.236 -0.2256  0.4343 -1.4933
  826TIP3    H224042   5.406   1.266   0.090  1.8865 -0.6497 -1.0341
  827TIP3   OH224043   6.602   1.145   7.951 -0.3976  0.2262 -0.1212
  827TIP3    H124044   6.565   1.228   7.981 -0.0585 -0.0530  1.0897
  827TIP3    H224045   6.696   1.160   7.949 -0.3325 -0.1638  0.1748
  828TIP3   OH224046   6.669   5.733   8.552  0.2960 -0.3626 -0.1742
  828TIP3    H124047   6.692   5.821   8.580 -0.0764  0.1790 -1.4680
  828TIP3    H224048   6.651   5.686   8.633  0.6944  0.6867  0.5537
  829TIP3   OH224049   2.903   3.709   7.049 -0.1283 -0.5065  0.2355
  829TIP3    H124050   2.893   3.708   6.954 -1.7680  0.8514  0.3615
  829TIP3    H224051   2.979   3.653   7.065  2.0445  1.5472 -2.0678
  830TIP3   OH224052   4.656   2.307   1.111 -0.5643 -0.0068  0.1097
  830TIP3    H124053   4.564   2.332   1.111 -0.2516  1.2765 -0.1309
  830TIP3    H224054   4.696   2.364   1.044  0.5224 -0.0427  0.6981
  831TIP3   OH224055   6.602   5.666   6.604  0.4225  0.1640 -0.0614
  831TIP3    H124056   6.654   5.702   6.676  0.7427  2.4521 -1.3561
  831TIP3    H224057   6.517   5.647   6.643  0.9449  0.2572  1.1567
  832TIP3   OH224058   5.540   3.898   0.325 -0.0339 -0.0207 -0.2657
  832TIP3    H124059   5.548   3.913   0.419  0.8334 -0.8841 -0.1847
  832TIP3    H224060   5.588   3.971   0.285 -1.2626  0.9146 -0.0896
  833TIP3   OH224061   0.983   2.754   7.860  0.6159 -0.7001  0.1850
  833TIP3    H124062   0.916   2.791   7.803  1.3704 -1.1202 -1.0158
  833TIP3    H224063   1.002   2.823   7.923 -0.1683 -0.1864 -0.1302
  834TIP3   OH224064   3.691   4.426   7.353 -0.0644 -0.3828  0.2614
  834TIP3    H124065   3.746   4.348   7.344 -0.7719 -1.0653  1.6326
  834TIP3    H224066   3.625   4.417   7.284  0.4840 -0.4290 -0.2741
  835TIP3   OH224067   6.789   2.602   0.494  0.0432  0.3280 -0.2275
  835TIP3    H124068   6.747   2.687   0.482 -1.1269  0.3937  3.1149
  835TIP3    H224069   6.722   2.538   0.471 -0.7857  0.4296  1.6576
  836TIP3   OH224070   1.283   5.800   0.426 -0.2169  0.3734 -0.0824
  836TIP3    H124071   1.320   5.887   0.439  1.3370  0.0761 -2.0394
  836TIP3    H224072   1.234   5.807   0.343  0.7425 -0.8200 -0.7852
  837TIP3   OH224073   0.284   4.533   8.146 -0.0129 -0.3692 -0.0727
  837TIP3    H124074   0.323   4.612   8.183  0.8406 -0.9270  0.2346
  837TIP3    H224075   0.238   4.564   8.068  0.8930  0.3267 -0.3464
  838TIP3   OH224076   0.668   4.455   1.020 -0.3662  0.1265  0.0219
  838TIP3    H124077   0.607   4.527   1.041 -0.7891 -0.3430  0.4319
  838TIP3    H224078   0.743   4.471   1.077 -0.9687 -0.4170  1.0135
  839TIP3   OH224079   4.552   0.375   6.843  0.5547  0.0127  0.2419
  839TIP3    H124080   4.641   0.369   6.879  1.0368 -1.0622 -1.0472
  839TIP3    H224081   4.518   0.285   6.847  0.2477  0.0573 -1.0175
  840TIP3   OH224082   2.630   1.026   2.171  0.8747 -0.0889 -0.5868
  840TIP3    H124083   2.723   1.004   2.185  0.4219 -2.9198 -1.3977
  840TIP3    H224084   2.591   1.017   2.258  1.4613  2.1004 -0.0369
  841TIP3   OH224085   0.339   3.691   1.522  0.0008 -0.7796 -0.0555
  841TIP3    H124086   0.254   3.648   1.525 -0.2105 -0.5662 -1.8875
  841TIP3    H224087   0.366   3.685   1.430  2.3375 -1.5379  0.6012
  842TIP3   OH224088   4.578   5.134   0.333  0.6391  0.3317 -0.0599
  842TIP3    H124089   4.622   5.078   0.397 -2.0746 -1.3913  0.4671
  842TIP3    H224090   4.582   5.222   0.371  1.7164 -0.1341  0.9598
  843TIP3   OH224091   1.390   3.003   7.586 -0.2699  0.2583  0.0768
  843TIP3    H124092   1.485   3.005   7.595 -0.3724 -1.0292  1.8389
  843TIP3    H224093   1.376   2.988   7.492  1.3721 -3.3124  0.2461
  844TIP3   OH224094   6.037   4.004   8.671 -0.1172  0.2473 -0.1237
  844TIP3    H124095   6.011   4.022   8.580  1.1370 -1.1257 -0.7970
  844TIP3    H224096   5.999   3.919   8.691  1.6741 -0.6352 -0.2772
  845TIP3   OH224097   1.956   4.670   8.305 -0.3222  0.0703 -0.0791
  845TIP3    H124098   2.030   4.652   8.363  0.6605 -0.4141 -1.4304
  845TIP3    H224099   1.995   4.676   8.217 -1.5061  2.4228 -0.5262
  846TIP3   OH224100   5.365   0.477   6.609  0.0592  0.1759  0.1686
  846TIP3    H124101   5.315   0.530   6.672  1.0665 -0.1991  1.3323
  846TIP3    H224102   5.439   0.442   6.660 -0.2358 -1.8775 -0.6978
  847TIP3   OH224103   4.133   0.735   8.610 -0.5138  0.0989  0.3949
  847TIP3    H124104   4.113   0.758   8.700  0.3149  1.9238  0.1543
  847TIP3    H224105   4.068   0.782   8.558 -0.7794 -0.6761  0.0001
  848TIP3   OH224106   0.079   0.335   8.146 -0.0449  0.1443  0.4774
  848TIP3    H124107   0.116   0.308   8.062 -1.1750  1.0568 -0.3588
  848TIP3    H224108  -0.001   0.282   8.156 -1.3790  1.8827 -0.3818
  849TIP3   OH224109   6.406   0.695   7.769 -1.0677  0.5672  0.1628
  849TIP3    H124110   6.413   0.717   7.676 -0.0697  0.7791  0.2810
  849TIP3    H224111   6.451   0.766   7.814 -1.8676  0.6576  0.8404
  850TIP3   OH224112   3.003   1.512   1.727  0.4368  0.3159 -0.3420
  850TIP3    H124113   2.921   1.466   1.747  1.2197 -1.4970 -1.0922
  850TIP3    H224114   3.071   1.458   1.766  1.2738  2.3820  1.2346
  851TIP3   OH224115   3.723   5.150   7.648 -0.5691 -0.2704  0.4029
  851TIP3    H124116   3.785   5.125   7.579 -1.2588 -1.7905  0.2982
  851TIP3    H224117   3.778   5.188   7.717  0.5984 -2.1156  0.5574
  852TIP3   OH224118   4.482   0.517   8.001 -0.0154  0.2403 -0.0139
  852TIP3    H124119   4.441   0.602   7.989  0.3801  0.3984 -0.2852
  852TIP3    H224120   4.436   0.477   8.074 -0.9568  0.2217 -0.6026
  853TIP3   OH224121   1.337   5.431   0.753  0.3795 -0.9426  0.4237
  853TIP3    H124122   1.289   5.468   0.679  1.7718 -0.1356 -0.1103
  853TIP3    H224123   1.318   5.337   0.749  0.6572 -0.9494 -1.1445
  854TIP3   OH224124   6.780   4.470   7.182 -0.5306 -0.1784  0.4157
  854TIP3    H124125   6.812   4.458   7.093 -1.8677 -1.8785  0.1249
  854TIP3    H224126   6.849   4.521   7.225  0.8166 -0.5758 -1.1703
  855TIP3   OH224127   5.669   3.002   1.895 -0.4931 -0.2702 -0.4150
  855TIP3    H124128   5.640   2.919   1.932  0.3280  0.4986  2.1428
  855TIP3    H224129   5.605   3.066   1.925 -0.3128  0.2623 -1.1252
  856TIP3   OH224130   2.719   2.199   1.309 -0.3835 -0.2582  0.0679
  856TIP3    H124131   2.633   2.227   1.278 -0.0802  0.3398 -0.2420
  856TIP3    H224132   2.730   2.110   1.274 -1.1057 -0.5586  0.5742
  857TIP3   OH224133   3.300   0.003   1.575  0.2775 -0.2525 -0.1939
  857TIP3    H124134   3.320  -0.009   1.668  2.4742  0.3018 -0.5510
  857TIP3    H224135   3.384   0.020   1.534 -0.6160 -0.6892 -2.3464
  858TIP3   OH224136   1.997   3.133   1.125  0.3900 -0.1447  0.0526
  858TIP3    H124137   2.056   3.193   1.079  0.9521 -1.2463 -0.6920
  858TIP3    H224138   2.047   3.107   1.203 -0.3826  1.3609  1.1158
  859TIP3   OH224139   6.744   6.255   6.467  0.1432  0.3329  0.2142
  859TIP3    H124140   6.668   6.274   6.522 -0.3190 -0.6827 -0.0500
  859TIP3    H224141   6.755   6.333   6.412 -0.7660  0.4469  0.1906
  860TIP3   OH224142   3.310   5.830   1.940 -0.4776  0.3011 -0.1817
  860TIP3    H124143   3.233   5.822   1.995  1.1205 -0.0163  2.1449
  860TIP3    H224144   3.368   5.889   1.988  1.5004 -0.9553 -0.8833
  861TIP3   OH224145   1.132   3.710   1.156 -0.3822  0.2597  0.0288
  861TIP3    H124146   1.083   3.637   1.118  0.2153  1.2514 -2.8301
  861TIP3    H224147   1.065   3.762   1.202 -0.8258 -1.9514  2.0728
  862TIP3   OH224148   6.398   1.631   2.277  0.2288  0.3943  0.1143
  862TIP3    H124149   6.402   1.726   2.260  1.2838  0.2555 -0.4585
  862TIP3    H224150   6.305   1.615   2.295  0.1260  1.6302  0.8206
  863TIP3   OH224151   2.742   1.961   0.725 -0.2472  0.4576 -0.2301
  863TIP3    H124152   2.812   1.987   0.665  2.0670 -1.5611  1.4214
  863TIP3    H224153   2.708   1.880   0.688 -0.4564  0.4626 -0.0480
  864TIP3   OH224154   2.379   3.688   6.712  0.3421 -0.2499  0.5264
  864TIP3    H124155   2.293   3.702   6.752 -0.2596  0.2437 -0.8447
  864TIP3    H224156   2.383   3.753   6.642  0.4393 -2.3291 -1.5450
  865TIP3   OH224157   6.582   5.060   0.861  0.4362  0.4474  0.2823
  865TIP3    H124158   6.591   5.110   0.942 -0.9543  0.8486  0.2209
  865TIP3    H224159   6.586   5.126   0.792  0.4986  0.2346  0.0803
  866TIP3   OH224160   3.243   1.716   1.449  0.3000 -0.5022  0.3819
  866TIP3    H124161   3.319   1.689   1.501  2.8272  1.4579 -2.0432
  866TIP3    H224162   3.275   1.786   1.393 -3.1440 -0.1008 -1.3624
  867TIP3   OH224163   4.557   4.256   8.148 -0.0375 -0.1418 -0.4249
  867TIP3    H124164   4.551   4.289   8.238  0.5243  1.4128 -0.9266
  867TIP3    H224165   4.512   4.321   8.095  3.5884  1.4804 -1.8115
  868TIP3   OH224166   2.570   0.602   0.516  0.0760  0.1354  0.4920
  868TIP3    H124167   2.578   0.690   0.479 -0.8150 -0.2311 -0.6304
  868TIP3    H224168   2.475   0.588   0.522  0.2030 -0.9775  0.0763
  869TIP3   OH224169   1.825   3.444   7.439  0.5635 -0.3926 -0.5088
  869TIP3    H124170   1.796   3.431   7.349  0.9514 -0.9340 -0.5588
  869TIP3    H224171   1.844   3.538   7.444 -0.0610 -0.2462 -0.8041
  870TIP3   OH224172   1.022   5.974   8.455  0.0787 -0.3434 -0.1835
  870TIP3    H124173   1.086   5.940   8.518 -0.3254 -0.8678 -0.0518
  870TIP3    H224174   1.073   5.989   8.375  0.7378  0.9597  0.4439
  871TIP3   OH224175   2.959   2.441   1.751  0.0737  0.1055 -0.0039
  871TIP3    H124176   2.924   2.420   1.838 -1.4053  0.2791 -0.5278
  871TIP3    H224177   2.896   2.403   1.690  1.8942 -1.3652 -1.0644
  872TIP3   OH224178   6.013   2.823   1.448  0.0700  0.4475 -0.2350
  872TIP3    H124179   5.918   2.827   1.458 -0.0443 -0.6177 -0.7524
  872TIP3    H224180   6.044   2.779   1.527 -0.0568 -0.8085 -0.8622
  873TIP3   OH224181   1.473   6.081   7.619  0.4365 -0.0510  0.3001
  873TIP3    H124182   1.539   6.013   7.633 -0.7138 -1.1501  0.4940
  873TIP3    H224183   1.390   6.040   7.642 -0.5469  0.7204 -1.6419
  874TIP3   OH224184   3.444   0.914   7.643 -0.0163 -0.2970 -0.1567
  874TIP3    H124185   3.492   0.835   7.670  2.9360  0.9739 -1.2698
  874TIP3    H224186   3.462   0.921   7.549 -2.4981  0.3062 -0.6611
  875TIP3   OH224187   3.696   0.438   1.789  0.8669  0.5898  0.1883
  875TIP3    H124188   3.761   0.381   1.747 -0.1592 -1.7791  1.5811
  875TIP3    H224189   3.746   0.489   1.852  1.8835  1.6029 -1.3721
  876TIP3   OH224190   3.056   6.734   8.048  0.4302  0.1194 -0.0870
  876TIP3    H124191   3.122   6.672   8.077  1.0320  0.4959 -0.6308
  876TIP3    H224192   3.101   6.818   8.047 -0.0630  0.3839 -0.4429
  877TIP3   OH224193   2.138   1.744   0.898 -0.2814 -0.1490 -0.0332
  877TIP3    H124194   2.147   1.762   0.805 -1.4257 -2.0894 -0.5700
  877TIP3    H224195   2.052   1.781   0.921 -0.7109 -1.0691 -0.1347
  878TIP3   OH224196   4.861   4.037   7.244 -0.2828  0.0494  0.0709
  878TIP3    H124197   4.774   4.004   7.265 -0.4296  1.5099  2.0273
  878TIP3    H224198   4.917   3.959   7.245 -1.0957 -0.5602  1.6346
  879TIP3   OH224199   4.729   2.120   1.503 -0.0180  0.3373 -0.2890
  879TIP3    H124200   4.744   2.026   1.501  0.0186  0.3546 -1.0792
  879TIP3    H224201   4.788   2.153   1.570 -0.2999 -0.2462  0.2557
  880TIP3   OH224202   3.458   3.500   6.802 -0.4884 -0.2661  0.1396
  880TIP3    H124203   3.411   3.583   6.800  1.3739  0.8307 -1.1472
  880TIP3    H224204   3.409   3.443   6.743 -0.6858  0.5659 -0.5129
  881TIP3   OH224205   1.590   1.160   2.347 -0.0593 -0.3494  0.4320
  881TIP3    H124206   1.525   1.090   2.347  1.9692 -2.4865  3.1662
  881TIP3    H224207   1.545   1.233   2.391 -1.4406 -0.7810 -0.1995
  882TIP3   OH224208   4.280   4.842   1.734 -0.0097 -0.0695 -0.2696
  882TIP3    H124209   4.307   4.903   1.803 -3.1576  2.6296 -1.1274
  882TIP3    H224210   4.359   4.828   1.682  1.3509  1.6478  1.1944
  883TIP3   OH224211   1.591   5.841   8.201  0.2308 -0.4404  0.4408
  883TIP3    H124212   1.525   5.815   8.266  0.5266 -0.9386  0.5443
  883TIP3    H224213   1.647   5.764   8.192  1.1731  0.1869  0.8233
  884TIP3   OH224214   5.459   4.534   7.783  0.0966 -0.3144 -0.0292
  884TIP3    H124215   5.458   4.479   7.705  1.5779 -0.5427  0.0868
  884TIP3    H224216   5.531   4.595   7.768 -0.4908  0.5385  0.5645
  885TIP3   OH224217   0.496   5.780   8.275 -0.4359  0.0649  0.0092
  885TIP3    H124218   0.511   5.708   8.336 -1.6838  0.3280  0.6406
  885TIP3    H224219   0.401   5.788   8.269 -0.3207  1.2050 -0.5978
  886TIP3   OH224220   3.692   0.609   0.901  0.1187  0.4188 -0.1638
  886TIP3    H124221   3.751   0.674   0.863  1.3001  1.2916  2.8085
  886TIP3    H224222   3.609   0.656   0.914  0.9518  1.4578  1.9286
  887TIP3   OH224223   1.392   1.143   1.513 -0.3496 -0.3150  0.0169
  887TIP3    H124224   1.368   1.153   1.605  1.1726  1.0096  0.3206
  887TIP3    H224225   1.488   1.141   1.514 -0.1456  2.9446 -1.7546
  888TIP3   OH224226   3.880   5.595   7.392  0.2331  0.3414 -0.7197
  888TIP3    H124227   3.816   5.546   7.445 -0.1016  2.8235  1.4191
  888TIP3    H224228   3.965   5.570   7.428  0.1707  0.1845 -0.6807
  889TIP3   OH224229   5.285   2.837   1.726  0.4404  0.2438 -0.1278
  889TIP3    H124230   5.310   2.903   1.789  0.9799 -1.2026  1.2475
  889TIP3    H224231   5.230   2.776   1.775 -1.0362  0.2679 -1.6408
  890TIP3   OH224232   0.766   4.357   7.660  0.2280  0.3183  0.1427
  890TIP3    H124233   0.695   4.373   7.722  1.9302  0.6116  2.1160
  890TIP3    H224234   0.778   4.440   7.614 -0.7125  0.2495 -0.2382
  891TIP3   OH224235   6.765   5.499   0.222 -0.5354 -0.8137 -0.0827
  891TIP3    H124236   6.795   5.522   0.134 -0.9111 -0.2898 -0.0791
  891TIP3    H224237   6.834   5.442   0.257  2.6147  3.4206  1.4788
  892TIP3   OH224238   1.928   1.851   0.081 -0.2571  0.5409  0.2590
  892TIP3    H124239   1.911   1.757   0.083  0.6076  0.3704  0.3302
  892TIP3    H224240   1.892   1.881  -0.003 -0.5845  0.1597  0.2627
  893TIP3   OH224241   4.690   1.607   7.881 -0.5177  0.0062 -0.2535
  893TIP3    H124242   4.607   1.655   7.885 -0.7833 -0.4937  0.5371
  893TIP3    H224243   4.749   1.656   7.939  0.1086  1.0147 -1.7008
  894TIP3   OH224244   0.694   0.299   8.010  0.1196  0.0215  0.2553
  894TIP3    H124245   0.744   0.266   8.085 -1.2943 -1.4534  0.6031
  894TIP3    H224246   0.636   0.226   7.986  0.0053  0.7257 -1.8046
  895TIP3   OH224247   3.023   0.752   8.128  0.3187 -0.2141  0.4655
  895TIP3    H124248   3.016   0.816   8.200  2.9615 -1.2061  1.7531
  895TIP3    H224249   3.036   0.805   8.050  0.9762  0.8708  1.2854
  896TIP3   OH224250   1.586   3.472   7.580  0.2408  0.0280 -0.4415
  896TIP3    H124251   1.668   3.447   7.537 -1.4282 -1.5666 -2.9908
  896TIP3    H224252   1.545   3.534   7.519 -0.6666  0.4117  0.5356
  897TIP3   OH224253   4.517   5.947   8.266  0.6625 -0.1051 -0.3156
  897TIP3    H124254   4.518   6.002   8.188 -0.9305 -1.0032 -1.0134
  897TIP3    H224255   4.549   5.862   8.236  1.4036 -0.0801  0.3557
  898TIP3   OH224256   0.232   6.501   0.259  0.2701 -0.0680  0.0508
  898TIP3    H124257   0.213   6.423   0.207  0.8916 -0.6177  0.6341
  898TIP3    H224258   0.184   6.572   0.215  0.9089 -0.4783 -1.3597
  899TIP3   OH224259   2.728   5.658   7.825  0.1643  0.2768  0.0017
  899TIP3    H124260   2.665   5.690   7.889  0.4394 -1.3542  1.1389
  899TIP3    H224261   2.675   5.632   7.750 -0.2215  1.5823 -0.2025
  900TIP3   OH224262   6.748   6.656   7.334  0.5019 -0.1073 -0.2107
  900TIP3    H124263   6.677   6.621   7.279  0.3834  1.0154 -0.8002
  900TIP3    H224264   6.774   6.737   7.290  1.2809  0.1499  0.7087
  901TIP3   OH224265   6.675   5.877   0.859 -0.0229  0.4506  0.1087
  901TIP3    H124266   6.634   5.948   0.809  0.1208 -0.1193 -0.8362
  901TIP3    H224267   6.764   5.908   0.876  1.0797 -0.6842 -2.9507
  902TIP3   OH224268   6.334   0.598   8.774 -0.1076 -0.2678  0.3793
  902TIP3    H124269   6.373   0.600   8.686 -2.1675  0.5030 -0.5838
  902TIP3    H224270   6.404   0.628   8.832  0.7684  0.9966 -1.2471
  903TIP3   OH224271   5.153   5.745   0.248  0.2970 -0.2339 -0.2079
  903TIP3    H124272   5.119   5.656   0.234 -3.6431  1.3561 -2.3600
  903TIP3    H224273   5.200   5.766   0.168  0.9116 -0.2361  0.1484
  904TIP3   OH224274   0.380   2.323   0.360 -0.3958  0.7266 -0.4247
  904TIP3    H124275   0.354   2.248   0.413  0.6827  1.7683  1.6752
  904TIP3    H224276   0.471   2.306   0.338 -0.2451  1.2727 -0.2192
  905TIP3   OH224277   5.227   4.348   7.447  0.3996  0.1479 -0.2357
  905TIP3    H124278   5.230   4.261   7.407 -1.9383 -0.4201  0.6288
  905TIP3    H224279   5.153   4.391   7.404 -0.4648  0.5085  1.5172
  906TIP3   OH224280   4.074   6.267   8.577  0.2183 -0.2942  0.6966
  906TIP3    H124281   4.002   6.206   8.562  0.7563 -0.6497 -0.5045
  906TIP3    H224282   4.036   6.335   8.633 -1.3327  0.0202 -0.6524
  907TIP3   OH224283   6.078   1.626   0.287  0.2224 -0.2825  0.4827
  907TIP3    H124284   6.062   1.531   0.284 -0.1545 -0.1944 -0.8573
  907TIP3    H224285   6.121   1.640   0.371  2.2376 -1.9402 -0.1801
  908TIP3   OH224286   4.136   5.048   1.453  0.4894  0.3183  0.3806
  908TIP3    H124287   4.123   5.073   1.544  2.3244  1.4510  0.3783
  908TIP3    H224288   4.230   5.061   1.437  0.4080 -0.8250 -1.3853
  909TIP3   OH224289   5.547   0.504   0.671 -0.8307  0.5877 -0.1614
  909TIP3    H124290   5.639   0.501   0.694 -1.6493  1.0593  3.9718
  909TIP3    H224291   5.544   0.483   0.578  3.1909 -2.0262  0.0783
  910TIP3   OH224292   1.394   3.799   8.445 -0.3436 -0.0738 -0.0741
  910TIP3    H124293   1.419   3.723   8.393 -0.6908  1.0259 -1.9245
  910TIP3    H224294   1.476   3.843   8.464 -0.3100  0.1574 -0.7346
  911TIP3   OH224295   4.930   6.482   8.099  0.0354 -0.6359 -0.0103
  911TIP3    H124296   5.011   6.523   8.130  0.8466 -1.1912 -1.3296
  911TIP3    H224297   4.862   6.515   8.159  0.4102  3.3769 -1.5187
  912TIP3   OH224298   5.888   1.742   6.754  0.2945 -0.4344 -0.2568
  912TIP3    H124299   5.815   1.750   6.691 -0.4674  0.4903  0.6994
  912TIP3    H224300   5.945   1.815   6.733  0.0952 -0.1894  0.0406
  913TIP3   OH224301   3.352   3.980   1.282 -0.5559  0.2044  0.0331
  913TIP3    H124302   3.418   3.928   1.236 -1.0399 -0.2309 -0.1890
  913TIP3    H224303   3.269   3.935   1.263 -0.9423  0.8656  0.1253
  914TIP3   OH224304   4.474   4.712   7.162 -0.4308 -0.0631 -0.3068
  914TIP3    H124305   4.440   4.626   7.188 -1.1519  0.2608 -0.1414
  914TIP3    H224306   4.431   4.773   7.223 -1.7873  0.6768 -1.9327
  915TIP3   OH224307   0.832   3.470   8.604 -0.4550  0.0138  0.0453
  915TIP3    H124308   0.886   3.530   8.553 -0.0496 -0.2498  0.1595
  915TIP3    H224309   0.780   3.422   8.538 -0.7369  0.4403 -0.0483
  916TIP3   OH224310   5.714   3.716   8.558 -0.0511 -0.1190  0.2966
  916TIP3    H124311   5.656   3.791   8.576  1.5227  1.1309  0.4229
  916TIP3    H224312   5.655   3.646   8.532 -1.6446  0.9969  0.7273
  917TIP3   OH224313   0.140   5.853   6.748  0.4324 -0.2124 -0.3903
  917TIP3    H124314   0.189   5.843   6.666  0.3049 -0.2631 -0.4600
  917TIP3    H224315   0.200   5.901   6.805  0.8486 -0.8963 -0.2333
  918TIP3   OH224316   1.960   5.274   7.829  0.4379 -0.0072  0.4304
  918TIP3    H124317   1.988   5.356   7.787  0.6001 -0.5851 -0.6220
  918TIP3    H224318   1.917   5.225   7.759  1.4911 -1.3740  0.6995
  919TIP3   OH224319   4.346   3.515   6.461 -0.5249 -0.1702  0.3508
  919TIP3    H124320   4.324   3.522   6.554 -0.2586 -2.0313  0.5792
  919TIP3    H224321   4.426   3.567   6.451 -2.5811  3.3233  0.3051
  920TIP3   OH224322   1.251   5.794   8.642 -0.2774  0.2093  0.1042
  920TIP3    H124323   1.338   5.800   8.680 -0.4335  2.3665  0.2653
  920TIP3    H224324   1.227   5.702   8.650  1.6058 -0.2579  0.8683
  921TIP3   OH224325   4.268   1.367   8.741 -0.2345 -0.1441 -0.6972
  921TIP3    H124326   4.217   1.288   8.757 -0.0700 -0.6198 -2.2998
  921TIP3    H224327   4.350   1.335   8.702 -0.2781  0.8105 -1.6391
  922TIP3   OH224328   4.032   0.983   7.617  0.0671 -1.0301 -0.0416
  922TIP3    H124329   3.937   0.991   7.624  0.2286 -0.0019  1.7001
  922TIP3    H224330   4.059   0.957   7.705  1.5382  0.6375  0.0513
  923TIP3   OH224331   1.245   2.628   0.158  0.7106 -0.0110  0.1550
  923TIP3    H124332   1.264   2.536   0.178  0.8242 -0.5229 -2.0867
  923TIP3    H224333   1.150   2.632   0.150  0.8348 -0.4237 -1.7989
  924TIP3   OH224334   2.907   4.248   0.554  0.4287 -0.0985 -0.1208
  924TIP3    H124335   2.857   4.327   0.576 -1.4991 -1.2143 -0.3102
  924TIP3    H224336   2.864   4.212   0.477  0.8302 -1.7234  0.3735
  925TIP3   OH224337   5.070   1.774   6.143 -0.3196 -0.2127  0.3774
  925TIP3    H124338   5.164   1.767   6.128 -0.3572 -1.2667  0.5201
  925TIP3    H224339   5.054   1.867   6.157  0.7609 -0.0723  0.7305
  926TIP3   OH224340   0.074   4.117   7.784  0.4674 -0.1709  0.1874
  926TIP3    H124341   0.142   4.085   7.842 -0.3538  0.4558  1.5501
  926TIP3    H224342   0.001   4.057   7.797  0.5805 -0.5569 -0.8974
  927TIP3   OH224343   0.159   2.390   7.784 -0.7066  0.0272  0.0744
  927TIP3    H124344   0.064   2.401   7.790 -0.6083  1.4738 -0.5266
  927TIP3    H224345   0.173   2.336   7.707 -1.0324  0.0000  0.0338
  928TIP3   OH224346   2.300   5.813   7.290  0.4263 -0.6687  0.3586
  928TIP3    H124347   2.273   5.883   7.231 -1.8235  1.1056  3.2438
  928TIP3    H224348   2.232   5.746   7.281 -0.6220  0.1689  1.7598
  929TIP3   OH224349   0.009   2.415   1.732  0.0299  0.4489  0.0628
  929TIP3    H124350  -0.047   2.392   1.806 -0.7369  0.8928 -0.3736
  929TIP3    H224351   0.051   2.497   1.758  1.3566 -0.4217  0.8470
  930TIP3   OH224352   0.192   2.645   1.745  0.1669  0.0371 -0.6156
  930TIP3    H124353   0.230   2.719   1.697 -0.5631  1.1629  0.4734
  930TIP3    H224354   0.238   2.645   1.829 -2.3492  1.6763  0.9077
  931TIP3   OH224355   1.305   1.230   8.563 -0.1096 -0.4089  0.1587
  931TIP3    H124356   1.237   1.172   8.596 -1.7175  0.8226 -0.8023
  931TIP3    H224357   1.310   1.211   8.470 -0.6394  0.9253 -0.1626
  932TIP3   OH224358   4.594   2.848   1.511  0.2544 -0.8559 -0.0888
  932TIP3    H124359   4.510   2.815   1.481 -0.0275 -0.9998  0.8522
  932TIP3    H224360   4.583   2.865   1.604  0.5074  1.5356 -0.4271
  933TIP3   OH224361   4.204   4.308   0.120 -0.9612  0.1357 -0.0808
  933TIP3    H124362   4.114   4.341   0.126 -0.5220  1.4784 -0.5775
  933TIP3    H224363   4.255   4.366   0.177 -0.3834 -0.5784  0.1563
  934TIP3   OH224364   3.423   6.295   7.278  0.2508 -0.1928 -0.3804
  934TIP3    H124365   3.513   6.265   7.267  0.1652 -1.2016  1.3725
  934TIP3    H224366   3.419   6.376   7.228  2.1593 -0.0606 -0.3914
  935TIP3   OH224367   6.488   5.700   0.589 -0.1232  0.2565 -0.1127
  935TIP3    H124368   6.471   5.606   0.601 -1.1749  0.2373 -1.4397
  935TIP3    H224369   6.581   5.705   0.568  0.1909 -0.3656  1.0911
  936TIP3   OH224370   6.503   6.280   1.209  0.5313  0.0641  0.3213
  936TIP3    H124371   6.489   6.276   1.115  1.0622 -2.9141  0.2601
  936TIP3    H224372   6.522   6.372   1.227  2.5466  0.4074 -2.7997
  937TIP3   OH224373   2.225   0.339   1.701 -0.9104  0.2927 -0.1219
  937TIP3    H124374   2.191   0.324   1.789  1.2626 -0.0132  0.7016
  937TIP3    H224375   2.230   0.435   1.694  1.1862  0.3093  1.0429
  938TIP3   OH224376   5.664   0.663   1.071 -0.0568  0.0716  0.1854
  938TIP3    H124377   5.651   0.673   0.977  1.8632  0.2309 -0.1073
  938TIP3    H224378   5.594   0.715   1.111 -0.0817  1.1322 -1.1689
  939TIP3   OH224379   3.797   2.113   6.975  0.1618 -0.1333  0.0952
  939TIP3    H124380   3.865   2.105   7.042  0.6709 -1.7126 -0.5763
  939TIP3    H224381   3.716   2.121   7.025  0.6739  0.0754  0.9084
  940TIP3   OH224382   6.358   2.791   0.144  0.1994 -0.0069 -0.0962
  940TIP3    H124383   6.391   2.777   0.232 -0.9997  1.2391  0.5825
  940TIP3    H224384   6.278   2.739   0.139 -0.7413  1.3340  0.2281
  941TIP3   OH224385   1.272   3.153   8.299  0.3356  0.6597 -0.4540
  941TIP3    H124386   1.236   3.085   8.242  1.3872 -0.2303 -0.0845
  941TIP3    H224387   1.227   3.141   8.382  0.3063  0.6166 -0.4761
  942TIP3   OH224388   0.487   2.884   0.626 -0.2405  0.4244  0.5167
  942TIP3    H124389   0.430   2.821   0.582 -0.6616  0.8273  0.4828
  942TIP3    H224390   0.431   2.960   0.643 -0.3984 -0.0989  2.6991
  943TIP3   OH224391   0.008   1.896   0.669  0.4462  0.0430  0.3981
  943TIP3    H124392  -0.013   1.828   0.606  1.7675  0.1557 -0.2088
  943TIP3    H224393   0.025   1.974   0.616 -0.2819  0.6482  1.0306
  944TIP3   OH224394   2.917   3.580   1.207 -0.3244  0.2176  0.2227
  944TIP3    H124395   2.868   3.640   1.264  3.2579  1.7493  1.9828
  944TIP3    H224396   2.965   3.524   1.267  0.7512 -0.6366 -1.3643
  945TIP3   OH224397   5.905   1.338   0.235 -0.5724  0.2502  0.4206
  945TIP3    H124398   5.941   1.307   0.318 -1.2891 -0.3171  0.5360
  945TIP3    H224399   5.811   1.320   0.242 -0.6245  0.0747 -0.5641
  946TIP3   OH224400   4.525   4.594   1.605  0.0163 -0.2518 -0.3057
  946TIP3    H124401   4.461   4.585   1.676  0.3771 -1.4218 -0.1015
  946TIP3    H224402   4.478   4.571   1.526 -0.0306 -0.3011 -0.2632
  947TIP3   OH224403   6.731   2.092   6.927 -0.1578 -0.1280 -0.3862
  947TIP3    H124404   6.779   2.023   6.973 -0.6520 -0.2476 -0.0409
  947TIP3    H224405   6.752   2.077   6.834 -0.6145 -1.0251 -0.3605
  948TIP3   OH224406   1.030   5.263   0.687 -0.0873  0.1885 -0.2800
  948TIP3    H124407   1.102   5.245   0.628 -0.6472  0.6057 -1.1164
  948TIP3    H224408   0.960   5.297   0.630  0.1894  3.0039  0.8883
  949TIP3   OH224409   4.523   0.457   1.147  0.9388  0.9332 -0.0189
  949TIP3    H124410   4.506   0.545   1.113  0.0768  1.3486  1.3643
  949TIP3    H224411   4.512   0.466   1.242  1.0081 -0.6325  0.1652
  950TIP3   OH224412   0.583   0.079   8.314  0.3397 -0.0013 -0.7109
  950TIP3    H124413   0.487   0.076   8.323  0.0382  0.8184 -2.9653
  950TIP3    H224414   0.616   0.040   8.395 -1.8985 -0.4159  0.0752
  951TIP3   OH224415   5.710   2.989   0.844  1.0766 -0.1941 -0.1919
  951TIP3    H124416   5.671   3.058   0.790  0.7179  0.2856  0.6561
  951TIP3    H224417   5.639   2.927   0.860  0.3448  1.0852  2.0233
  952TIP3   OH224418   6.714   1.993   1.479  0.1641  0.7594  0.3923
  952TIP3    H124419   6.689   2.073   1.433 -1.7295  0.8881  1.5199
  952TIP3    H224420   6.739   1.932   1.410  1.2221  2.1487 -0.5136
  953TIP3   OH224421   6.575   2.913   0.571  0.1299  0.0137 -0.2877
  953TIP3    H124422   6.637   2.906   0.642 -1.1974  0.9163  1.0170
  953TIP3    H224423   6.603   2.989   0.521 -0.2095  0.7364  0.6052
  954TIP3   OH224424   4.231   6.682   7.251 -0.1713 -0.1169  0.5215
  954TIP3    H124425   4.147   6.673   7.294 -1.2703  2.3785 -0.8498
  954TIP3    H224426   4.252   6.776   7.259  0.9211 -0.0848 -1.8525
  955TIP3   OH224427   1.281   3.310   0.023 -0.7663  0.1687 -0.5594
  955TIP3    H124428   1.277   3.325  -0.072  0.8909 -1.4554 -0.9307
  955TIP3    H224429   1.274   3.216   0.033  0.1396  0.2352  0.8764
  956TIP3   OH224430   2.749   1.328   8.560 -0.4336 -0.4315 -0.3877
  956TIP3    H124431   2.835   1.296   8.533  0.1933  0.6301  0.3117
  956TIP3    H224432   2.729   1.280   8.640  0.9667  1.5318  1.2423
  957TIP3   OH224433   4.658   4.412   6.362  0.3527 -0.2062  0.0780
  957TIP3    H124434   4.718   4.475   6.321  1.2343 -0.1751  1.3468
  957TIP3    H224435   4.572   4.434   6.326  0.8912  0.6427 -0.7484
  958TIP3   OH224436   2.462   6.159   8.399 -0.0142  0.0585 -0.5115
  958TIP3    H124437   2.490   6.114   8.319  1.9667 -1.7839  1.1108
  958TIP3    H224438   2.541   6.201   8.432 -0.6066  0.1715  0.8375
  959TIP3   OH224439   5.228   2.928   0.427 -0.5194  0.1829 -0.0963
  959TIP3    H124440   5.157   2.901   0.485 -0.5615  0.0741 -0.1995
  959TIP3    H224441   5.217   2.875   0.348  0.0543 -0.2885  0.1308
  960TIP3   OH224442   4.230   2.391   7.171 -0.0789 -0.0596 -0.1499
  960TIP3    H124443   4.293   2.431   7.112 -0.4568 -0.2000 -0.6600
  960TIP3    H224444   4.186   2.464   7.213 -0.5393  0.0725 -0.8338
  961TIP3   OH224445   1.669   0.608   0.671 -0.3726 -0.6758  0.1675
  961TIP3    H124446   1.729   0.677   0.701  0.1687 -0.7487 -0.6933
  961TIP3    H224447   1.607   0.654   0.614  0.5796 -0.9973 -1.2130
  962TIP3   OH224448   1.989   5.382   6.821  0.6144 -0.4463  0.2690
  962TIP3    H124449   1.990   5.414   6.731  0.8904  0.8200  0.6952
  962TIP3    H224450   1.931   5.306   6.819  0.1624 -0.0911 -0.8592
  963TIP3   OH224451   4.398   4.277   0.946  0.1300 -0.0482 -0.1983
  963TIP3    H124452   4.313   4.242   0.975  0.7755 -1.1995  0.4073
  963TIP3    H224453   4.408   4.243   0.857 -0.1368  0.2713 -0.3523
  964TIP3   OH224454   2.350   5.296   8.572  0.0533  0.3844  0.0992
  964TIP3    H124455   2.260   5.264   8.580  0.4109 -0.8350 -0.4520
  964TIP3    H224456   2.342   5.391   8.575 -1.2069  0.2847  0.5202
  965TIP3   OH224457   4.052   3.748   1.842 -0.0610 -0.6934  0.2271
  965TIP3    H124458   4.027   3.796   1.921 -1.3932 -0.9027 -0.0466
  965TIP3    H224459   4.144   3.771   1.828 -0.0609  0.0438  1.3338
  966TIP3   OH224460   3.007   2.761   6.926  0.4762  0.3865 -0.0366
  966TIP3    H124461   2.917   2.770   6.957  0.4253 -0.9599  0.2639
  966TIP3    H224462   3.018   2.833   6.862 -1.8907 -1.2981 -2.5784
  967TIP3   OH224463   2.179   1.120   0.477  0.3384  0.7642 -0.7223
  967TIP3    H124464   2.161   1.190   0.539 -1.4937  1.4424 -1.9178
  967TIP3    H224465   2.203   1.164   0.396 -1.1259  0.0991 -1.5783
  968TIP3   OH224466   0.575   1.740   0.948 -0.0628 -0.2609  0.3124
  968TIP3    H124467   0.536   1.657   0.978 -0.9245  0.4728  1.2807
  968TIP3    H224468   0.589   1.727   0.855  1.0707 -1.9919  0.6756
  969TIP3   OH224469   4.374   5.812   0.259  0.4217 -0.0837  0.4877
  969TIP3    H124470   4.302   5.861   0.300  1.1742  1.1753  0.3522
  969TIP3    H224471   4.394   5.861   0.179 -0.4625 -2.0338 -1.0209
  970TIP3   OH224472   3.335   5.938   7.283 -0.3400  0.1749  0.2757
  970TIP3    H124473   3.349   5.873   7.351  0.2238  1.8965  1.8682
  970TIP3    H224474   3.415   5.989   7.281 -0.6140  0.5968 -1.2201
  971TIP3   OH224475   4.448   4.142   6.812 -0.5012  0.6058  0.0483
  971TIP3    H124476   4.526   4.195   6.831 -0.3890  0.5882 -0.3641
  971TIP3    H224477   4.417   4.114   6.898  0.0228  0.5098  0.2098
  972TIP3   OH224478   0.698   5.691   8.079  0.2245 -0.3851  0.1875
  972TIP3    H124479   0.670   5.699   8.170  2.1347 -1.5557  0.9321
  972TIP3    H224480   0.781   5.738   8.075 -0.5000  0.8502 -1.3307
  973TIP3   OH224481   4.331   0.226   2.563  0.6658  0.0561  0.1056
  973TIP3    H124482   4.394   0.155   2.553  0.3574 -0.7506  3.0735
  973TIP3    H224483   4.246   0.184   2.551  0.5546  0.4228 -0.4210
  974TIP3   OH224484   3.554   3.225   6.592 -0.8087  0.5176  0.0192
  974TIP3    H124485   3.479   3.188   6.545  0.2365 -0.8205 -0.6414
  974TIP3    H224486   3.548   3.188   6.680 -1.1315  0.7274  0.0889
  975TIP3   OH224487   1.547   0.948   0.690  0.2679 -0.2645 -0.7903
  975TIP3    H124488   1.504   0.889   0.751 -2.0620  1.0948 -1.0286
  975TIP3    H224489   1.626   0.977   0.736  0.3534 -1.9099  0.1500
  976TIP3   OH224490   4.380   4.532   1.887  0.1299 -0.3773  0.4293
  976TIP3    H124491   4.385   4.602   1.952 -0.5197  0.3499 -0.2846
  976TIP3    H224492   4.415   4.455   1.932  0.0647  0.2035  1.5025
  977TIP3   OH224493   6.280   4.843   8.175 -0.8946 -0.1997 -0.0780
  977TIP3    H124494   6.226   4.781   8.225 -0.1009 -1.3773 -0.6462
  977TIP3    H224495   6.308   4.794   8.098 -2.2277  1.6139 -1.8307
  978TIP3   OH224496   0.589   5.899   0.195 -0.3211 -0.1834  0.1355
  978TIP3    H124497   0.649   5.928   0.263 -0.3141 -1.3954  0.6683
  978TIP3    H224498   0.613   5.808   0.178 -2.0299 -0.7382  0.4280
  979TIP3   OH224499   0.449   0.241   0.158  0.2113  0.1798 -0.4023
  979TIP3    H124500   0.522   0.237   0.220  1.8623 -1.3307 -2.2745
  979TIP3    H224501   0.480   0.191   0.082 -2.4326  0.3108 -1.6842
  980TIP3   OH224502   3.941   2.365   8.490 -0.3855 -0.6884  0.1417
  980TIP3    H124503   4.018   2.409   8.456  0.3435 -1.2236  1.0455
  980TIP3    H224504   3.899   2.431   8.546  0.7571 -1.1232  1.5724
  981TIP3   OH224505   1.339   3.980   7.566 -0.2115 -0.0731 -0.5460
  981TIP3    H124506   1.366   3.989   7.474  1.1855 -2.0990 -0.4043
  981TIP3    H224507   1.245   3.964   7.562 -0.1680 -0.1658 -1.6397
  982TIP3   OH224508   5.199   0.749   6.593 -0.2092  0.1242  0.1706
  982TIP3    H124509   5.191   0.817   6.659  1.6073  0.6641 -0.0949
  982TIP3    H224510   5.173   0.792   6.511  0.7444  0.4919  0.0360
  983TIP3   OH224511   1.004   5.172   8.181 -0.2165  0.2837 -0.4475
  983TIP3    H124512   1.060   5.185   8.105  0.6236 -0.6191  0.0121
  983TIP3    H224513   0.931   5.233   8.167  0.7626  1.3291 -1.1469
  984TIP3   OH224514   3.004   4.807   8.825  0.0304  0.4062  0.9893
  984TIP3    H124515   3.071   4.856   8.872 -0.1729  0.1708  1.5425
  984TIP3    H224516   3.045   4.723   8.804  0.3809  0.8034  0.0358
  985TIP3   OH224517   6.268   2.339   1.153 -0.0124  0.1528  0.3010
  985TIP3    H124518   6.256   2.397   1.228  0.2936 -0.2519  0.6692
  985TIP3    H224519   6.279   2.252   1.191 -1.0380 -0.2441 -0.2726
  986TIP3   OH224520   6.615   1.221   0.545 -0.2809 -0.3245  0.1081
  986TIP3    H124521   6.553   1.148   0.539 -0.4955 -0.0229 -2.1079
  986TIP3    H224522   6.630   1.248   0.454  1.2083  1.2184  0.7515
  987TIP3   OH224523   4.131   2.868   8.336 -0.4809  0.0290 -0.1468
  987TIP3    H124524   4.170   2.945   8.377  1.0650  0.1736 -1.7594
  987TIP3    H224525   4.201   2.831   8.283 -1.9736 -0.9084 -1.5614
  988TIP3   OH224526   5.939   4.513   8.385 -0.5207 -0.2298  0.2118
  988TIP3    H124527   5.851   4.495   8.355  0.2513 -1.7543 -1.2915
  988TIP3    H224528   5.935   4.499   8.480 -2.2143  1.2926  0.4165
  989TIP3   OH224529   2.112   1.827   7.283 -0.3757  0.2152  0.0822
  989TIP3    H124530   2.040   1.811   7.222  0.2705  0.3054 -0.7208
  989TIP3    H224531   2.190   1.834   7.227  0.2437  0.2128  0.9244
  990TIP3   OH224532   5.144   4.746   8.307 -0.6419  0.0815  0.1532
  990TIP3    H124533   5.230   4.748   8.349 -2.1822  0.3795  3.5445
  990TIP3    H224534   5.138   4.830   8.262  1.4404 -0.6458 -1.7110
  991TIP3   OH224535   5.011   2.876   8.113 -0.0374 -0.0805  0.3336
  991TIP3    H124536   4.943   2.866   8.180  0.8207 -0.9750  1.0927
  991TIP3    H224537   5.084   2.822   8.144  0.3460 -0.6114 -1.3739
  992TIP3   OH224538   1.641   4.171   8.221 -0.4028 -0.1981  0.4033
  992TIP3    H124539   1.615   4.094   8.169  0.8998 -0.1993 -0.3002
  992TIP3    H224540   1.722   4.144   8.264  0.6648  1.0967 -0.6965
  993TIP3   OH224541   5.126   3.990   0.880 -0.0160 -0.2884  0.2200
  993TIP3    H124542   5.113   3.942   0.798  1.9535 -1.8359  0.7222
  993TIP3    H224543   5.135   4.081   0.854  0.1323 -0.7016 -1.2289
  994TIP3   OH224544   2.292   5.568   8.546  0.0904  0.1212 -0.3587
  994TIP3    H124545   2.358   5.570   8.477  0.6851  1.0981  0.2195
  994TIP3    H224546   2.305   5.649   8.595  0.1081 -0.8433  1.2981
  995TIP3   OH224547   0.033   4.553   7.986  0.4588  0.4251  0.2218
  995TIP3    H124548  -0.049   4.589   7.954  0.7949  1.8821  0.9404
  995TIP3    H224549   0.014   4.460   8.001 -0.4930  0.3104 -1.4225
  996TIP3   OH224550   4.037   1.613   0.667 -0.2450 -0.2429 -0.0748
  996TIP3    H124551   4.077   1.625   0.753 -0.9900  0.7816  0.1432
  996TIP3    H224552   3.949   1.582   0.685 -1.1242  1.9017 -0.3454
  997TIP3   OH224553   1.050   2.996   7.392  0.1318 -0.4128  0.5775
  997TIP3    H124554   1.145   2.991   7.381  0.1481 -2.3573  1.2030
  997TIP3    H224555   1.022   2.905   7.399 -1.8760  0.0887 -0.2520
  998TIP3   OH224556   4.951   2.670   6.907  0.0360 -0.0654  0.4327
  998TIP3    H124557   4.985   2.593   6.860 -0.7462 -0.2527  0.1502
  998TIP3    H224558   4.887   2.634   6.969  1.5885  0.1023  2.2081
  999TIP3   OH224559   5.239   6.273   0.774  0.1002 -0.0196  0.5695
  999TIP3    H124560   5.276   6.186   0.761 -0.4340 -0.2804  0.7478
  999TIP3    H224561   5.268   6.323   0.697 -0.9056 -0.8126 -0.3539
 1000TIP3   OH224562   3.473   2.848   7.429  0.1809 -0.8836  0.3224
 1000TIP3    H124563   3.410   2.916   7.406  0.0038 -1.3368 -0.5640
 1000TIP3    H224564   3.544   2.857   7.366 -1.3587 -3.5920 -2.0347
 1001TIP3   OH224565   1.783   0.987   2.741 -0.0150 -0.1546 -0.1075
 1001TIP3    H124566   1.834   0.906   2.732  1.5528  0.7836  0.0325
 1001TIP3    H224567   1.702   0.959   2.784  0.3812 -1.6881 -0.2901
 1002TIP3   OH224568   4.584   5.146   0.048  0.3896  0.6004  0.0426
 1002TIP3    H124569   4.575   5.171   0.139 -0.1429  1.5272 -0.2486
 1002TIP3    H224570   4.495   5.125   0.020  0.6586 -0.4978 -0.0506
 1003TIP3   OH224571   4.518   3.182   1.905 -0.2182  0.0854 -0.4306
 1003TIP3    H124572   4.581   3.250   1.929 -0.2798  0.6053 -1.6901
 1003TIP3    H224573   4.483   3.151   1.989  0.3928  1.0490  0.1943
 1004TIP3   OH224574   6.431   4.676   6.786  0.9938  0.4640 -0.3841
 1004TIP3    H124575   6.384   4.668   6.869  1.2724 -1.1458 -0.3455
 1004TIP3    H224576   6.407   4.762   6.753  0.6465  1.0208  1.2213
 1005TIP3   OH224577   0.228   2.612   0.041 -0.2276  0.1079  0.1590
 1005TIP3    H124578   0.265   2.649   0.121  1.4066  1.8063 -1.3058
 1005TIP3    H224579   0.144   2.575   0.069  0.1622  0.8758  2.5875
 1006TIP3   OH224580   5.187   4.264   8.453 -0.3209  0.0390  0.4988
 1006TIP3    H124581   5.114   4.267   8.515 -0.1729 -0.0066  0.6781
 1006TIP3    H224582   5.175   4.182   8.406  0.6111 -0.8880  1.7831
 1007TIP3   OH224583   2.558   2.377   7.711 -0.1087  0.6827  0.0475
 1007TIP3    H124584   2.604   2.398   7.630  0.0323  0.4800  0.0751
 1007TIP3    H224585   2.480   2.329   7.683  0.6192 -0.5852  0.1031
 1008TIP3   OH224586   1.102   4.682   1.393 -0.8972 -0.0858 -0.5982
 1008TIP3    H124587   1.023   4.671   1.340  0.4099  0.5180 -2.8337
 1008TIP3    H224588   1.143   4.595   1.391 -1.2414 -0.2719  0.1466
 1009TIP3   OH224589   0.999   3.901   8.385  0.4159  0.0164 -0.5837
 1009TIP3    H124590   1.031   3.905   8.475 -0.7248 -0.7582 -0.1173
 1009TIP3    H224591   1.062   3.846   8.339  1.1832  0.6834 -0.3548
 1010TIP3   OH224592   6.465   0.429   8.142 -0.1129 -0.1139 -0.4456
 1010TIP3    H124593   6.454   0.341   8.177  0.0232  1.2681  3.4507
 1010TIP3    H224594   6.383   0.475   8.162  0.2724  1.0289 -1.3137
 1011TIP3   OH224595   1.542   5.277   1.584  0.3415  0.0063 -0.0511
 1011TIP3    H124596   1.612   5.323   1.539  0.4340  0.4157  0.5033
 1011TIP3    H224597   1.462   5.314   1.549  0.3874 -0.8104 -1.0502
 1012TIP3   OH224598   6.598   0.750   2.371 -0.1358 -0.3286 -0.0729
 1012TIP3    H124599   6.687   0.786   2.378 -0.2513 -0.3849  2.2661
 1012TIP3    H224600   6.543   0.827   2.360  0.1311 -0.2618 -1.0720
 1013TIP3   OH224601   3.953   6.778   8.585 -0.5271  0.3026  0.5561
 1013TIP3    H124602   3.878   6.723   8.608  0.0146 -1.0299 -0.7099
 1013TIP3    H224603   3.980   6.746   8.499  1.2202  1.0379  0.7995
 1014TIP3   OH224604   1.430   0.829   7.878 -0.5515  0.3391  0.4235
 1014TIP3    H124605   1.471   0.816   7.964 -1.0145  0.5617  0.6827
 1014TIP3    H224606   1.370   0.902   7.892 -0.4286  0.5573 -0.1639
 1015TIP3   OH224607   1.878   5.916   0.293 -0.2186  0.6465 -0.1238
 1015TIP3    H124608   1.934   5.978   0.246 -0.7740  1.5269  0.3487
 1015TIP3    H224609   1.839   5.863   0.223 -0.4250  1.4209 -0.6145
 1016TIP3   OH224610   0.793   2.685   8.299  0.2263  0.3161 -0.2005
 1016TIP3    H124611   0.733   2.731   8.241  0.2308 -0.1791 -0.6057
 1016TIP3    H224612   0.875   2.734   8.292 -0.3843  1.6363  1.1664
 1017TIP3   OH224613   2.010   5.645   6.638  0.0124  0.1467  0.5012
 1017TIP3    H124614   2.046   5.635   6.726 -2.0148  0.7146  1.4374
 1017TIP3    H224615   2.046   5.570   6.589  1.1683 -0.1704  1.7868
 1018TIP3   OH224616   2.005   3.937   1.158 -0.5929 -0.2855 -0.0159
 1018TIP3    H124617   2.018   3.891   1.241  1.8704 -0.1903 -0.2822
 1018TIP3    H224618   2.079   3.996   1.151  0.2085 -1.4578 -3.0381
 1019TIP3   OH224619   3.464   2.457   0.763  0.1388  0.3109 -0.1654
 1019TIP3    H124620   3.496   2.400   0.693  0.5345  0.0858  0.2001
 1019TIP3    H224621   3.541   2.505   0.793 -0.6907  3.9554 -3.0348
 1020TIP3   OH224622   2.473   0.020   0.226  0.1833 -0.0164  0.7971
 1020TIP3    H124623   2.458   0.034   0.319  0.2161  1.1888  0.6352
 1020TIP3    H224624   2.487  -0.075   0.218 -0.1652 -0.1801  1.9551
 1021TIP3   OH224625   6.162   2.011   0.330  0.2445  0.0224  0.3316
 1021TIP3    H124626   6.205   1.939   0.285  1.1385  1.1158 -0.5997
 1021TIP3    H224627   6.073   2.011   0.296  0.4990 -0.0809 -0.3338
 1022TIP3   OH224628   6.676   5.394   7.079  0.2288  0.1188  0.4204
 1022TIP3    H124629   6.667   5.488   7.063  1.6117  0.3225  0.7919
 1022TIP3    H224630   6.592   5.369   7.117  0.6704  1.7011  2.6767
 1023TIP3   OH224631   4.344   1.310   6.540 -0.2577  0.6800  0.0350
 1023TIP3    H124632   4.261   1.266   6.560  0.0750 -0.4120 -0.8945
 1023TIP3    H224633   4.340   1.325   6.445  0.2091  1.5065  0.1347
 1024TIP3   OH224634   4.484   3.984   0.303 -0.5764 -0.4855 -0.0262
 1024TIP3    H124635   4.468   3.911   0.362 -0.4855 -1.8902 -1.6466
 1024TIP3    H224636   4.461   3.950   0.216  0.0085  1.2329 -0.9044
 1025TIP3   OH224637   1.976   5.957   0.026 -0.3341  0.0830  0.2054
 1025TIP3    H124638   1.961   5.953  -0.069 -1.5719  2.4131  0.2404
 1025TIP3    H224639   2.071   5.962   0.035 -0.2565  1.5290 -1.0428
 1026TIP3   OH224640   4.177   1.778   8.204  0.2769 -0.5447  0.0524
 1026TIP3    H124641   4.232   1.709   8.240  0.9809 -0.2241 -0.3992
 1026TIP3    H224642   4.120   1.734   8.142  0.8626 -0.6956 -0.3860
 1027TIP3   OH224643   4.644   2.553   8.524  0.2135  0.3376  0.0762
 1027TIP3    H124644   4.703   2.485   8.491  0.1475  1.2298 -2.1016
 1027TIP3    H224645   4.560   2.509   8.533  0.1103  0.1291 -1.5586
 1028TIP3   OH224646   3.523   0.615   2.047  0.0040 -0.0899 -0.3027
 1028TIP3    H124647   3.501   0.600   2.139 -1.3077  0.1636 -0.5609
 1028TIP3    H224648   3.605   0.567   2.035  0.6145  0.4971  1.1800
 1029TIP3   OH224649   5.328   0.609   8.510 -0.2265  0.5366 -0.0321
 1029TIP3    H124650   5.303   0.533   8.459 -1.7222  0.8693  0.1542
 1029TIP3    H224651   5.245   0.651   8.533  0.4984  1.4381  1.0595
 1030TIP3   OH224652   0.627   0.965   7.316  0.8754  0.2030  0.4786
 1030TIP3    H124653   0.666   0.907   7.381  2.0980  1.5802  1.0467
 1030TIP3    H224654   0.553   1.006   7.362  1.6802  1.1035  1.0163
 1031TIP3   OH224655   3.416   6.480   0.403  0.5627 -0.4660 -0.0707
 1031TIP3    H124656   3.325   6.454   0.387  1.1954 -2.6639 -0.3561
 1031TIP3    H224657   3.420   6.495   0.498 -0.1227 -0.2000 -0.0785
 1032TIP3   OH224658   4.020   1.062   0.952 -0.3238  0.3971 -0.2121
 1032TIP3    H124659   4.062   1.022   1.028 -0.3797 -2.6296 -1.5867
 1032TIP3    H224660   3.927   1.063   0.972 -0.3761 -0.7396 -0.3300
 1033TIP3   OH224661   6.391   0.192   8.262 -0.3838 -0.2327 -0.0781
 1033TIP3    H124662   6.378   0.117   8.320  1.0004  0.1468  0.7632
 1033TIP3    H224663   6.400   0.153   8.175 -1.1367 -0.9090  0.1262
 1034TIP3   OH224664   3.796   2.215   0.974 -0.5027  0.3106  0.0454
 1034TIP3    H124665   3.869   2.179   0.922 -2.2624 -2.0528 -0.9985
 1034TIP3    H224666   3.718   2.180   0.932 -2.1160 -1.2496  3.8813
 1035TIP3   OH224667   0.730   1.345   1.985  0.0809 -0.6995  0.7098
 1035TIP3    H124668   0.808   1.290   1.985 -0.5619 -1.6519  2.0314
 1035TIP3    H224669   0.661   1.289   1.950  0.3235  0.7715 -2.5343
 1036TIP3   OH224670   5.687   6.684   1.937 -0.1009  0.0862  0.4894
 1036TIP3    H124671   5.694   6.593   1.968 -1.1384 -0.2247 -0.1251
 1036TIP3    H224672   5.718   6.737   2.010 -0.5808 -0.7155  1.2972
 1037TIP3   OH224673   3.043   1.822   7.934 -0.1538 -0.0036  0.0199
 1037TIP3    H124674   3.021   1.798   7.844 -0.4975  0.8377 -0.1287
 1037TIP3    H224675   3.134   1.794   7.945 -0.2395 -0.4892 -0.4448
 1038TIP3   OH224676   5.703   6.381   0.556 -0.5321  0.5108 -0.0711
 1038TIP3    H124677   5.701   6.457   0.615 -0.8316  0.8558 -0.5206
 1038TIP3    H224678   5.707   6.306   0.615 -1.1207  0.8381  0.3999
 1039TIP3   OH224679   3.874   4.538   1.002 -0.0671  0.5127 -0.2839
 1039TIP3    H124680   3.967   4.519   1.018  0.4704  1.5889 -1.8773
 1039TIP3    H224681   3.857   4.501   0.915 -0.8575  1.2058 -0.4360
 1040TIP3   OH224682   5.458   4.593   0.744  0.5644  0.8210 -0.0804
 1040TIP3    H124683   5.552   4.593   0.726  0.3503  1.6884 -1.3410
 1040TIP3    H224684   5.444   4.518   0.802  1.7079 -0.7002 -1.6930
 1041TIP3   OH224685   5.926   1.457   6.819  0.3932  0.0341  0.0905
 1041TIP3    H124686   5.859   1.399   6.855  0.2756  0.6233  0.8290
 1041TIP3    H224687   5.877   1.531   6.783  0.4706 -0.6891 -1.6326
 1042TIP3   OH224688   1.635   5.416   1.004  0.4409  0.5623 -0.2145
 1042TIP3    H124689   1.718   5.462   1.003  0.7899 -0.0573 -0.3094
 1042TIP3    H224690   1.648   5.341   0.947 -0.5437  1.0612 -1.1425
 1043TIP3   OH224691   1.172   0.534   2.316  0.0592  0.3661 -0.7115
 1043TIP3    H124692   1.215   0.617   2.293 -1.4028  0.9457 -1.5151
 1043TIP3    H224693   1.092   0.560   2.361  0.2645 -0.6717  0.2942
 1044TIP3   OH224694   1.809   6.035   1.425  0.4418  0.2784 -0.2723
 1044TIP3    H124695   1.835   5.943   1.437  1.8502  0.8068  1.0257
 1044TIP3    H224696   1.717   6.030   1.399 -0.3583 -1.4626  2.3699
 1045TIP3   OH224697   4.351   6.788   7.706 -0.8960  0.6270  0.1826
 1045TIP3    H124698   4.383   6.877   7.720  0.7728 -0.1108  1.2883
 1045TIP3    H224699   4.412   6.750   7.643 -1.1705  0.0388  0.2619
 1046TIP3   OH224700   5.427   3.298   1.844  0.0921  0.0042  0.4268
 1046TIP3    H124701   5.467   3.273   1.760 -1.6808 -0.9240 -0.1809
 1046TIP3    H224702   5.500   3.331   1.896  1.6749 -1.7591 -0.5633
 1047TIP3   OH224703   0.264   5.970   1.819 -0.0146  0.2605  0.1422
 1047TIP3    H124704   0.272   5.973   1.915 -1.4907 -2.4871  0.4555
 1047TIP3    H224705   0.337   6.023   1.787  2.9435 -1.8645  2.7422
 1048TIP3   OH224706   0.979   3.465   8.237  0.2013  0.2446 -0.4943
 1048TIP3    H124707   0.996   3.428   8.150 -1.1641 -0.7251 -0.3851
 1048TIP3    H224708   0.884   3.461   8.247  0.2490  1.2724  0.6583
 1049TIP3   OH224709   1.883   0.807   1.040 -0.9096  0.2390 -0.7945
 1049TIP3    H124710   1.848   0.718   1.040  0.1875 -0.2411  0.6318
 1049TIP3    H224711   1.971   0.798   1.003 -0.7296  0.6854 -0.4838
 1050TIP3   OH224712   4.613   0.462   0.407 -0.7914  0.0862 -0.4583
 1050TIP3    H124713   4.550   0.414   0.353 -0.5726  0.0737 -0.7074
 1050TIP3    H224714   4.598   0.554   0.385 -1.0056  0.1117 -0.2065
 1051TIP3   OH224715   0.778   0.970   0.514 -0.1190 -0.1676 -0.2802
 1051TIP3    H124716   0.791   0.883   0.478 -2.0911 -0.5634 -0.1029
 1051TIP3    H224717   0.779   0.957   0.609 -2.3608 -0.3602 -0.2402
 1052TIP3   OH224718   4.012   2.653   8.468  0.4647 -0.0429 -0.0655
 1052TIP3    H124719   4.066   2.656   8.547  0.4129  0.4840 -0.0463
 1052TIP3    H224720   4.044   2.725   8.414 -2.2222  2.4167  1.2973
 1053TIP3   OH224721   0.418   1.997   8.762 -0.1565 -0.0210 -0.4727
 1053TIP3    H124722   0.331   2.003   8.723 -0.1568  0.3629 -0.4120
 1053TIP3    H224723   0.436   2.085   8.796  0.6414  0.1453 -1.2903
 1054TIP3   OH224724   6.655   1.432   2.500 -0.0029  0.0726  0.4696
 1054TIP3    H124725   6.721   1.464   2.439  0.4871 -0.9121  0.4649
 1054TIP3    H224726   6.659   1.336   2.493 -2.1831 -0.0286 -0.3442
 1055TIP3   OH224727   1.666   4.718   1.603  0.2196  0.0304  0.3641
 1055TIP3    H124728   1.677   4.806   1.637  0.4381  0.2215 -0.2006
 1055TIP3    H224729   1.703   4.661   1.670  0.2853  0.3785  0.6226
 1056TIP3   OH224730   1.089   5.510   1.881  0.1736 -0.3257 -0.0621
 1056TIP3    H124731   1.031   5.435   1.872 -0.3468 -0.1511  1.5038
 1056TIP3    H224732   1.143   5.489   1.958  3.0167 -0.9901 -2.0738
 1057TIP3   OH224733   3.813   0.747   8.052  0.0583  0.3976 -0.1794
 1057TIP3    H124734   3.784   0.823   8.103 -0.5676  0.8680 -1.1866
 1057TIP3    H224735   3.741   0.684   8.061  0.5602 -0.0661  0.6238
 1058TIP3   OH224736   3.274   5.678   0.363 -0.3765 -0.1379 -0.2785
 1058TIP3    H124737   3.347   5.621   0.387 -0.2891 -0.5640 -1.4981
 1058TIP3    H224738   3.206   5.618   0.330 -0.0383  0.4716 -2.1975
 1059TIP3   OH224739   0.948   1.091   7.459 -0.5969  0.6645 -0.0189
 1059TIP3    H124740   0.955   1.137   7.375 -2.1345 -0.7969 -1.0138
 1059TIP3    H224741   0.874   1.134   7.503 -3.1039 -1.6761 -1.6341
 1060TIP3   OH224742   2.949   0.613   1.103  0.5141  0.1374  0.1557
 1060TIP3    H124743   2.880   0.677   1.082 -0.3085 -0.4984  0.8301
 1060TIP3    H224744   2.901   0.539   1.140  1.5374 -0.5205  0.1695
 1061TIP3   OH224745   1.407   0.857   1.673 -0.0148 -0.0995 -0.7343
 1061TIP3    H124746   1.490   0.811   1.688 -0.1319 -0.9129 -2.4107
 1061TIP3    H224747   1.418   0.941   1.719  0.6256 -1.2913  1.4640
 1062TIP3   OH224748   0.190   5.873   8.310  0.4546 -0.1228 -0.1325
 1062TIP3    H124749   0.251   5.944   8.328 -1.1098  1.0810  0.7221
 1062TIP3    H224750   0.210   5.807   8.376  0.4092  0.5425  0.5579
 1063TIP3   OH224751   4.818   4.435   1.697  0.4980 -0.0119 -0.0126
 1063TIP3    H124752   4.791   4.441   1.789 -0.0208 -0.3306 -0.1386
 1063TIP3    H224753   4.776   4.355   1.665 -3.3579  2.4591 -1.8682
 1064TIP3   OH224754   3.347   0.913   2.307 -0.1766  0.1662  0.0549
 1064TIP3    H124755   3.341   0.837   2.365  0.3862 -0.9289 -1.2728
 1064TIP3    H224756   3.421   0.964   2.341 -0.0279 -0.3129  0.4583
 1065TIP3   OH224757   1.357   2.969   7.853  0.4223  0.0168 -0.2583
 1065TIP3    H124758   1.362   3.003   7.764 -1.2967 -0.7923 -0.6993
 1065TIP3    H224759   1.401   2.885   7.849 -0.8224 -0.6374 -0.7004
 1066TIP3   OH224760   6.135   3.780   0.054 -0.2452  0.1217 -0.2808
 1066TIP3    H124761   6.090   3.748  -0.024 -3.8013  0.9548  1.2572
 1066TIP3    H224762   6.119   3.714   0.121 -1.0763  1.4287  0.8674
 1067TIP3   OH224763   4.271   1.966   8.546 -0.7858 -0.1558 -0.1214
 1067TIP3    H124764   4.240   2.002   8.463 -0.0580  1.0669  0.1129
 1067TIP3    H224765   4.191   1.947   8.595 -1.2068  0.3768 -0.5841
 1068TIP3   OH224766   0.535   2.018   8.519  0.1963 -0.4618  0.8761
 1068TIP3    H124767   0.490   2.020   8.603 -1.8306  0.5511 -0.1771
 1068TIP3    H224768   0.553   2.110   8.499 -0.6886 -0.5453 -0.4465
 1069TIP3   OH224769   2.932   0.959   1.234 -0.1817  0.1813 -0.0401
 1069TIP3    H124770   2.960   1.009   1.311 -1.1222  0.4726  0.1269
 1069TIP3    H224771   2.990   0.989   1.164  1.4841 -0.9453  0.7820
 1070TIP3   OH224772   1.707   4.936   7.867  0.1203  0.4561 -0.6551
 1070TIP3    H124773   1.688   4.903   7.955 -0.3751 -1.6740 -1.5228
 1070TIP3    H224774   1.729   4.858   7.816  0.3207  1.6388 -2.4589
 1071TIP3   OH224775   0.253   5.836   7.618  0.3123  0.7725 -0.3419
 1071TIP3    H124776   0.224   5.792   7.537  0.2478  1.2133 -0.5583
 1071TIP3    H224777   0.229   5.927   7.606  0.0344  0.7910  0.3051
 1072TIP3   OH224778   6.714   6.826   7.616 -0.3707  0.4510 -0.1480
 1072TIP3    H124779   6.768   6.901   7.588  1.3073 -0.1292  1.3463
 1072TIP3    H224780   6.758   6.750   7.577 -0.1521 -0.0176  0.9710
 1073TIP3   OH224781   3.433   5.122   8.227 -0.1296  0.4180 -0.4765
 1073TIP3    H124782   3.449   5.101   8.318  1.4908 -0.5600 -0.9496
 1073TIP3    H224783   3.481   5.203   8.211 -0.7992  0.8507 -0.3718
 1074TIP3   OH224784   6.597   4.280   0.740  0.2316 -0.0655  0.1762
 1074TIP3    H124785   6.504   4.261   0.754  0.6966 -1.3102  1.9802
 1074TIP3    H224786   6.616   4.350   0.803  0.4896  0.3419 -0.3459
 1075TIP3   OH224787   6.262   3.411   1.169 -0.6546 -0.8508  0.0187
 1075TIP3    H124788   6.322   3.449   1.105  0.1179 -1.0759  0.5852
 1075TIP3    H224789   6.286   3.453   1.252 -1.9883 -0.1769  0.0899
 1076TIP3   OH224790   5.054   6.727   6.898 -0.0451 -0.5375  0.4393
 1076TIP3    H124791   5.092   6.802   6.852  0.8526 -0.6336  0.9887
 1076TIP3    H224792   5.018   6.672   6.829 -2.0519  1.0849  0.1125
 1077TIP3   OH224793   3.846   4.055   6.537 -0.3592 -0.0212  0.1567
 1077TIP3    H124794   3.850   4.044   6.632  0.4637 -2.2650 -0.0854
 1077TIP3    H224795   3.853   3.966   6.502 -1.6764  0.6415 -1.9978
 1078TIP3   OH224796   2.929   5.465   1.526 -0.1936 -0.0343 -0.2937
 1078TIP3    H124797   3.017   5.469   1.489  0.3201  0.1155  0.8884
 1078TIP3    H224798   2.930   5.527   1.599 -0.8689 -0.9461  0.5343
 1079TIP3   OH224799   0.149   3.468   0.948  0.0892  0.8005 -0.2245
 1079TIP3    H124800   0.063   3.485   0.910 -0.8256 -1.4211  0.6771
 1079TIP3    H224801   0.133   3.462   1.042  0.9403 -0.9925 -0.1499
 1080TIP3   OH224802   0.874   3.210   1.269 -0.1802 -0.2832 -0.3615
 1080TIP3    H124803   0.844   3.202   1.359 -1.6890  0.5956 -0.7485
 1080TIP3    H224804   0.796   3.233   1.219  0.7401 -0.1037 -1.8019
 1081TIP3   OH224805   1.096   2.524   7.738  0.1059 -0.9583 -0.6011
 1081TIP3    H124806   1.055   2.586   7.799  0.5879 -0.5808 -0.6532
 1081TIP3    H224807   1.023   2.472   7.704 -0.1424 -1.3552  0.5000
 1082TIP3   OH224808   4.958   4.683   0.055 -0.3527  1.3121 -0.0218
 1082TIP3    H124809   4.935   4.756   0.112 -1.5166  2.4042 -1.7867
 1082TIP3    H224810   4.998   4.725  -0.022  1.0433 -0.0918 -0.1169
 1083TIP3   OH224811   6.662   2.109   8.353  0.1273 -0.1202  0.8599
 1083TIP3    H124812   6.593   2.077   8.412  2.0686 -1.1315  2.7231
 1083TIP3    H224813   6.646   2.203   8.346  0.1264  0.1410  3.4778
 1084TIP3   OH224814   4.518   2.920   1.751  0.3324 -0.0132 -0.1272
 1084TIP3    H124815   4.523   3.012   1.775 -2.1850  0.0339  0.4792
 1084TIP3    H224816   4.517   2.874   1.835  0.3190 -0.4968 -0.3895
 1085TIP3   OH224817   0.564   2.038   6.610  0.0121  0.5966 -0.0701
 1085TIP3    H124818   0.623   1.992   6.549  0.0944  0.3876  0.1671
 1085TIP3    H224819   0.484   1.987   6.608 -0.6411  1.6113 -1.3974
 1086TIP3   OH224820   3.602   4.840   8.609  0.0103  0.3629 -0.2037
 1086TIP3    H124821   3.539   4.788   8.659  1.2989 -0.0288  1.0982
 1086TIP3    H224822   3.551   4.913   8.575 -1.9050 -1.7229 -2.1591
 1087TIP3   OH224823   6.435   0.221   0.699  0.1187 -0.4195  0.4212
 1087TIP3    H124824   6.414   0.220   0.792  0.0121 -4.3423  0.5342
 1087TIP3    H224825   6.351   0.228   0.655 -0.0436 -0.8323  0.6624
 1088TIP3   OH224826   0.062   0.869   6.486 -0.5658  0.1653 -0.1613
 1088TIP3    H124827   0.075   0.818   6.566  2.0994  1.1097  0.0956
 1088TIP3    H224828   0.027   0.953   6.516  0.2661  0.4548  0.0220
 1089TIP3   OH224829   0.716   2.612   1.785  0.5248  0.4633  0.2138
 1089TIP3    H124830   0.662   2.672   1.733 -3.0012 -0.8311  2.0637
 1089TIP3    H224831   0.745   2.664   1.860  1.3985  0.9962 -0.4707
 1090TIP3   OH224832   4.480   3.927   8.686 -0.4381  0.5811 -0.0526
 1090TIP3    H124833   4.433   3.998   8.731 -0.1812  0.1945  0.8428
 1090TIP3    H224834   4.560   3.969   8.653  0.3408  0.4699  1.5788
 1091TIP3   OH224835   1.079   3.946   7.556 -0.2638 -0.2543 -0.0595
 1091TIP3    H124836   1.000   4.001   7.552 -0.0020  0.0520 -1.8033
 1091TIP3    H224837   1.050   3.865   7.600 -2.2853 -1.2336 -2.9188
 1092TIP3   OH224838   1.863   2.197   8.534  0.1192 -0.3913  1.0476
 1092TIP3    H124839   1.894   2.224   8.448  0.3822 -1.4968  0.7862
 1092TIP3    H224840   1.878   2.275   8.589 -1.3681  0.8173 -0.1722
 1093TIP3   OH224841   5.120   6.153   0.417  0.6195  0.8978  0.2689
 1093TIP3    H124842   5.112   6.195   0.503 -3.1682 -1.2101  1.1999
 1093TIP3    H224843   5.044   6.185   0.368  1.4566  0.3171 -1.4893
 1094TIP3   OH224844   0.327   5.439   2.203 -0.0944  0.0004 -0.0411
 1094TIP3    H124845   0.269   5.512   2.225 -0.5317 -0.0437 -0.9784
 1094TIP3    H224846   0.371   5.467   2.123  1.6828  0.2909  1.0002
 1095TIP3   OH224847   1.240   2.681   7.581 -0.8248  0.7511  0.9123
 1095TIP3    H124848   1.323   2.648   7.615 -1.2986 -0.3376  1.0432
 1095TIP3    H224849   1.175   2.656   7.647 -1.8597 -1.8439 -0.9223
 1096TIP3   OH224850   3.548   1.148   2.340 -0.0530  0.3992  0.4666
 1096TIP3    H124851   3.632   1.166   2.298 -0.5887  0.0681 -0.7849
 1096TIP3    H224852   3.503   1.232   2.339 -0.6438  0.0856 -0.9873
 1097TIP3   OH224853   1.542   6.458   1.847 -0.5182 -0.3805 -0.0223
 1097TIP3    H124854   1.526   6.369   1.879 -1.6272 -0.8046 -1.6341
 1097TIP3    H224855   1.496   6.514   1.910 -2.1914 -1.1462 -0.5044
 1098TIP3   OH224856   3.915   2.110   0.068 -0.5351 -0.1093  0.4624
 1098TIP3    H124857   3.982   2.138   0.130 -0.3487  1.5833 -0.4443
 1098TIP3    H224858   3.868   2.191   0.045 -0.0082 -0.4814 -2.2745
 1099TIP3   OH224859   5.587   2.857   0.572  0.1166  0.5448  0.1890
 1099TIP3    H124860   5.646   2.835   0.499 -0.4627  3.2390 -1.2228
 1099TIP3    H224861   5.520   2.788   0.570  0.0454  0.6023 -1.9378
 1100TIP3   OH224862   1.798   0.924   1.528  0.2152 -0.3408  0.1812
 1100TIP3    H124863   1.822   0.860   1.460 -2.2830 -1.4519  0.1922
 1100TIP3    H224864   1.872   0.926   1.588  0.7002 -2.7091 -0.2433
 1101TIP3   OH224865   6.617   2.576   7.428 -0.5527  0.4996  0.4009
 1101TIP3    H124866   6.617   2.612   7.517 -0.9307 -0.0810  0.6385
 1101TIP3    H224867   6.625   2.653   7.371  2.8359  0.7470  0.9639
 1102TIP3   OH224868   2.588   5.359   8.321 -0.2991  0.0788 -0.5340
 1102TIP3    H124869   2.588   5.265   8.336 -0.8554  0.2034  0.3179
 1102TIP3    H224870   2.606   5.397   8.407  0.0735  0.7508 -0.9014
 1103TIP3   OH224871   2.482   1.761   8.507 -0.4980  0.3790 -0.2150
 1103TIP3    H124872   2.541   1.686   8.516  0.8632  1.3910 -0.2704
 1103TIP3    H224873   2.407   1.727   8.458  1.2154 -0.4117 -2.5072
 1104TIP3   OH224874   3.531   0.715   1.423 -0.4812  0.3266 -0.0023
 1104TIP3    H124875   3.482   0.679   1.349  0.8540  1.0851 -1.3053
 1104TIP3    H224876   3.464   0.751   1.481 -1.5955 -0.9202 -0.4677
 1105TIP3   OH224877   5.176   6.671   0.618  0.2202  0.0893  0.0516
 1105TIP3    H124878   5.135   6.624   0.545  1.0801  0.5691 -0.7676
 1105TIP3    H224879   5.120   6.652   0.693 -0.2372 -1.0829 -0.5556
 1106TIP3   OH224880   6.772   2.703   1.999 -0.5246 -0.2279  0.4641
 1106TIP3    H124881   6.697   2.646   1.981  1.9340 -3.4492 -0.3823
 1106TIP3    H224882   6.799   2.679   2.087 -0.4018  0.9142  0.7583
 1107TIP3   OH224883   1.173   4.956   1.406 -0.2277 -0.1562  0.2213
 1107TIP3    H124884   1.264   4.986   1.401 -0.2272  0.3618  2.2630
 1107TIP3    H224885   1.179   4.861   1.394  0.3091  0.0716 -1.6602
 1108TIP3   OH224886   2.989   2.170   1.875 -0.0250  0.1050  0.9010
 1108TIP3    H124887   2.991   2.157   1.780 -1.1047 -5.5944  1.3215
 1108TIP3    H224888   2.897   2.185   1.895  0.1698  1.0542  1.1536
 1109TIP3   OH224889   4.690   0.456   1.474  0.6366  0.4621 -0.0897
 1109TIP3    H124890   4.737   0.537   1.454  0.8424  0.4136  0.1873
 1109TIP3    H224891   4.609   0.485   1.516  1.6310  0.4947  1.9434
 1110TIP3   OH224892   1.255   4.304   6.825 -0.4400 -0.1075 -0.3157
 1110TIP3    H124893   1.254   4.231   6.762  0.8083 -0.8421  0.4856
 1110TIP3    H224894   1.331   4.356   6.800 -0.1744 -0.1773  0.3356
 1111TIP3   OH224895   6.781   0.325   1.516  0.1822 -0.1048  0.4060
 1111TIP3    H124896   6.752   0.416   1.527  0.7902  0.2473 -0.7154
 1111TIP3    H224897   6.837   0.327   1.439 -0.1315 -1.5186  0.1087
 1112TIP3   OH224898   4.846   1.863   1.488 -0.1578 -0.3530  0.2606
 1112TIP3    H124899   4.792   1.795   1.529 -1.3477 -1.7660 -3.2784
 1112TIP3    H224900   4.878   1.822   1.408  2.0964  2.1609 -0.2226
 1113TIP3   OH224901   3.177   4.061   7.660  0.0732 -0.2690 -0.1073
 1113TIP3    H124902   3.233   4.094   7.730 -1.2776  0.2816  0.7452
 1113TIP3    H224903   3.120   3.997   7.702  0.7595 -1.6446 -1.1924
 1114TIP3   OH224904   5.976   0.397   6.970  0.3921 -0.2537  0.7008
 1114TIP3    H124905   6.051   0.384   6.912  0.3074 -1.2667  0.8039
 1114TIP3    H224906   6.005   0.365   7.055  0.2458  0.4877  1.0339
 1115TIP3   OH224907   0.324   4.634   6.986 -0.1194  0.3531 -0.6574
 1115TIP3    H124908   0.267   4.690   6.935 -1.1475 -2.7574 -3.2533
 1115TIP3    H224909   0.265   4.585   7.044  0.5810  0.8285  0.5107
 1116TIP3   OH224910   4.855   3.320   8.067 -0.0397  0.2170  0.4994
 1116TIP3    H124911   4.869   3.357   8.154  0.0593  0.4385  0.3909
 1116TIP3    H224912   4.925   3.257   8.056  0.5285  0.8833  0.2008
 1117TIP3   OH224913   2.514   4.458   1.319 -0.3987  0.0438  0.3504
 1117TIP3    H124914   2.540   4.465   1.411  0.0121  1.7742  0.1351
 1117TIP3    H224915   2.439   4.517   1.310 -0.1371  0.2676 -0.5135
 1118TIP3   OH224916   2.782   1.503   0.032  0.1420 -0.1332 -1.2424
 1118TIP3    H124917   2.775   1.564   0.105  0.2987 -2.2539  0.6740
 1118TIP3    H224918   2.865   1.525  -0.010  0.0982  1.0658 -0.7377
 1119TIP3   OH224919   5.775   2.547   8.149 -0.6326 -0.1299 -0.5090
 1119TIP3    H124920   5.688   2.542   8.188 -0.4323 -0.9169 -0.1435
 1119TIP3    H224921   5.835   2.522   8.219  0.1113  2.5317 -0.0703
 1120TIP3   OH224922   0.783   4.574   6.958 -0.1064 -0.3305 -1.1596
 1120TIP3    H124923   0.738   4.580   6.874  1.2534  0.3828 -1.8631
 1120TIP3    H224924   0.872   4.547   6.936  0.2984 -0.0256  0.0282
 1121TIP3   OH224925   4.918   6.106   8.684  0.2877  0.4681 -0.1518
 1121TIP3    H124926   4.914   6.108   8.780  1.4983 -0.1275 -0.0721
 1121TIP3    H224927   4.873   6.025   8.660  2.3466 -0.8149  0.1050
 1122TIP3   OH224928   2.796   6.400   1.583 -0.1482 -0.0890  0.2200
 1122TIP3    H124929   2.757   6.322   1.624  3.1754 -1.8983  0.3307
 1122TIP3    H224930   2.822   6.370   1.496 -1.7275  1.9726 -1.0422
 1123TIP3   OH224931   1.757   1.671   1.488  0.2367 -0.1350  0.9106
 1123TIP3    H124932   1.831   1.680   1.548  0.5884 -0.4573  0.5291
 1123TIP3    H224933   1.705   1.600   1.525 -1.1301  1.5678  2.4561
 1124TIP3   OH224934   6.801   5.276   1.823  0.2168  0.3049 -0.3174
 1124TIP3    H124935   6.742   5.315   1.758  1.0896  0.5260 -1.0100
 1124TIP3    H224936   6.743   5.241   1.891 -0.6186  3.1155  0.5405
 1125TIP3   OH224937   1.546   5.123   8.723  0.5001 -0.1375  0.6401
 1125TIP3    H124938   1.549   5.178   8.645 -0.2372 -0.5833  0.2807
 1125TIP3    H224939   1.519   5.037   8.690  0.8784 -0.5086  1.2926
 1126TIP3   OH224940   0.110   4.241   8.789  0.2431 -0.2977  0.0297
 1126TIP3    H124941   0.100   4.296   8.711  0.9320 -1.0169 -0.5897
 1126TIP3    H224942   0.115   4.303   8.862  1.8502  0.5284 -0.7323
 1127TIP3   OH224943   4.494   6.554   0.289  0.1697  0.2374  0.2853
 1127TIP3    H124944   4.549   6.582   0.362 -0.3538  2.6541 -0.1710
 1127TIP3    H224945   4.555   6.523   0.222  0.8663  1.2331  0.4564
 1128TIP3   OH224946   1.101   0.113   6.757 -0.6892 -1.0841 -0.5331
 1128TIP3    H124947   1.061   0.030   6.734 -0.5575 -1.3353  0.1188
 1128TIP3    H224948   1.071   0.130   6.847 -1.9089  0.2896 -1.1582
 1129TIP3   OH224949   1.195   2.977   8.072 -0.4028 -0.1092  0.1868
 1129TIP3    H124950   1.236   2.961   7.987  0.0746  3.8263 -0.5265
 1129TIP3    H224951   1.109   3.013   8.051 -0.2209  1.0703  1.2909
 1130TIP3   OH224952   0.838   6.536   8.702  0.3811 -0.4358 -0.1986
 1130TIP3    H124953   0.756   6.516   8.657  0.7561 -0.7009 -0.7847
 1130TIP3    H224954   0.894   6.460   8.684 -0.1463 -1.5657  2.5000
 1131TIP3   OH224955   2.970   5.497   7.825 -0.1551 -0.2078 -0.0417
 1131TIP3    H124956   2.950   5.405   7.806 -0.0559 -0.6721  1.8895
 1131TIP3    H224957   2.884   5.536   7.841 -0.3746  0.5325 -2.6498
 1132TIP3   OH224958   1.654   1.146   1.545 -0.5935  0.3075  0.2917
 1132TIP3    H124959   1.721   1.187   1.490 -3.3266  1.1253 -2.6914
 1132TIP3    H224960   1.686   1.057   1.559  0.9211  0.5429 -1.3865
 1133TIP3   OH224961   5.194   1.315   7.080  0.5437  0.3057 -0.3382
 1133TIP3    H124962   5.191   1.327   7.175 -2.2916  1.0180 -0.4285
 1133TIP3    H224963   5.207   1.403   7.045  1.6617  0.0337 -0.6491
 1134TIP3   OH224964   0.790   0.832   1.804  0.3154 -0.8639 -0.5963
 1134TIP3    H124965   0.861   0.893   1.784 -0.0718  0.5013  1.7309
 1134TIP3    H224966   0.833   0.763   1.854  0.4321 -1.5029 -1.5637
 1135TIP3   OH224967   6.406   0.580   8.513 -0.2393  0.5499  0.5222
 1135TIP3    H124968   6.330   0.573   8.454 -0.6342  0.3815  1.0492
 1135TIP3    H224969   6.442   0.492   8.516 -0.0956  0.6021  0.3761
 1136TIP3   OH224970   4.791   6.644   7.205 -0.0606 -0.0295  0.6462
 1136TIP3    H124971   4.728   6.586   7.248 -0.7115  0.5279  0.4618
 1136TIP3    H224972   4.739   6.720   7.177  0.0698 -0.9114 -2.2733
 1137TIP3   OH224973   3.927   2.279   1.199 -0.7668 -0.4305  0.5658
 1137TIP3    H124974   3.992   2.211   1.217  0.6549  0.9143  0.6590
 1137TIP3    H224975   3.887   2.253   1.116  1.2254 -0.3313 -0.4770
 1138TIP3   OH224976   5.832   5.925   2.022  0.5602  0.6011  0.1097
 1138TIP3    H124977   5.906   5.865   2.010  0.3348  0.5820 -1.3711
 1138TIP3    H224978   5.873   6.007   2.052  1.0407  0.2064  0.5481
 1139TIP3   OH224979   1.871   2.009   7.713  0.2405  0.1769 -0.1588
 1139TIP3    H124980   1.785   2.009   7.671  0.5544 -0.2719 -0.8103
 1139TIP3    H224981   1.853   1.990   7.805 -0.5768  2.4084  0.2059
 1140TIP3   OH224982   3.789   5.665   0.515 -0.1187 -0.1904 -0.2908
 1140TIP3    H124983   3.750   5.752   0.505  1.3224  0.8169  2.0089
 1140TIP3    H224984   3.876   5.673   0.476 -0.4659 -1.0450 -1.2861
 1141TIP3   OH224985   1.637   5.014   0.317 -0.5203 -0.3503 -0.9318
 1141TIP3    H124986   1.690   5.034   0.240 -0.4378 -1.5220 -1.1854
 1141TIP3    H224987   1.647   4.920   0.331 -0.5814 -0.1734  0.4804
 1142TIP3   OH224988   4.339   6.464   8.699 -0.9123 -0.5357  0.7838
 1142TIP3    H124989   4.261   6.410   8.714 -2.1251  0.7769 -0.4415
 1142TIP3    H224990   4.331   6.536   8.762 -1.9486  0.8269 -0.8268
 1143TIP3   OH224991   1.754   4.857   6.904  0.5140 -0.0883  0.0379
 1143TIP3    H124992   1.730   4.929   6.846 -0.1626 -0.0811  0.3198
 1143TIP3    H224993   1.835   4.822   6.866  1.4809  1.5251  0.5256
 1144TIP3   OH224994   1.469   3.670   0.657 -1.1022  0.1906 -0.3085
 1144TIP3    H124995   1.465   3.745   0.716 -3.4898  1.1023 -1.4775
 1144TIP3    H224996   1.452   3.594   0.714 -0.5061  0.7101  0.5907
 1145TIP3   OH224997   5.010   5.023   8.152  0.2525  0.2397  0.5209
 1145TIP3    H124998   5.046   5.111   8.139 -0.8341  0.6769  0.4132
 1145TIP3    H224999   5.059   4.968   8.091 -0.6349  1.1880 -1.1100
 1146TIP3   OH225000   5.319   4.797   7.229  0.4586 -0.6541  0.6078
 1146TIP3    H125001   5.324   4.702   7.240  0.7438 -0.6336  0.6652
 1146TIP3    H225002   5.235   4.821   7.268 -0.4935 -1.1148 -1.0363
 1147TIP3   OH225003   1.969   2.458   8.606  0.0551  0.2512 -0.2347
 1147TIP3    H125004   1.926   2.457   8.691 -0.2833 -1.2529 -0.3878
 1147TIP3    H225005   2.012   2.543   8.601 -1.3034  1.0171  0.7278
 1148TIP3   OH225006   6.460   3.155   7.859 -0.7935  0.1072 -0.4181
 1148TIP3    H125007   6.451   3.068   7.898 -0.4749 -0.3351 -1.3220
 1148TIP3    H225008   6.520   3.201   7.918 -1.3654 -0.0996  0.3487
 1149TIP3   OH225009   5.567   3.211   1.196  0.4128  0.3573 -0.7805
 1149TIP3    H125010   5.585   3.234   1.105 -0.9227  0.7524 -0.9637
 1149TIP3    H225011   5.547   3.295   1.238  1.1110  0.1895 -0.0874
 1150TIP3   OH225012   0.530   3.328   0.202 -0.4234  0.3852  0.1927
 1150TIP3    H125013   0.567   3.392   0.142 -2.0582  0.7881 -0.4355
 1150TIP3    H225014   0.557   3.243   0.167 -1.0971  0.6311 -0.9496
 1151TIP3   OH225015   4.739   5.861   0.770  0.1701 -0.0893 -0.3189
 1151TIP3    H125016   4.742   5.878   0.676 -0.5073  0.7654 -0.2022
 1151TIP3    H225017   4.831   5.863   0.798  0.2928  1.2615 -0.7111
 1152TIP3   OH225018   0.407   5.074   1.625  0.1248 -0.3791  0.5385
 1152TIP3    H125019   0.385   5.167   1.629  3.9936  0.6864  1.2836
 1152TIP3    H225020   0.363   5.035   1.701 -0.0709  1.2186  1.2731
 1153TIP3   OH225021   3.236   5.997   8.230 -0.1905 -0.1675  0.4002
 1153TIP3    H125022   3.317   6.032   8.267  0.7670 -1.7350 -0.1144
 1153TIP3    H225023   3.167   6.049   8.270  1.0228  0.6343  1.5271
 1154TIP3   OH225024   0.678   2.889   1.225 -0.2774  0.1231  0.1013
 1154TIP3    H125025   0.749   2.882   1.290 -0.2200  0.0149  0.0280
 1154TIP3    H225026   0.598   2.894   1.277 -0.1206  1.9107  0.2561
 1155TIP3   OH225027   5.622   5.185   7.247 -0.3264 -0.5390 -0.1551
 1155TIP3    H125028   5.654   5.191   7.157 -2.6090  1.8852 -0.9388
 1155TIP3    H225029   5.611   5.091   7.262  0.4897 -1.0227 -2.2682
 1156TIP3   OH225030   3.158   5.263   0.899 -0.6468 -0.0046  0.3960
 1156TIP3    H125031   3.125   5.352   0.911 -0.0260  0.3748 -0.5989
 1156TIP3    H225032   3.247   5.264   0.935 -0.8950 -0.4303  1.0495
 1157TIP3   OH225033   4.226   3.657   0.846  0.3422  0.3701  0.2128
 1157TIP3    H125034   4.276   3.737   0.861  2.5190 -0.9096  0.0858
 1157TIP3    H225035   4.168   3.651   0.923  0.0489  2.0802  0.1744
 1158TIP3   OH225036   1.981   6.493   0.104 -0.0769 -0.3773  0.5385
 1158TIP3    H125037   1.962   6.585   0.084 -2.4335 -0.9263 -0.0719
 1158TIP3    H225038   2.034   6.463   0.029 -0.0972  0.2363  0.2724
 1159TIP3   OH225039   0.782   3.962   0.034 -0.9789 -0.0105 -0.4625
 1159TIP3    H125040   0.718   4.011  -0.018 -0.7558  0.5650 -0.2113
 1159TIP3    H225041   0.796   4.017   0.112  1.5326  1.0704 -1.5435
 1160TIP3   OH225042   2.414   3.307   2.152  0.1923  0.0808  0.0030
 1160TIP3    H125043   2.434   3.225   2.197  0.9218  0.2705  0.0273
 1160TIP3    H225044   2.324   3.296   2.121  0.4340 -0.9028 -0.3753
 1161TIP3   OH225045   3.632   4.644   0.968  0.2641 -0.3952 -0.6553
 1161TIP3    H125046   3.700   4.591   0.926  1.0434  0.3305 -0.3332
 1161TIP3    H225047   3.672   4.730   0.981 -0.2095 -0.3710  0.8868
 1162TIP3   OH225048   2.480   0.953   0.854  0.2067  0.3974  0.5241
 1162TIP3    H125049   2.401   0.980   0.807 -1.2953  1.4881  3.4191
 1162TIP3    H225050   2.498   0.865   0.821 -1.9946  0.2467 -0.5126
 1163TIP3   OH225051   2.963   6.809   8.775  0.0045 -0.3381 -0.0311
 1163TIP3    H125052   2.946   6.808   8.869 -0.3612 -0.5155 -0.0986
 1163TIP3    H225053   2.879   6.788   8.735  0.2548 -0.6698 -0.3843
 1164TIP3   OH225054   5.313   0.410   0.395  0.2588 -0.3248  0.4376
 1164TIP3    H125055   5.258   0.460   0.456 -1.0814 -0.3018 -0.7294
 1164TIP3    H225056   5.402   0.438   0.414 -0.1731  0.0293  2.0516
 1165TIP3   OH225057   1.568   6.612   6.936 -0.2283  0.1290  0.0037
 1165TIP3    H125058   1.493   6.665   6.962 -0.5253 -0.6477  0.8031
 1165TIP3    H225059   1.635   6.675   6.910 -0.8180  0.8595  0.2390
 1166TIP3   OH225060   4.575   4.080   1.406 -0.6380 -0.3470  0.0973
 1166TIP3    H125061   4.603   3.989   1.402 -2.7401 -1.0132 -0.5278
 1166TIP3    H225062   4.594   4.114   1.318  2.4579  0.6364  1.0155
 1167TIP3   OH225063   0.786   2.887   7.706 -0.0279  1.0933  0.0983
 1167TIP3    H125064   0.748   2.808   7.667  0.0582  1.7927 -1.5030
 1167TIP3    H225065   0.720   2.918   7.768 -0.8696  0.7767 -0.6253
 1168TIP3   OH225066   5.400   3.723   1.438  0.3987  0.5962 -0.4437
 1168TIP3    H125067   5.438   3.808   1.459  0.6336  0.9147 -2.0457
 1168TIP3    H225068   5.471   3.660   1.454  0.6883  0.8664 -0.6639
 1169TIP3   OH225069   3.106   0.318   6.700 -0.0452 -0.0939 -0.1152
 1169TIP3    H125070   3.024   0.331   6.747 -0.8057  3.0456 -2.0365
 1169TIP3    H225071   3.081   0.270   6.620  0.3580 -0.7963  0.1657
 1170TIP3   OH225072   1.911   6.760   1.547  0.1806 -0.3626 -0.3384
 1170TIP3    H125073   1.881   6.685   1.598 -1.3046  1.6817  2.0243
 1170TIP3    H225074   1.999   6.778   1.582 -0.0057 -0.1810  0.0317
 1171TIP3   OH225075   2.749   5.419   0.545 -0.4592 -0.2498 -0.2015
 1171TIP3    H125076   2.749   5.509   0.576  0.0552 -0.6117  0.8750
 1171TIP3    H225077   2.805   5.372   0.606 -1.2581 -1.4442 -0.3499
 1172TIP3   OH225078   4.919   1.619   1.329  0.6574 -0.1623  0.0367
 1172TIP3    H125079   5.010   1.609   1.356  1.2243 -1.1734 -2.0283
 1172TIP3    H225080   4.873   1.547   1.372  0.7115  0.6285  1.4636
 1173TIP3   OH225081   2.453   0.734   6.528 -0.3153  0.3267  0.7086
 1173TIP3    H125082   2.411   0.662   6.481  0.7071 -1.0583  1.8368
 1173TIP3    H225083   2.422   0.725   6.618  0.5528  0.7188  1.0524
 1174TIP3   OH225084   3.700   5.677   1.903  0.0286 -0.6136  0.0410
 1174TIP3    H125085   3.644   5.721   1.967 -0.4543 -1.1141 -0.0375
 1174TIP3    H225086   3.751   5.615   1.955 -0.1525 -0.8120 -0.0187
 1175TIP3   OH225087   2.005   3.110   7.764  0.2863 -0.2691 -0.3986
 1175TIP3    H125088   1.921   3.156   7.761  0.2532 -0.1296  1.4097
 1175TIP3    H225089   1.982   3.018   7.755 -0.3459 -0.4266  1.9900
 1176TIP3   OH225090   4.533   0.719   0.377 -0.2907 -0.7565 -0.6388
 1176TIP3    H125091   4.534   0.793   0.437  1.4067 -0.6530 -0.7301
 1176TIP3    H225092   4.474   0.746   0.307  0.2316  0.4986 -0.6304
 1177TIP3   OH225093   0.785   5.174   0.217 -0.3432 -0.1883  0.1150
 1177TIP3    H125094   0.862   5.166   0.273 -1.5815 -0.3118  1.8756
 1177TIP3    H225095   0.779   5.090   0.172 -0.4339 -0.8330  1.3080
 1178TIP3   OH225096   4.317   4.690   0.880  0.3392  0.3582  0.0165
 1178TIP3    H125097   4.284   4.766   0.832  1.5528 -0.3700 -2.0579
 1178TIP3    H225098   4.399   4.719   0.919  0.5570  0.2650 -0.3680
 1179TIP3   OH225099   1.422   1.260   2.045 -0.1747  0.3726 -0.3765
 1179TIP3    H125100   1.341   1.310   2.034 -0.8847 -0.6203  0.0797
 1179TIP3    H225101   1.483   1.320   2.088 -0.4799  1.3085 -1.2304
 1180TIP3   OH225102   0.661   2.121   0.724  0.2304  0.5504  0.0553
 1180TIP3    H125103   0.720   2.166   0.784 -0.2102 -0.6451  1.4764
 1180TIP3    H225104   0.685   2.152   0.637  1.5921  1.5819  0.7699
 1181TIP3   OH225105   4.535   5.586   6.642  0.2086  0.1938  0.1211
 1181TIP3    H125106   4.553   5.678   6.621 -0.7881  0.1654 -0.9678
 1181TIP3    H225107   4.621   5.547   6.652  0.6701  1.0367 -0.3912
 1182TIP3   OH225108   1.189   6.689   8.299  0.1211  0.4473 -0.4656
 1182TIP3    H125109   1.143   6.690   8.383  1.5520  0.7126  0.3450
 1182TIP3    H225110   1.165   6.605   8.260  0.1992 -0.1251  0.6613
 1183TIP3   OH225111   4.042   3.831   8.358  0.6406  0.0145  0.4711
 1183TIP3    H125112   4.011   3.863   8.274  1.1740 -0.9880 -0.1218
 1183TIP3    H225113   4.137   3.827   8.349  0.6298 -1.2446  0.6861
 1184TIP3   OH225114   6.329   2.615   8.349  0.4380 -0.2097  0.0494
 1184TIP3    H125115   6.308   2.636   8.440  0.2255 -0.6038  0.0930
 1184TIP3    H225116   6.334   2.700   8.305 -1.9669 -0.0723 -0.1219
 1185TIP3   OH225117   2.486   2.159   0.325  0.0981 -0.0597  0.2039
 1185TIP3    H125118   2.561   2.217   0.338 -0.2411  0.4064  0.0859
 1185TIP3    H225119   2.412   2.206   0.362  0.0269 -0.9498  1.2490
 1186TIP3   OH225120   5.084   3.114   0.013 -0.1359 -0.0764  0.4778
 1186TIP3    H125121   5.027   3.086   0.085 -0.2078  0.6138  0.6992
 1186TIP3    H225122   5.123   3.196   0.044 -1.5683  1.2464 -0.9716
 1187TIP3   OH225123   1.864   6.775   7.266  0.5001  0.0666 -0.4001
 1187TIP3    H125124   1.809   6.703   7.296 -0.6763  0.8073 -0.6866
 1187TIP3    H225125   1.872   6.832   7.343  0.4086  0.2291 -0.5108
 1188TIP3   OH225126   1.397   3.037   8.594 -0.2367  0.0872 -0.9556
 1188TIP3    H125127   1.418   3.130   8.588  2.4561 -0.3286  0.5728
 1188TIP3    H225128   1.461   2.994   8.537 -1.0089 -0.8988 -1.1046
 1189TIP3   OH225129   4.050   0.914   0.005 -0.1065  0.1676  0.3026
 1189TIP3    H125130   4.010   1.001   0.010 -1.0765 -0.3276  1.9551
 1189TIP3    H225131   4.132   0.923   0.053  0.4665  0.4911 -0.7101
 1190TIP3   OH225132   4.664   1.657   6.640  0.9236 -0.0007 -0.3183
 1190TIP3    H125133   4.742   1.687   6.594  1.6756  0.9217  1.4261
 1190TIP3    H225134   4.635   1.579   6.592  2.3455  0.2004 -1.5629
 1191TIP3   OH225135   2.599   5.272   1.661 -0.4472 -0.3165  0.3517
 1191TIP3    H125136   2.672   5.221   1.627 -1.2061  0.2377 -2.2965
 1191TIP3    H225137   2.560   5.216   1.728  3.6706  0.2663  3.7119
 1192TIP3   OH225138   1.611   5.077   8.436 -0.3229  0.2925  0.1966
 1192TIP3    H125139   1.671   5.003   8.420 -0.7027 -0.3801  1.7117
 1192TIP3    H225140   1.532   5.054   8.387 -0.8146 -0.8576  1.4437
 1193TIP3   OH225141   2.158   5.964   6.695 -0.1526  0.0744  0.2110
 1193TIP3    H125142   2.185   5.887   6.746 -0.2791 -1.0323 -1.3288
 1193TIP3    H225143   2.073   5.988   6.730 -1.2923 -2.0753 -0.9223
 1194TIP3   OH225144   3.182   2.179   6.505 -0.1227  0.0170  0.5610
 1194TIP3    H125145   3.229   2.161   6.423 -1.8510 -0.2641 -0.4328
 1194TIP3    H225146   3.133   2.099   6.521  0.1290  0.1114  1.8489
 1195TIP3   OH225147   0.847   6.348   1.105 -0.4224 -0.0644  0.3480
 1195TIP3    H125148   0.821   6.372   1.194 -1.8483 -1.3320  0.3074
 1195TIP3    H225149   0.804   6.413   1.050  1.3816  1.4206  0.6011
 1196TIP3   OH225150   5.882   6.408   8.589  0.1811 -0.2789  0.0741
 1196TIP3    H125151   5.831   6.371   8.660  1.6885  0.5846  1.6843
 1196TIP3    H225152   5.842   6.493   8.572  0.8544  0.2699  1.1318
 1197TIP3   OH225153   2.920   0.432   0.286  0.3649 -0.3596  0.4109
 1197TIP3    H125154   2.934   0.455   0.378 -0.3510  0.5448  0.3068
 1197TIP3    H225155   2.845   0.372   0.287 -0.3547  0.5168  0.3358
 1198TIP3   OH225156   6.424   4.026   0.251  0.7237 -0.0249 -0.2556
 1198TIP3    H125157   6.413   4.109   0.204  2.3958 -0.2297 -1.0833
 1198TIP3    H225158   6.465   4.050   0.334  0.5537  0.0400 -0.1898
 1199TIP3   OH225159   3.166   5.807   0.059  0.3584 -0.1082 -0.3639
 1199TIP3    H125160   3.097   5.758   0.102 -0.0287  1.6596  1.1625
 1199TIP3    H225161   3.231   5.742   0.034 -0.5232 -1.4653  0.7917
 1200TIP3   OH225162   2.544   6.481   1.452  0.1835  0.0521  0.0719
 1200TIP3    H125163   2.555   6.387   1.466  0.8431 -0.2444 -2.0948
 1200TIP3    H225164   2.626   6.520   1.484  0.8012 -0.3774 -0.9193
 1201TIP3   OH225165   4.106   5.274   7.578  0.4952  0.0698 -0.3231
 1201TIP3    H125166   4.147   5.298   7.495 -1.6910  1.8337 -1.0137
 1201TIP3    H225167   4.023   5.234   7.552 -1.0549  2.2581  0.9359
 1202TIP3   OH225168   5.103   4.047   8.325 -0.0711 -0.0358 -0.5255
 1202TIP3    H125169   5.147   3.977   8.278  0.0483  0.5379 -1.2956
 1202TIP3    H225170   5.011   4.036   8.303  0.1941  1.6493 -2.9489
 1203TIP3   OH225171   3.456   2.847   0.840 -0.6713 -0.1214 -0.0961
 1203TIP3    H125172   3.476   2.824   0.931  1.2182  2.3100  0.1994
 1203TIP3    H225173   3.479   2.940   0.833 -0.7398 -0.2384 -3.0757
 1204TIP3   OH225174   3.437   5.523   1.002  0.6213  0.2172  0.6150
 1204TIP3    H125175   3.488   5.466   1.060 -0.3594 -0.1032  1.1985
 1204TIP3    H225176   3.411   5.465   0.930 -1.7935 -0.6253  2.0314
 1205TIP3   OH225177   0.962   5.008   1.220  0.9151  0.1805  0.4796
 1205TIP3    H125178   1.010   5.087   1.195  0.3419  0.5497  0.5232
 1205TIP3    H225179   1.020   4.963   1.281  1.7762 -0.0718 -0.4933
 1206TIP3   OH225180   1.469   5.067   2.225  0.2658  0.0070 -0.3908
 1206TIP3    H125181   1.520   4.995   2.188 -3.4433 -3.4528  0.5660
 1206TIP3    H225182   1.393   5.074   2.168 -1.1728  0.7540  1.5235
 1207TIP3   OH225183   1.856   6.165   7.957 -0.2483  0.0772  0.4916
 1207TIP3    H125184   1.851   6.200   8.046  0.0579 -0.5338  0.7511
 1207TIP3    H225185   1.949   6.167   7.936 -0.1022 -1.4738  0.8793
 1208TIP3   OH225186   3.891   3.902   7.261  0.0448 -0.0990 -0.3528
 1208TIP3    H125187   3.827   3.869   7.324  0.2808  2.2593  1.2303
 1208TIP3    H225188   3.945   3.825   7.239 -1.2399 -1.3928  0.8192
 1209TIP3   OH225189   4.958   4.257   1.131  0.0085 -0.6085  0.4537
 1209TIP3    H125190   5.040   4.241   1.177  0.0973  0.2461  0.6138
 1209TIP3    H225191   4.906   4.307   1.194  0.3588  1.1146 -0.5735
 1210TIP3   OH225192   0.502   2.063   2.473 -0.4738  0.3015 -0.1018
 1210TIP3    H125193   0.479   2.155   2.491 -1.8886  0.7355 -3.3637
 1210TIP3    H225194   0.426   2.029   2.426  0.5719 -2.1798 -0.0995
 1211TIP3   OH225195   6.054   3.271   1.051 -0.0548 -0.4266 -0.9506
 1211TIP3    H125196   6.103   3.322   1.114  0.3190 -0.9203 -0.8341
 1211TIP3    H225197   6.098   3.186   1.049 -1.3568 -1.1697 -0.2467
 1212TIP3   OH225198   5.819   2.743   7.739  0.3271  0.2516 -0.3800
 1212TIP3    H125199   5.755   2.813   7.726 -0.5846 -0.4399  0.2751
 1212TIP3    H225200   5.767   2.662   7.739  1.3119 -0.4002 -0.7357
 1213TIP3   OH225201   4.306   2.998   0.711 -0.4968  0.7880  0.4430
 1213TIP3    H125202   4.328   2.909   0.684  2.8963  1.5960  0.1286
 1213TIP3    H225203   4.312   2.996   0.807  4.0241  1.4875  0.3588
 1214TIP3   OH225204   0.837   6.011   1.399 -0.1666 -0.2732  0.1134
 1214TIP3    H125205   0.875   6.094   1.371 -0.7957  0.0519  0.1861
 1214TIP3    H225206   0.912   5.955   1.419  0.2735 -0.0524 -0.8826
 1215TIP3   OH225207   3.816   6.119   0.158  0.3204 -0.4004 -0.1334
 1215TIP3    H125208   3.745   6.139   0.219  1.9291  0.8533  1.4015
 1215TIP3    H225209   3.823   6.197   0.103  0.2651 -0.6867 -0.5517
 1216TIP3   OH225210   0.173   2.930   8.135 -0.0220 -0.3626 -0.0617
 1216TIP3    H125211   0.158   2.990   8.208  1.6561 -0.8018  0.6661
 1216TIP3    H225212   0.098   2.870   8.137 -0.5749  0.3342  0.5613
 1217TIP3   OH225213   4.379   1.247   0.414 -0.2880 -0.1255 -0.3849
 1217TIP3    H125214   4.435   1.305   0.466  0.6592 -0.4489 -1.0237
 1217TIP3    H225215   4.293   1.254   0.456  0.3592 -0.0969  0.9936
 1218TIP3   OH225216   6.171   4.716   0.921 -0.1980  0.1829 -0.0734
 1218TIP3    H125217   6.186   4.680   0.834 -0.6580  0.0522 -0.1019
 1218TIP3    H225218   6.195   4.808   0.914 -0.6681  0.2810 -0.4672
 1219TIP3   OH225219   2.284   5.229   1.410 -0.4599  0.0531 -0.1453
 1219TIP3    H125220   2.290   5.180   1.492 -0.8212  2.5091  1.4744
 1219TIP3    H225221   2.208   5.191   1.365  0.7932 -2.5264 -0.2770
 1220TIP3   OH225222   3.781   3.984   6.993  0.2480  0.2061  0.4638
 1220TIP3    H125223   3.757   4.047   6.926 -1.8237  0.1526  1.0686
 1220TIP3    H225224   3.849   4.027   7.044  0.2113  1.1718 -0.2889
 1221TIP3   OH225225   3.898   2.086   1.867 -0.0117 -0.5904 -0.2411
 1221TIP3    H125226   3.904   2.033   1.946  0.6460  1.7686  1.3883
 1221TIP3    H225227   3.923   2.027   1.796  0.6447 -2.4259  1.4391
 1222TIP3   OH225228   4.441   5.584   1.956  0.3792  0.5264  0.3210
 1222TIP3    H125229   4.392   5.527   2.016  0.4974  1.0884  0.9660
 1222TIP3    H225230   4.380   5.655   1.935  0.5968  0.7326  0.3809
 1223TIP3   OH225231   5.252   0.166   7.673 -0.0721  0.1706 -0.0688
 1223TIP3    H125232   5.304   0.142   7.597 -1.6105  0.2669 -1.2037
 1223TIP3    H225233   5.175   0.209   7.637 -1.4776 -0.9212  1.4630
 1224TIP3   OH225234   1.858   5.384   8.816 -0.2269 -0.2568  0.0534
 1224TIP3    H125235   1.876   5.429   8.733 -0.9064  2.0089  1.0495
 1224TIP3    H225236   1.936   5.398   8.869 -0.4721 -0.1925  0.4012
 1225TIP3   OH225237   0.493   3.141   6.844  0.1174  0.5098 -0.3490
 1225TIP3    H125238   0.415   3.102   6.806 -0.0075  0.7566 -0.3436
 1225TIP3    H225239   0.561   3.130   6.777 -0.2807  1.6102 -0.9499
 1226TIP3   OH225240   6.379   0.005   8.495  0.1523  0.4901  0.2657
 1226TIP3    H125241   6.417  -0.062   8.438  0.6349  1.0075 -0.0293
 1226TIP3    H225242   6.387  -0.032   8.583  0.7969  0.3336  0.1461
 1227TIP3   OH225243   0.020   5.646   7.072  0.1040  0.3580 -0.3425
 1227TIP3    H125244   0.101   5.697   7.071 -0.2366  0.9048 -0.4602
 1227TIP3    H225245   0.036   5.578   7.137  0.8186  0.1900 -0.6825
 1228TIP3   OH225246   2.347   0.395   8.492  0.0977  0.2218 -0.6729
 1228TIP3    H125247   2.337   0.412   8.586 -0.1894 -0.3364 -0.6002
 1228TIP3    H225248   2.259   0.411   8.456  0.4676  1.5868 -1.0405
 1229TIP3   OH225249   3.641   1.378   6.977  0.3236  0.3841 -0.2415
 1229TIP3    H125250   3.721   1.376   6.924  0.6187 -0.3036  0.2151
 1229TIP3    H225251   3.632   1.288   7.010  0.5571  0.9567  1.4711
 1230TIP3   OH225252   6.582   4.811   6.399  0.0223  0.1358  0.0933
 1230TIP3    H125253   6.665   4.799   6.446 -0.1557  0.2024  0.4295
 1230TIP3    H225254   6.534   4.876   6.451 -0.4280 -0.2420  0.1594
 1231TIP3   OH225255   5.563   0.759   0.783  0.1333  0.3165 -0.3388
 1231TIP3    H125256   5.571   0.674   0.739  0.1057 -0.0358  0.3355
 1231TIP3    H225257   5.472   0.763   0.814  0.7619 -0.4699  1.7559
 1232TIP3   OH225258   0.729   4.596   7.909  0.3158 -0.2806 -0.1172
 1232TIP3    H125259   0.791   4.668   7.900  0.1209  0.2074  2.0332
 1232TIP3    H225260   0.646   4.632   7.877  0.6554 -0.2413 -0.9797
 1233TIP3   OH225261   5.410   2.470   2.018 -0.3608 -0.1139  0.1336
 1233TIP3    H125262   5.482   2.427   2.065  0.1355 -1.0364 -1.3789
 1233TIP3    H225263   5.368   2.398   1.969 -0.4711  0.8650 -1.2745
 1234TIP3   OH225264   3.332   4.482   0.441  0.4080 -0.2801 -0.5702
 1234TIP3    H125265   3.399   4.515   0.381  1.2671 -0.5129  0.2324
 1234TIP3    H225266   3.361   4.392   0.462  0.4323 -0.0203  0.5976
 1235TIP3   OH225267   4.123   4.399   1.679 -0.2605 -0.2797  0.3126
 1235TIP3    H125268   4.145   4.482   1.636 -0.2151 -1.0121 -1.1607
 1235TIP3    H225269   4.035   4.412   1.712 -0.6622  0.0252 -0.8280
 1236TIP3   OH225270   3.442   0.382   7.836  0.0235 -0.1108  0.3493
 1236TIP3    H125271   3.409   0.407   7.750  1.6310  1.7632  0.2066
 1236TIP3    H225272   3.431   0.287   7.840 -0.5062 -0.1757 -1.7233
 1237TIP3   OH225273   0.020   1.943   1.160  0.0329 -0.0931 -0.2371
 1237TIP3    H125274  -0.029   1.937   1.078 -0.1578  1.9844 -0.3276
 1237TIP3    H225275   0.000   1.861   1.206 -0.5650 -0.9062 -1.8530
 1238TIP3   OH225276   3.305   2.841   1.238 -0.3377  0.1075 -0.4141
 1238TIP3    H125277   3.351   2.912   1.194 -0.9917  0.4830 -0.5144
 1238TIP3    H225278   3.371   2.774   1.252  0.2226  0.6181 -0.5832
 1239TIP3   OH225279   5.911   4.552   0.110 -0.4200 -0.0548 -0.2417
 1239TIP3    H125280   5.865   4.581   0.189 -0.9266 -3.7404  1.0090
 1239TIP3    H225281   5.997   4.522   0.141 -0.0897 -0.3098 -1.3282
 1240TIP3   OH225282   5.291   3.423   8.711 -0.2260  0.1765 -0.3435
 1240TIP3    H125283   5.308   3.336   8.674  2.4548 -0.1385  1.3693
 1240TIP3    H225284   5.307   3.483   8.639  1.5518 -0.5972 -0.6507
 1241TIP3   OH225285   5.587   2.352   2.206 -0.3243  0.4230  0.5666
 1241TIP3    H125286   5.666   2.299   2.200  0.7235  2.0502 -1.9502
 1241TIP3    H225287   5.561   2.347   2.298  0.4913 -3.1787  0.7465
 1242TIP3   OH225288   4.239   5.509   0.723  0.5189  0.7982 -0.1949
 1242TIP3    H125289   4.148   5.487   0.741  0.8551 -0.4398  0.1076
 1242TIP3    H225290   4.285   5.489   0.804  1.2515  0.2137 -0.7422
 1243TIP3   OH225291   1.192   3.891   8.601 -0.0687 -0.1460  0.6872
 1243TIP3    H125292   1.198   3.807   8.647 -1.4326  0.0948  1.3397
 1243TIP3    H225293   1.266   3.890   8.540 -0.5290 -2.2087  0.0749
 1244TIP3   OH225294   6.063   3.156   0.006  0.1262 -0.3707  0.3188
 1244TIP3    H125295   6.057   3.245  -0.031  1.3554 -0.1943  0.5053
 1244TIP3    H225296   5.972   3.128   0.014 -0.3193  1.1012  0.8059
 1245TIP3   OH225297   5.898   0.240   8.213  0.6263  0.1811 -0.0446
 1245TIP3    H125298   5.909   0.147   8.230  0.5617  0.2869  0.6282
 1245TIP3    H225299   5.980   0.280   8.241  0.1998  0.4618  0.8495
 1246TIP3   OH225300   3.711   5.274   8.327  0.2499 -0.1074  0.0138
 1246TIP3    H125301   3.802   5.261   8.353  0.3520  0.6017  0.0188
 1246TIP3    H225302   3.668   5.307   8.405  0.0185 -0.2852 -0.0357
 1247TIP3   OH225303   6.157   3.278   7.175  0.3268 -0.6228  0.0502
 1247TIP3    H125304   6.110   3.304   7.096  3.3877  4.4086 -0.5689
 1247TIP3    H225305   6.119   3.332   7.244  3.6529  2.2859 -0.1453
 1248TIP3   OH225306   4.637   0.569   8.817  0.1355  0.1467  0.4600
 1248TIP3    H125307   4.620   0.640   8.879 -0.3277 -1.3021  2.0407
 1248TIP3    H225308   4.626   0.489   8.867  2.0918 -1.0682 -0.9000
 1249TIP3   OH225309   3.636   4.766   1.327  0.4406  0.1531  0.2952
 1249TIP3    H125310   3.695   4.695   1.302 -0.2831 -0.4108  0.1383
 1249TIP3    H225311   3.625   4.817   1.247  0.2390 -0.1030  0.1548
 1250TIP3   OH225312   5.023   4.182   1.559  1.1445 -0.0922 -0.0137
 1250TIP3    H125313   5.007   4.263   1.512  0.3814 -0.6875 -0.8221
 1250TIP3    H225314   5.025   4.207   1.651  4.1010  1.3340 -0.3433
 1251TIP3   OH225315   1.694   4.288   0.662 -0.6826 -0.3606 -0.0125
 1251TIP3    H125316   1.665   4.359   0.605  0.1183  1.3821  1.6302
 1251TIP3    H225317   1.627   4.282   0.730 -1.4994 -2.2501 -0.8927
 1252TIP3   OH225318   3.245   2.063   7.233  0.2810  0.4427 -0.2610
 1252TIP3    H125319   3.227   1.971   7.213 -1.9660  0.7277  0.2005
 1252TIP3    H225320   3.305   2.091   7.164 -0.5960 -0.8539 -1.6027
 1253TIP3   OH225321   5.761   3.223   7.258 -0.3967 -0.0998 -0.2937
 1253TIP3    H125322   5.677   3.226   7.305  0.5257 -2.0529  1.6777
 1253TIP3    H225323   5.741   3.259   7.172 -3.1355  0.0114  0.2749
 1254TIP3   OH225324   0.129   0.912   8.101  0.1361 -0.2925 -0.5344
 1254TIP3    H125325   0.176   0.892   8.021  0.2965 -0.7027 -0.3388
 1254TIP3    H225326   0.056   0.850   8.103  0.5134 -0.7250 -0.0345
 1255TIP3   OH225327   3.720   3.884   8.468 -0.0746  0.0309 -0.3499
 1255TIP3    H125328   3.722   3.853   8.377 -0.3141  1.4075 -0.8547
 1255TIP3    H225329   3.643   3.942   8.472  0.7839  1.1712  0.3044
 1256TIP3   OH225330   4.184   1.043   8.571  0.1322  0.2337 -0.6091
 1256TIP3    H125331   4.136   1.068   8.493  1.3299  0.8464 -1.1685
 1256TIP3    H225332   4.123   0.987   8.619 -1.8828  2.4711 -0.3363
 1257TIP3   OH225333   5.526   0.749   0.376  0.2925 -0.1965 -0.1487
 1257TIP3    H125334   5.560   0.756   0.465  0.3567 -2.2035  0.0291
 1257TIP3    H225335   5.544   0.658   0.350 -1.8635 -0.3796 -1.2935
 1258TIP3   OH225336   1.786   5.601   7.457  0.0998  0.8370 -0.2751
 1258TIP3    H125337   1.725   5.646   7.516  0.1009  1.3215 -0.6315
 1258TIP3    H225338   1.850   5.668   7.433  1.3768  0.0834  0.8784
 1259TIP3   OH225339   4.350   2.505   8.152  0.1876 -0.2149  0.2291
 1259TIP3    H125340   4.351   2.577   8.088  1.2706 -0.5073 -0.1042
 1259TIP3    H225341   4.423   2.450   8.126  0.8265 -0.1959  1.9042
 1260TIP3   OH225342   5.174   6.687   0.116 -0.8409 -0.1275 -0.0664
 1260TIP3    H125343   5.150   6.776   0.144  2.1865  0.7354  0.1534
 1260TIP3    H225344   5.199   6.696   0.024  2.4824  0.0740  0.7061
 1261TIP3   OH225345   4.265   5.251   8.525  0.2915 -0.4310 -0.3692
 1261TIP3    H125346   4.360   5.253   8.527  0.3324  2.4506 -1.0878
 1261TIP3    H225347   4.240   5.221   8.613  1.8260 -1.0580 -0.1208
 1262TIP3   OH225348   6.606   1.133   8.702  0.2787 -0.2900  0.3592
 1262TIP3    H125349   6.548   1.120   8.626 -1.0355 -0.5950  1.3735
 1262TIP3    H225350   6.609   1.047   8.744  1.4579 -0.2621  0.3514
 1263TIP3   OH225351   3.129   6.734   6.335  0.3313  0.2621  0.0099
 1263TIP3    H125352   3.206   6.768   6.381  1.8465  0.8890 -2.7380
 1263TIP3    H225353   3.076   6.693   6.403  2.5298  0.8242  2.2029
 1264TIP3   OH225354   4.556   5.578   1.621 -0.2598 -0.2225  0.4948
 1264TIP3    H125355   4.518   5.524   1.691  3.2426 -1.7744  1.4035
 1264TIP3    H225356   4.597   5.651   1.666  0.2655 -0.1322 -0.1085
 1265TIP3   OH225357   0.637   0.129   2.049  0.2921 -0.3662 -0.2938
 1265TIP3    H125358   0.665   0.122   2.140  1.2809 -0.2888 -0.5870
 1265TIP3    H225359   0.718   0.127   1.998 -0.1585  0.9035 -1.1090
 1266TIP3   OH225360   2.527   4.712   0.007  0.3812 -0.5689 -0.7048
 1266TIP3    H125361   2.529   4.698  -0.087  0.5400  0.7083 -0.9149
 1266TIP3    H225362   2.572   4.795   0.020 -1.4683  0.3563  0.2749
 1267TIP3   OH225363   0.978   3.072   7.896  0.0858  0.1420  0.1461
 1267TIP3    H125364   1.020   3.059   7.811 -0.9475 -0.3331 -0.3125
 1267TIP3    H225365   0.897   3.119   7.876 -1.8630 -2.8362  0.3942
 1268TIP3   OH225366   2.025   1.237   0.740  0.1429 -0.2769 -0.0986
 1268TIP3    H125367   2.042   1.331   0.740  1.6145 -0.5114 -1.7172
 1268TIP3    H225368   1.929   1.231   0.748 -0.2389  1.4495 -2.2443
 1269TIP3   OH225369   5.250   2.263   1.147 -0.5035 -0.4017 -0.2991
 1269TIP3    H125370   5.172   2.210   1.134 -0.8645  0.1305 -0.3396
 1269TIP3    H225371   5.306   2.210   1.204 -0.3149 -1.3522 -1.3280
 1270TIP3   OH225372   0.789   4.388   1.584  0.6573  0.0814  0.0181
 1270TIP3    H125373   0.744   4.333   1.520  1.0822 -0.9553  0.5729
 1270TIP3    H225374   0.755   4.359   1.669  1.5558  0.0334  0.3769
 1271TIP3   OH225375   0.453   0.325   7.826 -0.0277 -0.1127  0.2759
 1271TIP3    H125376   0.484   0.400   7.876 -3.1164  0.3384  1.6997
 1271TIP3    H225377   0.451   0.253   7.889 -2.3878  0.0511  0.4450
 1272TIP3   OH225378   5.121   4.872   0.302 -0.2249 -0.2269 -0.6823
 1272TIP3    H125379   5.101   4.855   0.394  1.2947  0.2062 -0.2354
 1272TIP3    H225380   5.046   4.921   0.269 -0.5453  0.0818  0.4734
 1273TIP3   OH225381   6.103   5.011   8.340  0.2582 -0.3236  0.2126
 1273TIP3    H125382   6.091   4.918   8.361  2.2010 -0.5996  0.3092
 1273TIP3    H225383   6.197   5.019   8.321 -0.0788  1.4061 -0.9277
 1274TIP3   OH225384   1.471   4.874   0.628  0.0737  0.5477 -0.2259
 1274TIP3    H125385   1.536   4.852   0.561  0.6130  0.8910  0.1745
 1274TIP3    H225386   1.387   4.871   0.582  0.4214  0.6171 -0.8776
 1275TIP3   OH225387   1.196   4.957   6.446 -0.1948 -0.1287  0.4804
 1275TIP3    H125388   1.134   4.886   6.432 -2.0071  1.4177  0.1779
 1275TIP3    H225389   1.264   4.943   6.381 -0.3657 -1.7253  0.6192
 1276TIP3   OH225390   1.475   4.694   8.385  0.1201 -0.9573  0.3142
 1276TIP3    H125391   1.492   4.653   8.470  0.4585 -3.1809 -0.7656
 1276TIP3    H225392   1.429   4.628   8.335  0.9287 -0.1117 -1.6329
 1277TIP3   OH225393   5.737   6.188   2.197  0.7919 -0.1269 -0.4561
 1277TIP3    H125394   5.779   6.110   2.233 -1.0092 -0.2685  1.5821
 1277TIP3    H225395   5.765   6.259   2.255  0.3050  0.2325 -0.6515
 1278TIP3   OH225396   6.323   4.975   0.919  0.2584  0.1773  0.3938
 1278TIP3    H125397   6.343   4.965   1.012  1.7148  0.2174  0.1124
 1278TIP3    H225398   6.398   5.023   0.883 -0.5488  0.6772 -0.6971
 1279TIP3   OH225399   0.462   0.663   0.123  0.1118 -0.1050  0.2021
 1279TIP3    H125400   0.422   0.736   0.171 -0.4591  1.1720 -2.0697
 1279TIP3    H225401   0.556   0.674   0.136  0.0783  1.5478 -0.7129
 1280TIP3   OH225402   0.814   1.193   1.323 -0.7482 -0.2192 -0.3550
 1280TIP3    H125403   0.863   1.193   1.241 -0.9791  0.2227 -0.4953
 1280TIP3    H225404   0.881   1.183   1.391 -0.3789  1.0300 -0.5044
 1281TIP3   OH225405   2.832   6.059   0.165  0.5594  0.2078  0.2244
 1281TIP3    H125406   2.875   6.018   0.090  1.1534 -1.2250  1.2959
 1281TIP3    H225407   2.889   6.133   0.188  0.0134  1.0940 -1.1121
 1282TIP3   OH225408   4.954   2.183   7.393 -0.2476 -0.3627  0.0623
 1282TIP3    H125409   5.046   2.164   7.414 -0.1407  0.5920  0.5507
 1282TIP3    H225410   4.910   2.184   7.479 -0.0096  2.6064  0.2634
 1283TIP3   OH225411   0.743   3.597   0.625  0.1894 -0.1081 -0.4117
 1283TIP3    H125412   0.698   3.584   0.542 -0.7677  0.5979 -0.0264
 1283TIP3    H225413   0.778   3.511   0.648 -1.9768 -0.9910 -0.1700
 1284TIP3   OH225414   0.404   3.648   1.249  0.3214  0.1640  0.2941
 1284TIP3    H125415   0.492   3.669   1.279  0.5611 -2.4994  1.8281
 1284TIP3    H225416   0.412   3.560   1.211 -1.5011  0.2900 -0.4902
 1285TIP3   OH225417   3.883   6.769   7.110  0.1197 -0.1516  0.2232
 1285TIP3    H125418   3.814   6.823   7.073  0.2401  1.2203  1.8384
 1285TIP3    H225419   3.963   6.796   7.064 -0.1106 -0.3000 -0.2625
 1286TIP3   OH225420   2.788   3.537   0.135 -0.6633  0.0859 -0.1713
 1286TIP3    H125421   2.865   3.564   0.086 -0.8152 -0.2328 -0.5870
 1286TIP3    H225422   2.800   3.577   0.222 -0.6389  1.0763 -0.6107
 1287TIP3   OH225423   6.447   0.377   1.249 -0.0615  0.0533 -0.4655
 1287TIP3    H125424   6.414   0.462   1.220  1.3566  0.9912  0.5505
 1287TIP3    H225425   6.387   0.349   1.318  1.1047  1.6856  1.2956
 1288TIP3   OH225426   0.299   2.937   6.934  0.1916 -0.2318 -0.8152
 1288TIP3    H125427   0.343   2.959   7.016  0.1102 -1.8470 -0.3084
 1288TIP3    H225428   0.344   2.859   6.903 -0.6165 -0.3838 -1.6444
 1289TIP3   OH225429   2.306   4.700   8.139  0.0479 -0.0103 -0.0045
 1289TIP3    H125430   2.226   4.678   8.091 -0.1402 -0.7330  0.6319
 1289TIP3    H225431   2.304   4.645   8.217  0.7157  0.6221  0.4767
 1290TIP3   OH225432   1.860   2.197   0.794  0.1667  0.1227 -0.2019
 1290TIP3    H125433   1.798   2.195   0.721 -0.3376  0.5210  0.2148
 1290TIP3    H225434   1.861   2.108   0.828 -0.3124  0.1610 -0.0910
 1291TIP3   OH225435   5.092   4.851   1.540 -0.1357 -0.1709  0.1942
 1291TIP3    H125436   5.075   4.758   1.557 -1.9497  0.4731  2.2134
 1291TIP3    H225437   5.167   4.872   1.595 -0.6065 -0.1147  0.8178
 1292TIP3   OH225438   1.225   2.052   1.174 -0.0392 -0.1559 -0.1464
 1292TIP3    H125439   1.260   2.014   1.254 -3.8085 -2.0880  0.8349
 1292TIP3    H225440   1.240   1.985   1.107  0.8153  0.3416 -0.4612
 1293TIP3   OH225441   0.965   1.135   2.286 -0.2388 -0.1441 -0.2136
 1293TIP3    H125442   0.911   1.084   2.347 -0.6144  0.3972 -0.0830
 1293TIP3    H225443   1.051   1.093   2.290 -0.9144 -1.7564 -1.3046
 1294TIP3   OH225444   0.160   3.995   1.458 -0.0536  0.7508  0.1544
 1294TIP3    H125445   0.220   4.068   1.472  1.7407 -0.7446  0.6531
 1294TIP3    H225446   0.173   3.939   1.535 -1.3056 -0.1597 -0.2711
 1295TIP3   OH225447   3.037   0.525   2.017  0.3313  0.1942 -0.3065
 1295TIP3    H125448   3.001   0.520   1.928  1.2317  1.5739 -0.7793
 1295TIP3    H225449   2.988   0.597   2.058  2.0569  1.7076 -0.7727
 1296TIP3   OH225450   5.305   1.230   6.652 -0.2072 -0.0266 -0.8875
 1296TIP3    H125451   5.273   1.203   6.566 -1.3831  1.1282 -0.8340
 1296TIP3    H225452   5.263   1.314   6.669  1.3988  0.6417  0.0475
 1297TIP3   OH225453   3.882   6.821   1.171  0.1379 -0.2975 -0.0373
 1297TIP3    H125454   3.848   6.848   1.256  0.8541  0.4034  0.0397
 1297TIP3    H225455   3.962   6.872   1.160 -0.7748  0.8253 -1.8494
 1298TIP3   OH225456   4.543   6.149   8.069  0.2263  0.1818  0.3498
 1298TIP3    H125457   4.628   6.171   8.108  0.3115 -0.0246  0.2805
 1298TIP3    H225458   4.479   6.187   8.129  0.3644  0.1192  0.5398
 1299TIP3   OH225459   4.496   0.197   6.085  0.4168 -0.2706 -0.6204
 1299TIP3    H125460   4.501   0.280   6.131  0.0213 -1.4939  1.7688
 1299TIP3    H225461   4.587   0.169   6.075  0.6313  0.8647 -2.3959
 1300TIP3   OH225462   5.153   4.300   0.924 -0.0793  0.6093 -0.0776
 1300TIP3    H125463   5.137   4.378   0.872  0.3411  1.4857  1.0730
 1300TIP3    H225464   5.075   4.291   0.979 -0.0960  0.2557 -0.1542
 1301TIP3   OH225465   5.743   3.278   0.665  0.1271 -0.5891  0.1848
 1301TIP3    H125466   5.659   3.234   0.652  0.6469 -1.5758  0.1199
 1301TIP3    H225467   5.809   3.210   0.651  0.8778 -0.6477  3.1688
 1302TIP3   OH225468   1.320   4.088   0.467 -0.1824 -0.5305 -0.1140
 1302TIP3    H125469   1.357   4.001   0.459  0.0029 -0.5494  0.7585
 1302TIP3    H225470   1.293   4.094   0.559  1.3481  0.9130  0.3138
 1303TIP3   OH225471   6.350   1.780   2.573 -0.2169  0.3711  0.2560
 1303TIP3    H125472   6.259   1.757   2.553  0.0605  0.1388 -0.8344
 1303TIP3    H225473   6.361   1.759   2.666 -1.7024  1.8726  0.8021
 1304TIP3   OH225474   5.835   5.644   7.493 -0.8174 -0.6003 -0.8210
 1304TIP3    H125475   5.882   5.724   7.514 -2.1981 -0.0596  0.2909
 1304TIP3    H225476   5.891   5.600   7.428  1.2849 -0.0682  0.5353
 1305TIP3   OH225477   5.145   3.218   1.131  0.2458 -0.2462 -0.0802
 1305TIP3    H125478   5.115   3.165   1.058 -0.5026 -0.0331  0.0669
 1305TIP3    H225479   5.077   3.284   1.143 -0.4227 -1.2062  1.7898
 1306TIP3   OH225480   2.806   6.242   1.273 -0.0814 -0.1991 -0.6322
 1306TIP3    H125481   2.808   6.147   1.281  2.7752 -0.1977 -0.2506
 1306TIP3    H225482   2.803   6.258   1.178 -1.0329 -0.6195 -0.6856
 1307TIP3   OH225483   3.780   4.233   8.710 -0.0917 -0.1013  0.0218
 1307TIP3    H125484   3.750   4.286   8.636 -0.4708  0.8024  0.7996
 1307TIP3    H225485   3.865   4.200   8.683  0.3337  1.2406 -0.3342
 1308TIP3   OH225486   2.525   4.033   1.920  0.0515 -0.3407 -0.2609
 1308TIP3    H125487   2.578   4.110   1.941  0.7782 -0.9330  0.1037
 1308TIP3    H225488   2.495   4.000   2.005  2.5797 -2.4407 -0.0850
 1309TIP3   OH225489   4.289   6.121   2.088 -0.0161 -0.4906  0.0036
 1309TIP3    H125490   4.226   6.101   2.018 -0.0974 -0.6239  0.1141
 1309TIP3    H225491   4.242   6.181   2.145  0.6632  1.0548 -1.0066
 1310TIP3   OH225492   3.732   3.439   8.208 -0.8905  0.4729  0.7683
 1310TIP3    H125493   3.807   3.468   8.259 -1.1050 -1.3057  2.2418
 1310TIP3    H225494   3.729   3.344   8.222 -2.9523  0.3825  0.1287
 1311TIP3   OH225495   3.362   5.763   6.622 -0.1142 -0.2086 -0.3691
 1311TIP3    H125496   3.295   5.695   6.623  0.3363 -0.7286  2.2830
 1311TIP3    H225497   3.320   5.838   6.664  0.5575 -0.1567  0.2350
 1312TIP3   OH225498   2.408   6.390   7.531  0.2973  0.2807 -0.1226
 1312TIP3    H125499   2.490   6.356   7.568  1.3534  1.2156 -1.5415
 1312TIP3    H225500   2.434   6.466   7.479 -1.4296  0.3758 -0.9169
 1313TIP3   OH225501   4.450   2.883   8.627 -0.0048  0.3443 -0.0180
 1313TIP3    H125502   4.423   2.852   8.541  1.0346 -2.6920  0.6022
 1313TIP3    H225503   4.544   2.901   8.618  0.1282 -0.0609  0.4635
 1314TIP3   OH225504   5.513   5.049   7.560  0.6046  0.6995  0.2013
 1314TIP3    H125505   5.595   5.004   7.538 -1.4749 -2.6195 -1.6889
 1314TIP3    H225506   5.538   5.113   7.626  4.2839 -2.0449  1.8689
 1315TIP3   OH225507   3.169   0.550   2.269 -0.1276 -0.0920 -0.6428
 1315TIP3    H125508   3.117   0.626   2.295  1.7287  1.0084 -0.0004
 1315TIP3    H225509   3.136   0.528   2.182  1.0201  3.1383 -2.0473
 1316TIP3   OH225510   5.163   2.476   7.418 -0.1970  0.0091  0.0473
 1316TIP3    H125511   5.122   2.436   7.341 -1.3701  1.2018  0.0126
 1316TIP3    H225512   5.159   2.408   7.485  0.2020 -0.8086 -0.7367
 1317TIP3   OH225513   3.049   3.066   2.199 -0.0977  0.5582 -0.2919
 1317TIP3    H125514   3.052   3.046   2.292  1.7789 -1.0845 -0.6308
 1317TIP3    H225515   2.956   3.066   2.177 -0.5353  0.2442  1.4309
 1318TIP3   OH225516   2.098   2.346   0.888 -0.6364  0.4239  0.0769
 1318TIP3    H125517   2.002   2.357   0.887 -0.5564  1.5941  1.4868
 1318TIP3    H225518   2.112   2.263   0.933 -0.9735  1.6442  2.6064
 1319TIP3   OH225519   6.423   0.849   6.068 -0.4867 -0.6106  0.2034
 1319TIP3    H125520   6.408   0.755   6.060 -1.8103 -0.3252 -0.9828
 1319TIP3    H225521   6.349   0.889   6.024  0.0374  1.0063  0.7317
 1320TIP3   OH225522   3.562   1.430   1.465  0.3120 -0.2546 -0.2619
 1320TIP3    H125523   3.618   1.402   1.537  0.8874 -1.4304 -1.1362
 1320TIP3    H225524   3.493   1.363   1.460 -0.6016  0.6323  0.1533
 1321TIP3   OH225525   0.942   1.555   8.603  1.0332  0.2483 -0.1287
 1321TIP3    H125526   0.929   1.461   8.615 -1.0220  0.6430  1.0966
 1321TIP3    H225527   0.984   1.562   8.517  3.4487 -1.8807  0.7409
 1322TIP3   OH225528   0.493   4.579   0.294 -0.8800 -0.7245  0.0718
 1322TIP3    H125529   0.409   4.622   0.309 -0.1782  0.5659  0.4541
 1322TIP3    H225530   0.524   4.555   0.381 -1.0609 -1.6472 -0.1050
 1323TIP3   OH225531   5.085   1.333   8.544  0.2986  0.1555  0.0532
 1323TIP3    H125532   5.037   1.303   8.621  0.8580  0.3981  0.5100
 1323TIP3    H225533   5.095   1.427   8.557  0.1354  0.2511 -0.4717
 1324TIP3   OH225534   3.190   1.789   0.275  0.0751 -0.2250  0.4903
 1324TIP3    H125535   3.249   1.714   0.261  0.2439 -0.2827  1.4758
 1324TIP3    H225536   3.111   1.767   0.227  0.1611 -0.9987  0.6969
 1325TIP3   OH225537   2.514   6.584   8.541 -0.5482  0.0577 -0.4941
 1325TIP3    H125538   2.486   6.671   8.568  0.2281 -0.0751  0.8093
 1325TIP3    H225539   2.568   6.600   8.463 -0.8987  0.6764 -0.6205
 1326TIP3   OH225540   6.050   6.048   0.202  0.4987  0.0441  0.7112
 1326TIP3    H125541   6.134   6.039   0.246  2.2580  0.6773 -2.2818
 1326TIP3    H225542   5.998   6.102   0.262  1.9423 -0.8360  2.8952
 1327TIP3   OH225543   5.214   1.986   1.302 -0.2519 -1.0522 -0.5742
 1327TIP3    H125544   5.167   2.039   1.366  1.2690 -0.0077 -0.2845
 1327TIP3    H225545   5.147   1.962   1.237 -0.9920  1.2996 -0.7657
 1328TIP3   OH225546   5.449   6.127   8.267 -0.1325 -0.0494  0.4247
 1328TIP3    H125547   5.505   6.072   8.212 -1.7835 -0.9270 -0.4487
 1328TIP3    H225548   5.363   6.085   8.262 -0.6585  0.6840  2.5297
 1329TIP3   OH225549   2.976   1.600   8.406 -0.0188  0.2557 -0.0811
 1329TIP3    H125550   3.069   1.620   8.410 -0.4532  2.2173  1.5705
 1329TIP3    H225551   2.937   1.674   8.358 -0.6476 -1.1132 -1.8321
 1330TIP3   OH225552   3.646   3.911   5.964  0.3099  0.4372  0.4563
 1330TIP3    H125553   3.735   3.939   5.939 -0.0097 -0.7019 -2.2857
 1330TIP3    H225554   3.637   3.941   6.054  3.4844  0.5933  0.8618
 1331TIP3   OH225555   1.875   1.375   0.219 -0.4194 -0.1274  0.2685
 1331TIP3    H125556   1.912   1.414   0.140  0.7641 -1.1014  0.3177
 1331TIP3    H225557   1.874   1.281   0.202 -2.6011 -0.1939  0.4176
 1332TIP3   OH225558   4.479   5.002   8.144  0.8490 -0.2701  0.1507
 1332TIP3    H125559   4.453   5.076   8.089 -1.2354 -1.1503 -0.1507
 1332TIP3    H225560   4.562   5.029   8.184  0.7580  1.7035 -0.8915
 1333TIP3   OH225561   6.760   4.973   6.641 -0.0144 -0.1094  0.4111
 1333TIP3    H125562   6.689   4.991   6.580 -0.6797  1.7395  1.6290
 1333TIP3    H225563   6.765   4.878   6.646 -1.1773 -0.2750 -1.0616
 1334TIP3   OH225564   0.476   3.369   7.014 -0.3715 -0.0900 -0.7256
 1334TIP3    H125565   0.473   3.297   6.952 -0.7521 -0.0663 -0.7394
 1334TIP3    H225566   0.563   3.407   7.003 -0.5012  0.0247 -1.3690
 1335TIP3   OH225567   4.863   1.679   7.038 -0.1830  0.0840  0.6781
 1335TIP3    H125568   4.873   1.630   7.119 -2.9448 -0.3245  0.8624
 1335TIP3    H225569   4.799   1.746   7.058  1.9120  2.5054 -0.1840
 1336TIP3   OH225570   3.364   1.840   6.138 -0.3413 -0.1471 -0.6099
 1336TIP3    H125571   3.438   1.795   6.178 -0.1013  0.7793  0.0144
 1336TIP3    H225572   3.403   1.899   6.073 -0.4552  0.8078  0.1615
 1337TIP3   OH225573   4.720   4.422   7.046  0.5215 -0.2786 -0.2856
 1337TIP3    H125574   4.695   4.332   7.026  0.8968 -0.5545  0.4442
 1337TIP3    H225575   4.673   4.475   6.982 -0.2226 -0.9429 -0.3001
 1338TIP3   OH225576   6.177   1.203   1.795 -0.0515  0.3117  0.1390
 1338TIP3    H125577   6.209   1.205   1.884 -0.1178 -1.8831  0.2588
 1338TIP3    H225578   6.086   1.232   1.802  0.6997  2.8744  0.3209
 1339TIP3   OH225579   6.190   0.945   6.570 -0.0029  0.0741 -0.0906
 1339TIP3    H125580   6.261   0.985   6.520  0.6014 -1.0210 -0.1417
 1339TIP3    H225581   6.115   0.944   6.510  0.5092 -0.5662 -0.7292
 1340TIP3   OH225582   3.854   6.433   0.187 -0.2672 -0.2619  0.4527
 1340TIP3    H125583   3.783   6.426   0.250 -0.8579  2.6808  0.2573
 1340TIP3    H225584   3.933   6.413   0.237 -0.8063  1.1274  1.9400
 1341TIP3   OH225585   5.877   1.833   1.525  0.3263  0.1514  0.2163
 1341TIP3    H125586   5.802   1.795   1.571 -0.5704  0.4379 -0.9747
 1341TIP3    H225587   5.866   1.928   1.535  0.0951  0.2168 -0.6294
 1342TIP3   OH225588   3.212   4.667   0.797 -0.0117  0.5054 -0.3418
 1342TIP3    H125589   3.249   4.694   0.713 -1.5533  2.6628 -0.4110
 1342TIP3    H225590   3.122   4.641   0.776 -0.1948  0.4218  0.5269
 1343TIP3   OH225591   3.515   4.129   0.643  0.3090 -0.4281  0.5680
 1343TIP3    H125592   3.461   4.156   0.569  0.9368  0.4937  0.4302
 1343TIP3    H225593   3.519   4.207   0.699  0.7513 -0.7679  1.0144
 1344TIP3   OH225594   2.122   3.713   6.821  0.6625  0.5578 -0.1567
 1344TIP3    H125595   2.093   3.711   6.730  1.1263  1.0666 -0.3245
 1344TIP3    H225596   2.045   3.689   6.872  0.4481  0.0889 -0.6925
 1345TIP3   OH225597   5.228   1.264   1.789 -0.1867 -0.4974  0.4898
 1345TIP3    H125598   5.219   1.351   1.829 -1.9140 -0.2710 -0.2776
 1345TIP3    H225599   5.258   1.208   1.860 -2.1180  0.1085  1.8957
 1346TIP3   OH225600   4.378   0.487   6.674  0.0618 -0.4821  0.4893
 1346TIP3    H125601   4.402   0.572   6.636 -1.1797 -0.2988  0.0765
 1346TIP3    H225602   4.453   0.463   6.729  0.0133  1.3630  1.4213
 1347TIP3   OH225603   5.841   2.667   1.842 -0.1005 -0.5302  0.1661
 1347TIP3    H125604   5.846   2.575   1.818  0.6847 -0.2194 -0.9254
 1347TIP3    H225605   5.899   2.676   1.917 -1.9641 -1.3566  1.7943
 1348TIP3   OH225606   2.795   1.623   7.570 -0.0665  0.1346 -0.4925
 1348TIP3    H125607   2.793   1.683   7.495 -0.9697  2.1190  1.0173
 1348TIP3    H225608   2.706   1.586   7.573 -0.4293  1.0079  0.2577
 1349TIP3   OH225609   3.853   5.858   7.332 -0.2790  0.4502 -0.2876
 1349TIP3    H125610   3.852   5.763   7.329 -0.6493  0.4737 -1.6349
 1349TIP3    H225611   3.945   5.882   7.318 -0.2226  0.2868 -0.1886
 1350TIP3   OH225612   4.602   0.893   1.544 -0.1536  0.5746 -0.3451
 1350TIP3    H125613   4.545   0.837   1.598 -2.0998  1.1504 -1.6881
 1350TIP3    H225614   4.625   0.966   1.602  0.3409 -0.3440  0.6415
 1351TIP3   OH225615   2.918   3.811   8.716  0.2355  0.3273 -0.3235
 1351TIP3    H125616   2.885   3.837   8.802 -0.0532 -3.5747  0.9471
 1351TIP3    H225617   2.857   3.744   8.685  1.9033 -0.4440 -2.2162
 1352TIP3   OH225618   0.855   4.692   1.573  0.1077 -0.5363 -0.9971
 1352TIP3    H125619   0.925   4.627   1.571  0.3702 -0.4706  1.9700
 1352TIP3    H225620   0.776   4.641   1.591  0.3048 -0.1615  1.2752
 1353TIP3   OH225621   5.236   0.670   6.304  0.7661  0.1235  0.1831
 1353TIP3    H125622   5.256   0.627   6.388  2.1391  2.2179  1.0109
 1353TIP3    H225623   5.141   0.680   6.305  0.7519  0.0410  1.4544
 1354TIP3   OH225624   2.309   1.864   7.111  0.3043 -0.1940 -0.0302
 1354TIP3    H125625   2.403   1.863   7.130  0.5322  2.1698 -0.7087
 1354TIP3    H225626   2.304   1.870   7.015 -0.5863 -1.3216 -0.0788
 1355TIP3   OH225627   2.585   2.983   0.084 -0.1980  0.2470  0.1584
 1355TIP3    H125628   2.518   2.915   0.085  0.0375  0.0168  0.2905
 1355TIP3    H225629   2.614   2.987  -0.007  0.0154 -0.0536  0.2126
 1356TIP3   OH225630   5.399   6.590   7.905 -0.1409 -0.4651  0.0953
 1356TIP3    H125631   5.354   6.670   7.878 -0.2149 -0.7411 -0.6224
 1356TIP3    H225632   5.492   6.611   7.896 -0.1422 -0.1952  0.6929
 1357TIP3   OH225633   0.800   6.383   2.092  0.2405  0.0449 -0.4527
 1357TIP3    H125634   0.814   6.477   2.080  3.2751 -0.0657  1.1638
 1357TIP3    H225635   0.774   6.374   2.184 -2.0679 -0.6218 -1.1100
 1358TIP3   OH225636   3.107   3.098   0.027 -0.8984 -0.9670  0.2407
 1358TIP3    H125637   3.015   3.127   0.022 -0.9308 -0.8631  1.2346
 1358TIP3    H225638   3.107   3.014  -0.019 -0.9237  0.2642 -2.1482
 1359TIP3   OH225639   2.488   1.184   1.265  0.3638 -0.0359 -0.0593
 1359TIP3    H125640   2.512   1.273   1.290 -1.7525  1.3568 -2.4631
 1359TIP3    H225641   2.392   1.183   1.273  0.3252 -1.9689 -0.4620
 1360TIP3   OH225642   6.579   1.046   1.151 -0.0790  0.1851 -0.0328
 1360TIP3    H125643   6.495   1.025   1.110  0.6223 -1.4575 -0.7334
 1360TIP3    H225644   6.608   1.125   1.106 -1.0449  0.5331 -0.0702
 1361TIP3   OH225645   2.380   4.855   6.668 -0.4125 -0.0485 -0.0576
 1361TIP3    H125646   2.426   4.938   6.654  0.3553 -0.2476  1.1896
 1361TIP3    H225647   2.421   4.794   6.608 -0.5079  0.2903 -0.4761
 1362TIP3   OH225648   0.843   4.158   1.824 -0.3156 -0.2470  0.0649
 1362TIP3    H125649   0.761   4.207   1.825 -0.4644 -0.4633 -0.7136
 1362TIP3    H225650   0.816   4.066   1.817 -0.0119 -0.2504 -1.5077
 1363TIP3   OH225651   6.611   5.802   7.995 -0.0087  0.0682 -0.1596
 1363TIP3    H125652   6.653   5.805   8.081 -0.7861 -1.7599  0.3385
 1363TIP3    H225653   6.519   5.823   8.013  0.2061  1.7691 -0.8923
 1364TIP3   OH225654   1.669   4.944   1.101  0.1606  0.3824 -0.0610
 1364TIP3    H125655   1.576   4.920   1.105 -0.0515  1.2963  1.2190
 1364TIP3    H225656   1.671   5.035   1.130  1.6189 -0.0908  1.5018
 1365TIP3   OH225657   3.070   0.200   0.377 -0.0529  0.1970  0.3658
 1365TIP3    H125658   3.151   0.183   0.425  0.0785 -0.3268 -0.0260
 1365TIP3    H225659   3.052   0.293   0.391  0.3195  0.1881  0.9061
 1366TIP3   OH225660   3.727   3.537   7.325 -0.3859  0.0603  0.5415
 1366TIP3    H125661   3.725   3.572   7.414 -0.8417 -0.4496  0.7329
 1366TIP3    H225662   3.795   3.469   7.327 -1.5907 -1.1608  0.9613
 1367TIP3   OH225663   6.358   0.613   1.155 -0.1555  0.6714  0.7179
 1367TIP3    H125664   6.288   0.645   1.098  1.4128  0.9642 -1.1257
 1367TIP3    H225665   6.367   0.680   1.222 -0.6825  1.3313  0.1451
 1368TIP3   OH225666   4.917   2.897   8.746 -0.4846 -0.1817 -0.0268
 1368TIP3    H125667   4.859   2.964   8.781  0.0042  0.7546 -0.9802
 1368TIP3    H225668   5.002   2.940   8.738  0.2454 -1.3716  0.8220
 1369TIP3   OH225669   2.759   1.485   6.792 -0.3399  0.2168 -0.1248
 1369TIP3    H125670   2.727   1.547   6.859  2.0307  1.6315 -0.1646
 1369TIP3    H225671   2.767   1.538   6.713 -1.3328 -0.9902 -1.0563
 1370TIP3   OH225672   1.368   0.001   0.128 -0.1030  0.4637  0.3891
 1370TIP3    H125673   1.390  -0.066   0.063 -0.1617 -0.4734  1.2992
 1370TIP3    H225674   1.352  -0.049   0.208 -0.1335  1.5844  1.0955
 1371TIP3   OH225675   6.662   5.195   7.910  0.6151  0.6734  0.4131
 1371TIP3    H125676   6.710   5.277   7.899  0.6373  0.4880 -1.1036
 1371TIP3    H225677   6.729   5.130   7.930  0.5142  1.1369  2.3840
 1372TIP3   OH225678   4.370   2.921   6.534 -0.1575  0.2250  0.5463
 1372TIP3    H125679   4.436   2.958   6.475 -0.6574  2.6386  1.3744
 1372TIP3    H225680   4.312   2.994   6.554 -2.3606 -1.5051  0.8816
 1373TIP3   OH225681   5.058   6.450   1.894 -0.0863  0.5818  0.8122
 1373TIP3    H125682   5.021   6.535   1.872 -0.6206  0.9203  2.8476
 1373TIP3    H225683   5.029   6.433   1.983 -0.0565 -1.7838  0.4425
 1374TIP3   OH225684   3.909   4.532   0.188 -0.3122 -0.2556 -0.4912
 1374TIP3    H125685   3.962   4.608   0.211  2.0179 -1.2223 -2.2503
 1374TIP3    H225686   3.891   4.488   0.271  1.9651 -0.0412  0.1682
 1375TIP3   OH225687   5.141   3.652   1.320 -0.1371  0.6403  0.4773
 1375TIP3    H125688   5.211   3.663   1.384  1.1067 -0.0316 -0.7060
 1375TIP3    H225689   5.157   3.719   1.254 -0.2679  0.1354 -0.0819
 1376TIP3   OH225690   3.332   5.932   1.337  0.2373  0.0238 -0.1991
 1376TIP3    H125691   3.382   6.011   1.316 -0.6033  0.4738 -0.5610
 1376TIP3    H225692   3.361   5.907   1.425  0.3363  0.8676  0.0125
 1377TIP3   OH225693   6.286   2.638   7.379 -0.4523 -0.6735  0.3651
 1377TIP3    H125694   6.300   2.667   7.469 -3.0499  0.5590  0.4561
 1377TIP3    H225695   6.314   2.713   7.326  1.6190 -1.6095  0.0473
 1378TIP3   OH225696   6.402   2.308   0.517 -0.6758 -0.3199 -0.1365
 1378TIP3    H125697   6.317   2.286   0.555 -0.1932  1.4559  2.1481
 1378TIP3    H225698   6.466   2.273   0.579  0.1427  2.4442  0.7148
 1379TIP3   OH225699   5.490   0.621   2.655  0.3387 -0.1551  0.2807
 1379TIP3    H125700   5.557   0.683   2.626  0.3804 -1.2609 -2.2580
 1379TIP3    H225701   5.539   0.547   2.689  0.3079  0.3243  1.4281
 1380TIP3   OH225702   0.351   3.107   6.240 -0.0241  0.6340  0.3779
 1380TIP3    H125703   0.414   3.092   6.311 -0.8674 -0.2860  0.9656
 1380TIP3    H225704   0.374   3.042   6.173 -0.1864  0.4694  0.4815
 1381TIP3   OH225705   2.959   2.409   7.790 -0.3103  0.3536 -0.2514
 1381TIP3    H125706   2.987   2.318   7.788  0.4736  0.5720  0.3075
 1381TIP3    H225707   2.931   2.424   7.880 -1.0125  0.5026 -0.4865
 1382TIP3   OH225708   5.662   1.269   7.878  0.5952 -0.1350 -0.5355
 1382TIP3    H125709   5.682   1.204   7.945  0.3349  0.0826 -0.2444
 1382TIP3    H225710   5.626   1.343   7.927 -0.4531 -0.3241 -0.9950
 1383TIP3   OH225711   5.461   4.202   0.068  0.5245 -0.5363 -0.5681
 1383TIP3    H125712   5.486   4.163  -0.016  0.6753  0.7171 -1.1190
 1383TIP3    H225713   5.501   4.289   0.068 -0.4586 -0.0580  0.2930
 1384TIP3   OH225714   5.563   0.312   1.503 -0.1757  0.1206 -0.3275
 1384TIP3    H125715   5.545   0.342   1.592 -0.8901 -0.5316 -0.2372
 1384TIP3    H225716   5.479   0.321   1.458 -0.6394 -2.3523 -0.0902
 1385TIP3   OH225717   1.351   2.930   1.378 -0.1827 -0.1481  0.1132
 1385TIP3    H125718   1.275   2.968   1.422  0.1810  0.9329 -0.1545
 1385TIP3    H225719   1.398   3.006   1.342  0.9901 -0.8042  0.2261
 1386TIP3   OH225720   3.088   1.833   0.892 -0.4381 -0.1694  0.0016
 1386TIP3    H125721   2.998   1.805   0.878 -0.2630 -1.1160  0.6480
 1386TIP3    H225722   3.139   1.751   0.894  0.2613  0.2640  0.8020
 1387TIP3   OH225723   1.102   0.304   0.734  0.0195 -0.4441 -0.6162
 1387TIP3    H125724   1.066   0.215   0.724  0.3558 -0.6347 -0.1691
 1387TIP3    H225725   1.068   0.335   0.817 -1.6237  0.5913 -1.6255
 1388TIP3   OH225726   1.190   4.898   0.405  0.7918 -0.3533  0.0326
 1388TIP3    H125727   1.184   4.815   0.356 -1.7668  0.4062 -1.1064
 1388TIP3    H225728   1.272   4.938   0.374  1.6465 -2.0514 -0.0169
 1389TIP3   OH225729   4.659   1.630   0.723  0.2129  0.3725 -0.1653
 1389TIP3    H125730   4.580   1.619   0.775  0.5368 -0.6557  0.1129
 1389TIP3    H225731   4.712   1.693   0.773 -0.5269  1.2741 -0.4861
 1390TIP3   OH225732   1.610   4.197   1.887  0.3052 -0.2549  0.0357
 1390TIP3    H125733   1.534   4.256   1.889  0.8075  0.4557 -0.8264
 1390TIP3    H225734   1.611   4.156   1.973 -1.0045 -0.2106  0.0971
 1391TIP3   OH225735   4.182   1.977   0.138  0.3662  0.4107 -0.3457
 1391TIP3    H125736   4.226   2.039   0.081 -0.0524 -0.1098 -1.2491
 1391TIP3    H225737   4.143   1.913   0.079  0.4807 -0.5159  0.5443
 1392TIP3   OH225738   5.145   5.570   0.517 -0.3319 -0.4392 -0.2896
 1392TIP3    H125739   5.170   5.512   0.445 -1.8701  0.7308 -1.8374
 1392TIP3    H225740   5.050   5.579   0.509 -0.5432 -0.2390  1.8825
 1393TIP3   OH225741   5.654   0.718   1.601 -0.5566  0.5641 -0.4438
 1393TIP3    H125742   5.616   0.630   1.611 -1.4271  0.7910 -1.5389
 1393TIP3    H225743   5.726   0.706   1.540 -0.1417  0.4817  0.0539
 1394TIP3   OH225744   2.599   1.419   1.338  0.6791 -0.2655  0.1982
 1394TIP3    H125745   2.583   1.486   1.405  1.5365 -0.8228  0.9842
 1394TIP3    H225746   2.666   1.362   1.377  1.2153 -0.5911 -1.1421
 1395TIP3   OH225747   0.007   2.110   6.667  0.1595 -0.8641 -0.0477
 1395TIP3    H125748  -0.041   2.082   6.589  1.5635  0.2782 -1.4038
 1395TIP3    H225749   0.099   2.096   6.644  0.7280  1.4595  0.5190
 1396TIP3   OH225750   1.492   6.356   8.503 -0.7489  0.2136  0.0999
 1396TIP3    H125751   1.499   6.411   8.425  0.1735 -0.3003 -0.1898
 1396TIP3    H225752   1.457   6.414   8.570  2.0982  1.7916  0.3807
 1397TIP3   OH225753   3.124   6.735   6.765 -0.0676 -0.3355 -0.4284
 1397TIP3    H125754   3.070   6.769   6.695  0.4919  0.1168 -0.6499
 1397TIP3    H225755   3.212   6.730   6.727  0.6438  1.7108  0.7852
 1398TIP3   OH225756   0.529   1.471   7.521 -0.3477 -0.5909  0.5340
 1398TIP3    H125757   0.593   1.446   7.455 -2.7282 -2.9038 -1.1276
 1398TIP3    H225758   0.581   1.494   7.598  2.4464 -1.4034 -0.9733
 1399TIP3   OH225759   4.600   6.242   8.660  0.0476 -0.2518  0.1573
 1399TIP3    H125760   4.513   6.216   8.628  0.6490 -1.0906 -0.8997
 1399TIP3    H225761   4.661   6.195   8.603  1.2065  0.8968  0.3969
 1400TIP3   OH225762   2.857   5.922   8.317  0.1790 -0.6257 -0.3516
 1400TIP3    H125763   2.948   5.904   8.298  1.6995  2.6237  2.6142
 1400TIP3    H225764   2.829   5.983   8.249 -0.0898 -2.1315 -1.6416
 1401TIP3   OH225765   1.688   5.075   6.399 -0.1155 -0.3494  0.0972
 1401TIP3    H125766   1.652   5.121   6.475  0.7186  1.0483 -0.3120
 1401TIP3    H225767   1.612   5.036   6.357 -1.2698  2.6118 -0.8158
 1402TIP3   OH225768   3.656   3.060   0.527  0.6734 -0.0518  0.0578
 1402TIP3    H125769   3.626   3.053   0.437  0.7232 -0.0711  0.0423
 1402TIP3    H225770   3.723   3.129   0.524  1.2804 -0.6298 -0.0816
 1403TIP3   OH225771   5.701   5.797   6.612  0.0062 -0.0935  0.2178
 1403TIP3    H125772   5.751   5.736   6.557  0.2991  1.7999 -1.7263
 1403TIP3    H225773   5.749   5.879   6.607 -1.4104  0.8357  1.1905
 1404TIP3   OH225774   2.512   2.219   1.729 -0.0116  0.7414  0.0410
 1404TIP3    H125775   2.499   2.127   1.751  1.6567 -0.4403 -3.1560
 1404TIP3    H225776   2.608   2.230   1.727 -0.1668  2.4808  0.0664
 1405TIP3   OH225777   4.557   0.240   0.944  0.2814  0.1786 -0.1179
 1405TIP3    H125778   4.539   0.314   1.002  0.5027  0.1160  0.0356
 1405TIP3    H225779   4.560   0.278   0.857  0.1529  0.3103 -0.0650
 1406TIP3   OH225780   4.477   1.876   2.068 -0.6397  0.5570 -0.3851
 1406TIP3    H125781   4.552   1.828   2.100  0.2145  1.9340 -0.2286
 1406TIP3    H225782   4.507   1.917   1.987 -1.0371  1.5000 -0.0829
 1407TIP3   OH225783   0.343   0.228   0.788  0.8903  0.0071  0.2239
 1407TIP3    H125784   0.358   0.159   0.723  0.6462 -0.1463  0.3293
 1407TIP3    H225785   0.259   0.206   0.828  0.7941  0.3868  0.2348
 1408TIP3   OH225786   4.214   3.135   7.052 -0.3496 -0.2359  0.7119
 1408TIP3    H125787   4.284   3.180   7.098 -2.4230  0.9277  2.9488
 1408TIP3    H225788   4.160   3.205   7.016 -0.6034 -1.0912 -0.6162
 1409TIP3   OH225789   4.379   0.886   8.711 -0.4021  0.6841  0.1851
 1409TIP3    H125790   4.434   0.963   8.725  1.0660 -0.2555 -0.3054
 1409TIP3    H225791   4.312   0.916   8.649  0.9103  1.2341 -1.0040
 1410TIP3   OH225792   4.615   4.806   7.904  0.2285  0.5092  0.2128
 1410TIP3    H125793   4.644   4.893   7.931  1.5530  0.4401 -0.8834
 1410TIP3    H225794   4.681   4.746   7.940  0.1262  0.1059 -0.2526
 1411TIP3   OH225795   5.405   3.819   0.782 -0.0931  0.0730 -0.0187
 1411TIP3    H125796   5.459   3.763   0.837  0.8267  0.0113 -0.9531
 1411TIP3    H225797   5.419   3.907   0.816  0.8026  0.0879 -0.3899
 1412TIP3   OH225798   4.067   1.911   0.367  0.0818  0.2256  0.7248
 1412TIP3    H125799   4.105   1.953   0.289  0.0754 -0.6133  0.2603
 1412TIP3    H225800   3.976   1.896   0.343  0.5726 -2.0208  0.0202
 1413TIP3   OH225801   4.255   3.155   1.790  0.2400 -0.2665 -0.5811
 1413TIP3    H125802   4.340   3.166   1.834  0.1960  0.2093 -0.6164
 1413TIP3    H225803   4.261   3.210   1.712  0.4508 -1.3864 -1.3792
 1414TIP3   OH225804   1.692   4.587   8.232  0.1130 -0.1113 -0.3087
 1414TIP3    H125805   1.757   4.578   8.302  0.5098 -1.8646 -0.8590
 1414TIP3    H225806   1.608   4.589   8.278  0.3963 -0.8203  0.2538
 1415TIP3   OH225807   5.260   6.253   7.296 -0.1701  0.3783 -0.0944
 1415TIP3    H125808   5.315   6.310   7.349 -1.9008  0.7426  1.3885
 1415TIP3    H225809   5.180   6.303   7.281 -0.9233 -0.8834 -0.4725
 1416TIP3   OH225810   4.520   6.585   1.432  0.4204  0.0156  0.0936
 1416TIP3    H125811   4.434   6.577   1.390 -0.0975  2.3341  0.5257
 1416TIP3    H225812   4.578   6.530   1.381 -1.0135 -0.3718 -1.1880
 1417TIP3   OH225813   0.219   4.353   1.666 -0.5842 -0.2403 -0.1716
 1417TIP3    H125814   0.229   4.286   1.735  0.7324  0.7239  0.6332
 1417TIP3    H225815   0.259   4.432   1.704  0.3168  0.2828 -2.0825
 1418TIP3   OH225816   0.438   5.252   0.166  0.2904  0.4675 -0.0685
 1418TIP3    H125817   0.466   5.163   0.189 -0.7392  0.0514 -0.3771
 1418TIP3    H225818   0.362   5.239   0.109 -0.1933  1.5527  0.3052
 1419TIP3   OH225819   4.853   2.461   0.102  0.0565  0.0884 -0.2242
 1419TIP3    H125820   4.885   2.404   0.032 -0.7640 -2.6352  1.4368
 1419TIP3    H225821   4.846   2.403   0.178 -1.4252  2.3321  1.4719
 1420TIP3   OH225822   4.364   5.220   8.012  0.4987  0.6849  0.1633
 1420TIP3    H125823   4.376   5.301   8.061 -0.0666  0.4433  0.7208
 1420TIP3    H225824   4.382   5.244   7.921 -1.3024  1.8777  0.0502
 1421TIP3   OH225825   6.181   2.671   8.551 -0.2156  0.0798  0.5843
 1421TIP3    H125826   6.136   2.702   8.472  1.2086  0.7254 -0.0101
 1421TIP3    H225827   6.111   2.657   8.614 -1.4096 -0.5217 -0.8051
 1422TIP3   OH225828   2.895   4.487   8.533 -0.1511 -0.1417  0.1521
 1422TIP3    H125829   2.968   4.434   8.565 -0.5096  0.1356  1.4986
 1422TIP3    H225830   2.822   4.463   8.591 -0.4909  1.3253  0.3581
 1423TIP3   OH225831   2.631   2.283   8.311 -0.1772  0.1103  0.3745
 1423TIP3    H125832   2.592   2.367   8.288 -1.1725  0.0958  1.8833
 1423TIP3    H225833   2.589   2.259   8.393  2.5775 -0.2281  1.7677
 1424TIP3   OH225834   3.804   3.149   8.739 -0.0638  0.2014  0.4306
 1424TIP3    H125835   3.889   3.139   8.782  1.4791  3.1372 -1.6290
 1424TIP3    H225836   3.761   3.221   8.786 -0.7804 -0.2370  0.4711
 1425TIP3   OH225837   0.181   6.626   0.815 -0.6024 -0.3046  0.4472
 1425TIP3    H125838   0.134   6.680   0.752  1.8358  1.1152 -0.2860
 1425TIP3    H225839   0.177   6.537   0.779 -1.4566  0.0245 -0.2977
 1426TIP3   OH225840   5.914   1.468   1.168 -0.1413  0.8179  0.0757
 1426TIP3    H125841   6.005   1.487   1.189  0.2681 -0.1267 -0.7383
 1426TIP3    H225842   5.896   1.384   1.209 -0.7975  1.2121  0.6170
 1427TIP3   OH225843   5.936   3.745   1.456 -0.2351 -0.5729 -0.4264
 1427TIP3    H125844   5.944   3.841   1.456 -0.1658 -0.5609  0.9300
 1427TIP3    H225845   5.842   3.729   1.461 -0.1997 -0.4883  2.5656
 1428TIP3   OH225846   2.608   4.584   0.474  0.2462 -0.5355  0.2846
 1428TIP3    H125847   2.697   4.584   0.438 -1.1085 -2.8112 -3.7126
 1428TIP3    H225848   2.573   4.670   0.450  1.1260  0.2100  1.5077
 1429TIP3   OH225849   3.469   3.895   6.892  0.2010 -0.0538 -0.6111
 1429TIP3    H125850   3.507   3.871   6.977 -0.3639  0.5990 -0.1633
 1429TIP3    H225851   3.399   3.830   6.878 -1.9723  1.7651  1.0543
 1430TIP3   OH225852   0.138   4.696   1.525 -0.1350 -0.0205 -0.0973
 1430TIP3    H125853   0.171   4.619   1.478  0.1496 -0.1567  0.3249
 1430TIP3    H225854   0.194   4.704   1.602 -1.1847 -0.3712  0.7383
 1431TIP3   OH225855   0.900   3.006   1.847  0.4463 -0.3187 -0.3368
 1431TIP3    H125856   0.945   2.924   1.868 -0.1114 -0.4692  0.3209
 1431TIP3    H225857   0.931   3.030   1.760  1.5546 -0.5751 -0.0155
 1432TIP3   OH225858   6.188   1.835   7.639 -0.2877  0.4043  0.2611
 1432TIP3    H125859   6.230   1.920   7.647  1.4393 -0.5718  2.4869
 1432TIP3    H225860   6.218   1.802   7.554  1.9467  0.5528  0.9461
 1433TIP3   OH225861   5.469   4.666   8.708  0.1953  0.0860 -0.0466
 1433TIP3    H125862   5.405   4.725   8.748 -0.0406  1.0221 -1.7151
 1433TIP3    H225863   5.417   4.610   8.650  0.7725  0.2584 -0.7398
 1434TIP3   OH225864   1.340   0.333   0.534 -0.1560 -0.4040  0.3763
 1434TIP3    H125865   1.260   0.319   0.585  0.0086  0.6740  0.9629
 1434TIP3    H225866   1.313   0.391   0.463 -0.0474 -0.6414  0.1396
 1435TIP3   OH225867   3.016   1.421   7.779  0.4644  0.2132 -0.1216
 1435TIP3    H125868   3.067   1.435   7.859 -0.5857 -2.4195  1.1399
 1435TIP3    H225869   3.055   1.480   7.715  2.1344  1.5549  1.9910
 1436TIP3   OH225870   2.275   2.756   7.780  0.5225 -0.1203 -0.3327
 1436TIP3    H125871   2.285   2.753   7.685  0.7336  0.5404 -0.3349
 1436TIP3    H225872   2.180   2.765   7.793  0.6321  1.7078 -0.5506
 1437TIP3   OH225873   5.820   2.321   7.613  0.2965  0.7685 -0.3367
 1437TIP3    H125874   5.811   2.404   7.659 -1.2973  1.6009 -2.0300
 1437TIP3    H225875   5.813   2.255   7.682  0.7688  1.9948  0.9331
 1438TIP3   OH225876   6.053   0.904   0.322 -0.0636  0.0950  0.3650
 1438TIP3    H125877   6.068   0.918   0.416  1.2456  1.0140  0.0411
 1438TIP3    H225878   5.958   0.900   0.314 -0.2036  0.1027  1.7199
 1439TIP3   OH225879   5.044   3.839   0.649 -0.2222  0.2880  0.2835
 1439TIP3    H125880   5.098   3.783   0.593  1.1542  1.4186  0.4299
 1439TIP3    H225881   4.989   3.889   0.588 -0.5788 -0.3202  0.0956
 1440TIP3   OH225882   0.596   3.014   0.151  0.1047  0.4224  0.2105
 1440TIP3    H125883   0.672   3.045   0.102  0.7229  1.5447  1.8405
 1440TIP3    H225884   0.524   3.018   0.087  0.8268  2.0786 -0.5454
 1441TIP3   OH225885   5.089   2.460   1.425 -0.3237 -0.3560  0.2237
 1441TIP3    H125886   5.159   2.502   1.476  0.5397 -1.1537 -0.2818
 1441TIP3    H225887   5.132   2.388   1.379 -1.2020 -0.0091 -1.2025
 1442TIP3   OH225888   1.640   0.503   8.203  0.3840 -0.6508 -0.3879
 1442TIP3    H125889   1.710   0.556   8.163 -0.4072 -0.4583 -1.5653
 1442TIP3    H225890   1.686   0.447   8.266  1.6120 -0.5644 -1.1592
 1443TIP3   OH225891   0.373   4.787   2.316  0.5093  0.0472 -0.3105
 1443TIP3    H125892   0.332   4.807   2.400  1.2692 -2.1223  0.6632
 1443TIP3    H225893   0.300   4.759   2.260  0.3629 -2.2122  0.8965
 1444TIP3   OH225894   2.403   3.124   0.758  0.4137  0.5306 -0.0915
 1444TIP3    H125895   2.463   3.120   0.832  0.3055 -0.7545 -0.0485
 1444TIP3    H225896   2.344   3.197   0.779  1.0749  0.8948  0.5354
 1445TIP3   OH225897   1.433   2.374   1.743 -0.2817 -0.0776  0.0476
 1445TIP3    H125898   1.459   2.334   1.825  0.0191 -0.8062 -0.3961
 1445TIP3    H225899   1.456   2.310   1.676  0.3813  0.9114 -0.6957
 1446TIP3   OH225900   3.708   5.119   0.871  0.1788  0.6811  0.0041
 1446TIP3    H125901   3.705   5.135   0.776  1.0254  0.3688 -0.0858
 1446TIP3    H225902   3.760   5.192   0.905  0.4796  0.4021  0.1394
 1447TIP3   OH225903   0.610   1.182   0.584 -0.3022  0.2495  0.0248
 1447TIP3    H125904   0.669   1.123   0.538 -0.8369 -1.0565  0.9740
 1447TIP3    H225905   0.522   1.152   0.560 -0.5856  0.0108  1.2879
 1448TIP3   OH225906   0.584   2.423   7.518  0.4355 -0.2074  0.2879
 1448TIP3    H125907   0.539   2.506   7.501  0.6501  0.3526  2.2687
 1448TIP3    H225908   0.518   2.356   7.501 -0.1584  0.4379  0.0104
 1449TIP3   OH225909   4.862   5.164   7.365 -0.1518 -0.2542 -0.4896
 1449TIP3    H125910   4.878   5.203   7.451  2.2731 -1.2962 -0.3803
 1449TIP3    H225911   4.840   5.239   7.309  1.7554  0.9807  0.2981
 1450TIP3   OH225912   5.795   3.089   8.806  0.5622 -0.4049  0.3907
 1450TIP3    H125913   5.717   3.132   8.843  0.6884  0.9309 -0.8083
 1450TIP3    H225914   5.766   3.002   8.781 -0.3256 -0.2156  0.7424
 1451TIP3   OH225915   3.687   6.459   1.990 -0.6128  0.0263  0.3938
 1451TIP3    H125916   3.603   6.413   1.984 -0.2258 -0.8000  1.0949
 1451TIP3    H225917   3.734   6.415   2.061  0.4344  0.4464 -0.0108
 1452TIP3   OH225918   5.590   0.798   8.336 -0.0749 -0.8639  0.5180
 1452TIP3    H125919   5.530   0.724   8.333  0.1985 -1.0704 -1.8313
 1452TIP3    H225920   5.655   0.779   8.268 -0.9162  2.2403 -1.3337
 1453TIP3   OH225921   5.407   0.673   6.895  0.0691 -0.1577  0.3585
 1453TIP3    H125922   5.479   0.611   6.885  2.2757  2.4217 -1.3387
 1453TIP3    H225923   5.369   0.652   6.980  2.4615 -2.0437  1.1005
 1454TIP3   OH225924   0.638   4.382   8.075  0.0983 -0.0574  0.0518
 1454TIP3    H125925   0.709   4.337   8.120  1.8209  1.7402 -0.7381
 1454TIP3    H225926   0.679   4.459   8.035 -2.5078  1.8040  0.6586
 1455TIP3   OH225927   1.078   5.842   7.075 -0.1540 -0.1323 -0.0894
 1455TIP3    H125928   1.051   5.776   7.138  0.9379  0.2963  0.8689
 1455TIP3    H225929   1.012   5.911   7.083  0.2732  0.1664  1.0095
 1456TIP3   OH225930   4.803   1.264   0.945 -0.6461 -0.2313  0.2210
 1456TIP3    H125931   4.834   1.236   1.031 -0.4088  1.7216  0.8140
 1456TIP3    H225932   4.883   1.267   0.892 -0.5676 -0.0124  0.3499
 1457TIP3   OH225933   1.049   3.111   0.615  0.0837 -0.3266 -0.7043
 1457TIP3    H125934   1.112   3.132   0.546  0.1319  1.6338 -0.1263
 1457TIP3    H225935   1.102   3.072   0.685  0.1409 -1.6455 -1.4567
 1458TIP3   OH225936   4.443   5.928   2.488 -0.8538  0.4805 -0.1238
 1458TIP3    H125937   4.413   6.000   2.543 -1.5985  1.4668 -1.7479
 1458TIP3    H225938   4.482   5.970   2.412 -1.5463 -0.8132 -1.2388
 1459TIP3   OH225939   1.653   2.924   8.714  0.1459  0.2419  0.3184
 1459TIP3    H125940   1.651   2.881   8.628  1.3212 -0.4126  0.5886
 1459TIP3    H225941   1.565   2.958   8.726 -0.7051 -1.6570 -0.1519
 1460TIP3   OH225942   6.066   1.454   7.710  0.6848 -0.2323 -0.6433
 1460TIP3    H125943   6.134   1.509   7.749  0.0146  0.5455 -0.5601
 1460TIP3    H225944   6.101   1.432   7.624  1.2914 -0.3068 -0.3850
 1461TIP3   OH225945   5.135   1.341   8.088 -0.3320 -0.1094  0.1064
 1461TIP3    H125946   5.086   1.298   8.017 -0.9175  2.4163 -1.1660
 1461TIP3    H225947   5.068   1.363   8.153 -0.5096  0.9889 -0.4107
 1462TIP3   OH225948   4.302   0.770   0.972 -0.2520  0.1086  0.0742
 1462TIP3    H125949   4.335   0.828   0.904 -1.5817  1.3188  0.4035
 1462TIP3    H225950   4.370   0.771   1.040 -0.1112  1.0560 -0.0647
 1463TIP3   OH225951   0.163   5.627   2.336  0.7722 -0.0517 -0.1792
 1463TIP3    H125952   0.080   5.642   2.290 -0.4647  0.8476  2.1701
 1463TIP3    H225953   0.189   5.714   2.367  0.6780 -0.7991  2.1487
 1464TIP3   OH225954   1.988   4.411   6.472  0.6670  0.2442  0.4778
 1464TIP3    H125955   2.033   4.332   6.441  1.3694  0.4036  1.0699
 1464TIP3    H225956   2.056   4.478   6.474 -0.5157  1.8000 -3.1228
 1465TIP3   OH225957   0.453   2.761   7.993  0.5239  0.1224 -0.1265
 1465TIP3    H125958   0.492   2.692   7.940 -1.3771 -1.2284  0.1229
 1465TIP3    H225959   0.407   2.715   8.063  0.3553  1.7151  0.8664
 1466TIP3   OH225960   1.355   0.014   0.874 -0.5836  0.0800  0.5667
 1466TIP3    H125961   1.266  -0.015   0.852 -0.4873  0.4143 -0.3024
 1466TIP3    H225962   1.347   0.109   0.885 -0.2087  0.2145 -0.2300
 1467TIP3   OH225963   3.696   6.245   1.381 -0.0918 -0.1870 -0.2831
 1467TIP3    H125964   3.618   6.223   1.329  0.5185  0.2065 -1.3980
 1467TIP3    H225965   3.661   6.292   1.457 -1.0409 -1.1470 -0.1006
 1468TIP3   OH225966   3.221   2.562   7.393  0.7206  0.1135 -0.2241
 1468TIP3    H125967   3.164   2.601   7.460 -0.6884  0.9626 -1.8275
 1468TIP3    H225968   3.177   2.480   7.369  1.7487 -0.6976  0.5442
 1469TIP3   OH225969   3.327   2.332   0.963 -0.8774  0.6704 -0.2758
 1469TIP3    H125970   3.354   2.360   0.875 -1.0270  1.2736 -0.1342
 1469TIP3    H225971   3.409   2.328   1.013 -0.6829 -0.4914 -0.6544
 1470TIP3   OH225972   4.170   2.715   7.537 -0.7531  0.0891  0.5932
 1470TIP3    H125973   4.124   2.666   7.605 -0.9066 -0.2494  0.2496
 1470TIP3    H225974   4.227   2.650   7.496  0.1400  0.5311  1.1053
 1471TIP3   OH225975   4.953   6.601   6.556 -0.0904  0.0273 -0.0101
 1471TIP3    H125976   4.918   6.689   6.570  0.7212  0.6250 -1.5379
 1471TIP3    H225977   4.901   6.545   6.615 -0.2416  1.5788  1.4080
 1472TIP3   OH225978   4.355   6.673   2.641 -0.3838 -0.1884  0.2773
 1472TIP3    H125979   4.401   6.741   2.591 -0.9350 -0.6461 -0.8937
 1472TIP3    H225980   4.265   6.675   2.608 -0.0574 -2.5263 -0.9634
 1473TIP3   OH225981   1.047   2.766   8.281  0.0806  0.0280 -0.3033
 1473TIP3    H125982   1.097   2.686   8.295  0.3574  0.4574  1.5487
 1473TIP3    H225983   1.091   2.811   8.209  0.0263 -1.3736 -1.2413
 1474TIP3   OH225984   3.027   4.072   8.808  0.4407  0.4635 -0.2318
 1474TIP3    H125985   3.054   4.017   8.882 -1.2533  0.2265  0.2516
 1474TIP3    H225986   3.013   4.010   8.737 -1.7393  0.1728  0.3906
 1475TIP3   OH225987   5.161   4.485   0.477 -0.0307 -0.5677  0.4392
 1475TIP3    H125988   5.217   4.555   0.512  0.9560 -1.4100  0.6111
 1475TIP3    H225989   5.123   4.521   0.398  1.7560 -0.3683 -0.3712
 1476TIP3   OH225990   5.548   1.615   1.371  0.2232  0.4969 -0.0209
 1476TIP3    H125991   5.567   1.604   1.277  0.9216  0.9958  0.0529
 1476TIP3    H225992   5.539   1.709   1.382  1.3490  0.5384  0.6308
 1477TIP3   OH225993   0.348   0.646   0.757  0.3458 -0.4726 -0.2237
 1477TIP3    H125994   0.285   0.661   0.686  0.1224 -0.2612  0.0190
 1477TIP3    H225995   0.397   0.727   0.762 -0.2420 -0.1535  0.4680
 1478TIP3   OH225996   2.005   2.214   7.844  0.1528 -0.0338  0.0128
 1478TIP3    H125997   1.956   2.169   7.776 -0.1764  1.0240 -0.4781
 1478TIP3    H225998   1.947   2.215   7.919 -0.1683  0.2769 -0.2346
 1479TIP3   OH225999   2.826   4.453   0.290  0.3496 -0.4496  0.0154
 1479TIP3    H126000   2.916   4.455   0.323  0.7825 -0.4146 -1.1148
 1479TIP3    H226001   2.825   4.519   0.220 -0.4900 -0.6118 -0.1366
 1480TIP3   OH226002   0.208   3.374   7.466  0.2427 -0.0544  0.0245
 1480TIP3    H126003   0.166   3.358   7.381 -1.6092  1.6056  0.5326
 1480TIP3    H226004   0.270   3.445   7.450 -0.0884  0.2404  0.0086
 1481TIP3   OH226005   3.312   3.387   0.715  0.4109  0.2146  0.4771
 1481TIP3    H126006   3.327   3.293   0.703  0.0756  0.1209  0.7646
 1481TIP3    H226007   3.223   3.393   0.748  1.0608  0.5056  2.2522
 1482TIP3   OH226008   1.739   5.530   8.179 -0.7141 -0.3666  0.0618
 1482TIP3    H126009   1.726   5.438   8.204 -0.7413 -0.2477  0.5027
 1482TIP3    H226010   1.661   5.554   8.130 -1.1251 -0.3126  0.7390
 1483TIP3   OH226011   6.813   0.979   0.479 -0.3417 -0.5707 -0.1723
 1483TIP3    H126012   6.760   1.045   0.525 -0.9048 -1.5582  0.6346
 1483TIP3    H226013   6.811   1.007   0.387 -0.3702  0.6566  0.1805
 1484TIP3   OH226014   2.878   2.002   7.413  0.6543 -0.3397  0.1615
 1484TIP3    H126015   2.876   2.091   7.377  0.3621 -0.1066  0.7437
 1484TIP3    H226016   2.790   1.967   7.395  0.8884 -0.6621 -0.4137
 1485TIP3   OH226017   2.530   2.040   0.073  0.4743 -0.0600 -0.1724
 1485TIP3    H126018   2.492   2.062   0.158 -1.6919 -0.3361 -0.9930
 1485TIP3    H226019   2.564   2.123   0.040  1.1778  0.0807  0.8711
 1486TIP3   OH226020   1.254   5.250   0.533 -0.7790 -0.3388 -0.2305
 1486TIP3    H126021   1.252   5.315   0.463  1.9320  0.1625  0.0382
 1486TIP3    H226022   1.294   5.173   0.492 -0.2776 -0.4467  0.4446
 1487TIP3   OH226023   3.149   2.721   1.680  0.0849 -0.3277 -0.1493
 1487TIP3    H126024   3.062   2.730   1.642 -1.0180 -1.7780  1.8392
 1487TIP3    H226025   3.193   2.656   1.625 -0.7096 -0.8252 -0.2046
 1488TIP3   OH226026   4.408   5.879   8.754 -0.0800 -0.1402 -0.5624
 1488TIP3    H126027   4.362   5.822   8.693  0.5249 -0.1434 -1.0295
 1488TIP3    H226028   4.342   5.942   8.782 -0.1598  0.4336 -1.9330
 1489TIP3   OH226029   3.171   1.629   2.063  0.1364  0.0592 -0.2701
 1489TIP3    H126030   3.255   1.602   2.101  0.8342 -0.6057 -2.1521
 1489TIP3    H226031   3.148   1.708   2.110  2.2995  0.7737 -0.2924
 1490TIP3   OH226032   5.761   5.108   0.877 -0.5955 -0.6839  0.3802
 1490TIP3    H126033   5.749   5.194   0.915  2.0046  0.5474 -1.3213
 1490TIP3    H226034   5.819   5.062   0.937  1.2630  0.2635 -0.6115
 1491TIP3   OH226035   0.005   1.160   6.668 -0.2968  0.1259  0.1452
 1491TIP3    H126036   0.078   1.220   6.683  0.4998 -1.1111  1.4219
 1491TIP3    H226037  -0.016   1.171   6.575  0.5476  1.5481  0.0934
 1492TIP3   OH226038   6.153   5.396   8.806  0.0910  0.4403 -0.7700
 1492TIP3    H126039   6.230   5.426   8.853 -1.9295  2.6373  1.4054
 1492TIP3    H226040   6.143   5.459   8.734  0.1843  0.3104 -0.8966
 1493TIP3   OH226041   4.113   1.268   1.746 -0.2782 -0.1656 -0.2398
 1493TIP3    H126042   4.061   1.330   1.694  1.1717  1.0625 -0.3199
 1493TIP3    H226043   4.081   1.279   1.835 -0.6008  0.0943 -0.3866
 1494TIP3   OH226044   2.412   5.840   7.032  0.5730 -0.1297  0.0481
 1494TIP3    H126045   2.499   5.857   6.998  1.1264 -1.2595  0.8194
 1494TIP3    H226046   2.423   5.839   7.127  0.0307 -1.6878  0.1314
 1495TIP3   OH226047   2.869   0.048   0.257 -0.3385 -0.1068  0.5721
 1495TIP3    H126048   2.941   0.092   0.302 -0.3435 -1.1988  1.7077
 1495TIP3    H226049   2.798   0.112   0.257  0.5110  0.8607 -0.2600
 1496TIP3   OH226050   6.762   4.197   0.270  0.0048 -0.5192 -1.2081
 1496TIP3    H126051   6.839   4.161   0.315  0.0615  1.8226  0.7656
 1496TIP3    H226052   6.799   4.254   0.203 -0.0335 -0.5394 -1.2463
 1497TIP3   OH226053   4.669   0.999   7.302  0.1877  0.4105  0.0012
 1497TIP3    H126054   4.574   1.006   7.292 -0.0049 -2.1253 -0.5472
 1497TIP3    H226055   4.698   0.957   7.221  1.2370 -2.1936  1.6048
 1498TIP3   OH226056   4.571   4.086   6.339 -0.1883 -0.0334  0.3482
 1498TIP3    H126057   4.585   4.107   6.247  0.1177  0.2193  0.4492
 1498TIP3    H226058   4.522   4.004   6.338 -0.0418 -0.1171 -0.0364
 1499TIP3   OH226059   0.149   2.296   0.681 -0.0468 -0.1778  0.1386
 1499TIP3    H126060   0.077   2.252   0.636  0.4667 -0.9604  0.0563
 1499TIP3    H226061   0.164   2.244   0.760 -0.7806  1.0400  1.1176
 1500TIP3   OH226062   5.615   4.709   0.261 -0.6777 -0.2897 -0.2678
 1500TIP3    H126063   5.586   4.789   0.217  0.2401  0.7955  1.0213
 1500TIP3    H226064   5.710   4.719   0.270 -0.7902 -0.5720  1.7034
 1501TIP3   OH226065   4.369   6.031   7.335 -0.0539  0.0558 -0.6337
 1501TIP3    H126066   4.315   6.085   7.278 -0.6944 -0.9118 -0.9692
 1501TIP3    H226067   4.441   6.088   7.361 -0.3686  0.8672 -1.4878
 1502TIP3   OH226068   6.488   6.014   0.698  0.5280 -0.6097  0.3299
 1502TIP3    H126069   6.537   6.058   0.629  1.4706 -3.3452 -0.8887
 1502TIP3    H226070   6.405   5.992   0.658  0.1622 -0.2201  0.8523
 1503TIP3   OH226071   4.848   3.365   7.260 -0.3821 -0.2367  0.5044
 1503TIP3    H126072   4.830   3.456   7.283 -0.4791 -0.3062  0.7096
 1503TIP3    H226073   4.777   3.341   7.199 -1.3245 -0.6730  1.7240
 1504TIP3   OH226074   2.005   0.195   8.571  0.0504  0.1932  0.3009
 1504TIP3    H126075   1.963   0.239   8.645 -0.7961  1.2427 -0.7499
 1504TIP3    H226076   2.061   0.263   8.533  0.3062 -0.2673 -0.1483
 1505TIP3   OH226077   2.662   4.444   1.561  0.6363  0.4718  0.6436
 1505TIP3    H126078   2.714   4.524   1.555 -0.0254  0.9311  0.9184
 1505TIP3    H226079   2.625   4.447   1.649 -1.0518  0.9166 -0.0492
 1506TIP3   OH226080   2.467   0.236   1.911  0.7529  0.1715  0.1942
 1506TIP3    H126081   2.390   0.252   1.966 -0.4529 -1.1023 -1.0259
 1506TIP3    H226082   2.498   0.150   1.939  0.8123  0.0176 -0.3385
 1507TIP3   OH226083   1.522   4.571   8.641  0.4424  0.5394 -0.5666
 1507TIP3    H126084   1.558   4.641   8.697  1.6037  0.5111 -1.2514
 1507TIP3    H226085   1.549   4.490   8.685 -0.5700  0.4954  0.0156
 1508TIP3   OH226086   0.369   6.178   8.185  0.3223  0.0850 -0.1877
 1508TIP3    H126087   0.366   6.130   8.268 -0.9952  0.3843 -0.0458
 1508TIP3    H226088   0.340   6.266   8.206  0.6483  0.3622 -0.8488
 1509TIP3   OH226089   6.493   6.459   1.583  0.4176  0.3937 -0.0906
 1509TIP3    H126090   6.511   6.537   1.635 -0.0740  0.8847 -0.6569
 1509TIP3    H226091   6.479   6.491   1.494 -0.9976 -0.2036 -0.1019
 1510TIP3   OH226092   4.422   0.410   2.379  0.5637 -0.5644  0.4824
 1510TIP3    H126093   4.363   0.374   2.445 -0.7679  3.6992  1.9448
 1510TIP3    H226094   4.503   0.361   2.391 -1.1411 -3.3170  1.7918
 1511TIP3   OH226095   0.668   5.671   7.650  0.0215 -0.1067  0.0605
 1511TIP3    H126096   0.679   5.748   7.595  0.4875 -1.0104 -1.1596
 1511TIP3    H226097   0.758   5.644   7.671 -0.0632 -1.3149 -1.0063
 1512TIP3   OH226098   3.400   0.696   7.085  0.5436 -0.4925  0.3373
 1512TIP3    H126099   3.391   0.661   7.174  0.0561  1.3988  1.0731
 1512TIP3    H226100   3.364   0.627   7.029  0.1592 -1.4186  1.6708
 1513TIP3   OH226101   6.529   4.833   7.217 -0.1496 -0.8179 -0.1161
 1513TIP3    H126102   6.591   4.891   7.173 -0.9429 -0.3747 -0.6787
 1513TIP3    H226103   6.527   4.754   7.163 -0.8018 -0.4425 -0.6582
 1514TIP3   OH226104   3.475   3.410   7.077 -0.3278  0.4002  0.0454
 1514TIP3    H126105   3.466   3.316   7.061  0.3993  0.2707  0.3527
 1514TIP3    H226106   3.458   3.450   6.992  1.3307 -0.1499 -0.6011
 1515TIP3   OH226107   5.070   6.534   7.587 -0.1766 -0.1312  0.1270
 1515TIP3    H126108   5.137   6.524   7.519  1.5764 -0.0201  1.7499
 1515TIP3    H226109   5.104   6.485   7.662 -2.1122 -0.3696  0.9266
 1516TIP3   OH226110   0.705   3.217   8.491  0.0091 -0.4359  0.1829
 1516TIP3    H126111   0.657   3.223   8.573  0.8959 -3.5673  1.0350
 1516TIP3    H226112   0.723   3.124   8.479 -0.5349 -0.2417 -3.8783
 1517TIP3   OH226113   0.514   4.033   0.736  0.2202  0.3884  0.0989
 1517TIP3    H126114   0.598   4.062   0.699  1.1712 -1.4505  0.6701
 1517TIP3    H226115   0.480   4.109   0.783  1.0052  1.5072 -1.0927
 1518TIP3   OH226116   3.147   3.488   8.729 -0.1363  0.6963 -0.1075
 1518TIP3    H126117   3.221   3.427   8.735 -1.3230 -0.8293 -0.4780
 1518TIP3    H226118   3.115   3.496   8.819 -0.6593 -0.1270 -0.2099
 1519TIP3   OH226119   1.299   6.533   0.084 -0.4599 -0.3111  0.2966
 1519TIP3    H126120   1.325   6.495   0.167  0.0055 -1.7121 -0.4522
 1519TIP3    H226121   1.203   6.529   0.084 -0.4312 -1.2131  0.3694
 1520TIP3   OH226122   5.935   6.396   8.209  0.1695  0.0535  0.2518
 1520TIP3    H126123   5.927   6.302   8.194  0.2860  0.2429 -1.1596
 1520TIP3    H226124   6.029   6.411   8.222  0.7990  0.4111 -3.4552
 1521TIP3   OH226125   2.708   3.576   2.035  0.3296  0.1316  0.0346
 1521TIP3    H126126   2.789   3.615   2.067  0.1300 -0.0347  0.7563
 1521TIP3    H226127   2.696   3.498   2.088  1.0031 -1.2645 -1.7577
 1522TIP3   OH226128   1.184   2.727   7.115  0.1771 -0.0400  0.3219
 1522TIP3    H126129   1.278   2.734   7.128 -0.0861  2.3142  1.6708
 1522TIP3    H226130   1.169   2.636   7.091  2.6854 -0.6981  0.9868
 1523TIP3   OH226131   6.393   1.778   1.868 -0.1088  0.3915  0.2406
 1523TIP3    H126132   6.346   1.781   1.951 -0.5445 -0.2475  0.0245
 1523TIP3    H226133   6.412   1.870   1.848 -0.5521  0.5938  0.7287
 1524TIP3   OH226134   0.767   3.041   7.470  0.0326  0.4067 -0.3784
 1524TIP3    H126135   0.753   3.001   7.556  0.5965 -1.2112 -0.9965
 1524TIP3    H226136   0.858   3.022   7.449  0.3860  2.2237 -0.6455
 1525TIP3   OH226137   5.935   4.129   0.116 -1.0972 -0.0657 -0.3503
 1525TIP3    H126138   5.979   4.106   0.035 -0.3957 -0.2833  0.0892
 1525TIP3    H226139   6.002   4.123   0.183 -1.1654  2.0756 -0.0224
 1526TIP3   OH226140   5.873   1.016   7.734  0.2823 -0.0568 -0.8866
 1526TIP3    H126141   5.922   0.964   7.797 -1.5689 -1.5439 -0.5856
 1526TIP3    H226142   5.841   1.091   7.785 -0.2084 -0.6248 -0.3452
 1527TIP3   OH226143   5.439   2.164   7.697  0.5576 -0.3384  0.5806
 1527TIP3    H126144   5.426   2.101   7.768 -1.9756  0.2020  0.7085
 1527TIP3    H226145   5.367   2.147   7.637  1.5911  0.4566 -0.9447
 1528TIP3   OH226146   1.785   0.798   7.540 -0.6240  0.4222 -0.6744
 1528TIP3    H126147   1.817   0.722   7.491  0.5269  0.3530  0.1322
 1528TIP3    H226148   1.753   0.762   7.623 -1.0554  0.7126 -0.7093
 1529TIP3   OH226149   3.647   6.106   6.953 -0.2465 -0.0031  0.1129
 1529TIP3    H126150   3.590   6.175   6.918 -0.6778 -0.4646 -0.1028
 1529TIP3    H226151   3.621   6.097   7.044 -2.2373 -1.8743 -0.5459
 1530TIP3   OH226152   0.038   2.109   1.726 -0.0342 -0.4300  0.2631
 1530TIP3    H126153   0.003   2.095   1.638  2.2253  0.5748 -0.8876
 1530TIP3    H226154   0.047   2.204   1.733 -0.5033 -0.4786  1.7278
 1531TIP3   OH226155   5.214   6.510   6.629 -0.6312  0.3920 -0.0298
 1531TIP3    H126156   5.262   6.585   6.665  1.7001 -0.1085 -1.8778
 1531TIP3    H226157   5.138   6.549   6.585  1.5796  2.0236 -2.7165
 1532TIP3   OH226158   0.806   2.595   6.733 -0.5573 -0.5679 -0.2723
 1532TIP3    H126159   0.804   2.690   6.740 -0.1231 -0.5683 -0.1385
 1532TIP3    H226160   0.744   2.565   6.800  2.2233 -0.5015  2.5980
 1533TIP3   OH226161   5.406   0.141   0.537  0.2832 -0.7372 -0.5098
 1533TIP3    H126162   5.350   0.213   0.567  0.8729 -1.2411  2.0684
 1533TIP3    H226163   5.430   0.165   0.448 -1.3727  1.1058 -0.5371
 1534TIP3   OH226164   5.805   0.469   1.502 -0.2252  0.1793  0.1802
 1534TIP3    H126165   5.726   0.416   1.488  1.1467 -2.1673  0.6975
 1534TIP3    H226166   5.831   0.450   1.592  0.6417  1.3322  0.1904
 1535TIP3   OH226167   3.220   6.688   7.054 -0.0555  0.0635 -0.5826
 1535TIP3    H126168   3.204   6.730   6.969  0.0741  0.9762 -0.1678
 1535TIP3    H226169   3.135   6.687   7.097  0.1137  0.7723 -0.2145
 1536TIP3   OH226170   0.842   6.122   8.105  0.6410  0.0926 -1.3731
 1536TIP3    H126171   0.766   6.086   8.150  0.3024 -0.1025 -2.0847
 1536TIP3    H226172   0.881   6.183   8.168  0.0562 -0.0065 -0.9090
 1537TIP3   OH226173   4.884   5.768   6.874  0.6830 -0.7484  0.7439
 1537TIP3    H126174   4.928   5.690   6.842 -0.3372  0.1212 -3.3551
 1537TIP3    H226175   4.911   5.838   6.814  0.3515  1.7472  3.2859
 1538TIP3   OH226176   0.216   3.700   8.790 -0.1757  0.6555  0.5511
 1538TIP3    H126177   0.179   3.672   8.706  0.7429 -1.9610  0.9138
 1538TIP3    H226178   0.308   3.717   8.771 -0.2390  1.2854  0.8008
 1539TIP3   OH226179   3.053   3.877   8.337  0.1248  0.0351 -0.7139
 1539TIP3    H126180   3.009   3.959   8.314  0.1255 -0.1180 -1.2808
 1539TIP3    H226181   2.983   3.820   8.368 -0.0784 -0.1884 -1.5611
 1540TIP3   OH226182   6.177   4.311   8.556  0.3330 -0.0934  0.4827
 1540TIP3    H126183   6.102   4.363   8.587  0.3173  2.5145 -3.3012
 1540TIP3    H226184   6.251   4.344   8.606 -0.0219  2.3245 -0.4629
 1541TIP3   OH226185   5.645   3.422   7.464 -0.0668  0.1638  0.6633
 1541TIP3    H126186   5.734   3.460   7.464 -0.3999  1.0393 -0.6413
 1541TIP3    H226187   5.589   3.494   7.434 -1.0132 -0.7995  0.0753
 1542TIP3   OH226188   3.369   5.250   1.913  0.2659 -0.3197  0.2697
 1542TIP3    H126189   3.323   5.192   1.974 -0.6619  0.6866  0.5702
 1542TIP3    H226190   3.305   5.265   1.844  0.7635 -0.2251 -0.1682
 1543TIP3   OH226191   4.648   5.644   2.285  0.4357  0.1214 -0.2834
 1543TIP3    H126192   4.604   5.639   2.369  2.5193  0.1224  0.8713
 1543TIP3    H226193   4.672   5.736   2.275  0.3598  0.0904 -0.8075
 1544TIP3   OH226194   5.641   5.582   7.285  0.0080  0.1973 -0.3368
 1544TIP3    H126195   5.719   5.590   7.339  0.2070  1.2137 -0.7451
 1544TIP3    H226196   5.569   5.573   7.348  0.5583 -2.4546  0.0400
 1545TIP3   OH226197   1.838   2.656   0.242 -0.4596 -0.1073 -0.0867
 1545TIP3    H126198   1.817   2.750   0.241  0.0295  0.0044 -0.2320
 1545TIP3    H226199   1.755   2.613   0.221 -0.2072  0.3840 -2.3536
 1546TIP3   OH226200   6.026   0.187   1.380  0.0121  0.3722 -0.2334
 1546TIP3    H126201   6.038   0.216   1.290 -1.7162 -1.1107 -1.0080
 1546TIP3    H226202   5.947   0.132   1.378  1.1728 -1.5639  1.7331
 1547TIP3   OH226203   4.095   6.644   1.285 -0.4551  0.1810 -0.3069
 1547TIP3    H126204   4.155   6.587   1.334 -0.3299 -0.2328 -0.9391
 1547TIP3    H226205   4.035   6.677   1.352  0.4080  0.5252  0.3172
 1548TIP3   OH226206   6.194   5.149   7.853 -0.6109 -0.2691 -0.2577
 1548TIP3    H126207   6.254   5.159   7.926 -0.7300  1.1541 -0.3111
 1548TIP3    H226208   6.199   5.057   7.829 -0.4034 -0.7103  1.3911
 1549TIP3   OH226209   1.088   2.627   6.727  0.1224  0.4984 -0.2015
 1549TIP3    H126210   1.135   2.551   6.760  0.6325  2.1609  3.3387
 1549TIP3    H226211   0.997   2.598   6.721  0.4297 -0.6029  0.2914
 1550TIP3   OH226212   0.485   5.335   8.675  0.6766  0.3427 -0.0007
 1550TIP3    H126213   0.437   5.365   8.753  1.9223 -1.4957  1.5496
 1550TIP3    H226214   0.441   5.253   8.650  1.0403  0.3026 -0.5273
 1551TIP3   OH226215   4.013   6.198   0.584 -0.4737  0.1428 -0.5651
 1551TIP3    H126216   4.096   6.199   0.537 -1.2571 -0.6905 -2.0328
 1551TIP3    H226217   3.988   6.291   0.590  0.6484  0.4163  0.0875
 1552TIP3   OH226218   2.430   0.249   1.224 -0.0769  0.0076  0.0167
 1552TIP3    H126219   2.460   0.162   1.253  2.3584  0.6057 -0.5122
 1552TIP3    H226220   2.439   0.247   1.129 -0.5427  0.6719 -0.0481
 1553TIP3   OH226221   6.446   5.072   8.730  0.0415  0.2433 -0.2023
 1553TIP3    H126222   6.468   5.147   8.786 -0.2912 -1.4072  2.3172
 1553TIP3    H226223   6.528   5.052   8.684  1.3595 -0.2073  2.1300
 1554TIP3   OH226224   3.034   0.008   7.431 -0.0524  0.1743  0.1331
 1554TIP3    H126225   3.020   0.092   7.386 -0.4089  0.5747  0.9579
 1554TIP3    H226226   3.119  -0.022   7.400 -1.1853 -0.6537 -2.4688
 1555TIP3   OH226227   5.450   1.849   0.550 -0.2345  0.6400 -0.3037
 1555TIP3    H126228   5.374   1.824   0.602  0.5224  0.8144  0.9579
 1555TIP3    H226229   5.448   1.945   0.551 -0.4057  0.6423 -0.8963
 1556TIP3   OH226230   0.900   5.073   0.842  0.5628  0.0988  0.4250
 1556TIP3    H126231   0.979   5.126   0.830 -0.1038  0.9512 -0.3404
 1556TIP3    H226232   0.866   5.060   0.753  0.9652 -2.0395  0.5361
 1557TIP3   OH226233   6.487   1.790   6.940 -0.9443  0.1982 -0.4942
 1557TIP3    H126234   6.460   1.874   6.977  2.3965  1.1254  0.2366
 1557TIP3    H226235   6.548   1.813   6.870  0.0970 -1.5775 -0.2329
 1558TIP3   OH226236   1.011   6.492   0.120  0.1701  0.0817 -0.0335
 1558TIP3    H126237   0.968   6.429   0.178 -1.4979  2.8698  2.0498
 1558TIP3    H226238   0.943   6.519   0.058  0.3503  0.9419  0.1251
 1559TIP3   OH226239   3.331   4.244   1.039 -0.8785 -0.2377 -0.4279
 1559TIP3    H126240   3.325   4.209   1.127  0.1567 -0.5373 -0.4589
 1559TIP3    H226241   3.261   4.202   0.990  0.1237 -2.0468 -0.3784
 1560TIP3   OH226242   2.569   1.751   7.837  0.0226 -0.8197  0.0167
 1560TIP3    H126243   2.630   1.825   7.833  1.4218 -1.8557  1.0028
 1560TIP3    H226244   2.484   1.790   7.856  0.1064  0.7759 -2.4902
 1561TIP3   OH226245   2.488   2.154   6.985 -0.0275 -0.2684 -0.2169
 1561TIP3    H126246   2.504   2.122   7.074 -0.9891 -0.2960 -0.0447
 1561TIP3    H226247   2.527   2.087   6.928  0.1053 -0.5275  0.1732
 1562TIP3   OH226248   1.785   2.615   8.746  0.5907 -0.4793 -0.2250
 1562TIP3    H126249   1.711   2.578   8.795  0.0667  1.4616  0.5631
 1562TIP3    H226250   1.838   2.660   8.812  0.9403  0.5404 -1.1566
 1563TIP3   OH226251   1.799   2.465   7.367  0.3064 -0.2383 -0.3994
 1563TIP3    H126252   1.843   2.525   7.307  1.4192 -2.1220 -1.6040
 1563TIP3    H226253   1.863   2.450   7.437 -0.6466  1.2681  0.8399
 1564TIP3   OH226254   1.089   5.407   1.567  0.3259 -0.1373 -0.1781
 1564TIP3    H126255   1.104   5.445   1.654 -0.1578 -0.1528 -0.0819
 1564TIP3    H226256   1.175   5.407   1.525  0.5115  0.1332  0.1963
 1565TIP3   OH226257   4.064   5.464   7.918  0.0267 -0.4044  0.1858
 1565TIP3    H126258   4.121   5.497   7.849  0.7760 -0.0458  0.9538
 1565TIP3    H226259   3.993   5.529   7.924  0.5524  0.1505  0.4979
 1566TIP3   OH226260   2.635   5.347   7.877  0.3889 -0.1493 -0.2391
 1566TIP3    H126261   2.683   5.314   7.801 -0.0916 -2.3730  0.3471
 1566TIP3    H226262   2.681   5.311   7.952 -1.6016 -1.6371  0.3700
 1567TIP3   OH226263   1.695   0.105   7.060  0.2904 -0.6890 -0.2577
 1567TIP3    H126264   1.735   0.068   7.139  1.5872 -0.3919 -0.7435
 1567TIP3    H226265   1.729   0.051   6.989 -1.6767 -1.6017 -0.5598
 1568TIP3   OH226266   4.599   1.461   6.415 -0.0875  0.1395  0.2832
 1568TIP3    H126267   4.629   1.371   6.401 -0.1841  0.0662  0.5365
 1568TIP3    H226268   4.510   1.462   6.379  0.2914  0.4157 -0.6704
 1569TIP3   OH226269   1.564   4.143   8.487  0.7985 -0.1095  0.1399
 1569TIP3    H126270   1.469   4.151   8.480  0.5464 -2.1604  0.6827
 1569TIP3    H226271   1.597   4.161   8.399 -0.1832 -0.4272 -0.3025
 1570TIP3   OH226272   3.455   6.201   0.769 -0.3143 -0.0788 -0.2171
 1570TIP3    H126273   3.451   6.187   0.675  1.3987  2.6725 -0.7884
 1570TIP3    H226274   3.382   6.260   0.788  1.6279  2.6026 -0.6019
 1571TIP3   OH226275   3.623   4.693   7.381 -0.6405 -0.0380 -0.6587
 1571TIP3    H126276   3.632   4.669   7.474  1.2579 -1.2334 -1.0874
 1571TIP3    H226277   3.641   4.612   7.334  0.7412  1.0571 -2.1017
 1572TIP3   OH226278   0.480   5.743   0.944 -0.2628  0.3017 -0.0939
 1572TIP3    H126279   0.508   5.710   0.858 -0.3404  1.8697 -0.7600
 1572TIP3    H226280   0.404   5.798   0.924 -1.1825 -0.4614  1.1771
 1573TIP3   OH226281   3.179   3.233   0.264  0.0160  0.0566  0.0236
 1573TIP3    H126282   3.133   3.191   0.191 -2.1416 -1.1827  1.9477
 1573TIP3    H226283   3.226   3.161   0.306 -2.1126 -0.2249  2.1828
 1574TIP3   OH226284   3.902   1.939   0.961 -0.3273  0.5655  0.4357
 1574TIP3    H126285   3.882   1.901   0.875 -0.4617  1.7975 -0.1027
 1574TIP3    H226286   3.997   1.935   0.967 -0.1708  2.0185 -0.5499
 1575TIP3   OH226287   1.163   5.193   0.086  0.1150  0.9207  0.0354
 1575TIP3    H126288   1.102   5.256   0.048 -0.7816  0.4444  0.6168
 1575TIP3    H226289   1.241   5.244   0.107 -0.1960  1.6147 -0.4505
 1576TIP3   OH226290   2.658   6.544   1.765  0.4193  0.3300 -0.3874
 1576TIP3    H126291   2.725   6.533   1.833 -0.8428  0.0315  0.8552
 1576TIP3    H226292   2.674   6.472   1.704 -0.6709 -1.7004  1.5906
 1577TIP3   OH226293   2.974   0.597   8.382  0.4364 -0.3374  0.4951
 1577TIP3    H126294   2.897   0.617   8.328 -0.4954 -2.8171  0.7615
 1577TIP3    H226295   2.938   0.576   8.468  1.5593 -0.2201  1.0075
 1578TIP3   OH226296   6.637   2.943   1.344 -0.0043 -0.7801  0.1061
 1578TIP3    H126297   6.676   2.972   1.262 -0.0097 -0.0608  0.3522
 1578TIP3    H226298   6.545   2.924   1.321  0.1643 -1.2532 -0.1968
 1579TIP3   OH226299   5.520   1.135   1.678 -0.2622 -0.4160 -0.2419
 1579TIP3    H126300   5.561   1.210   1.723  1.8570 -0.2087 -2.3042
 1579TIP3    H226301   5.581   1.115   1.607 -0.3128 -4.6877  0.6960
 1580TIP3   OH226302   4.876   3.620   7.370  0.1492 -0.3319 -0.2759
 1580TIP3    H126303   4.924   3.565   7.431  0.3482 -0.4878 -0.5700
 1580TIP3    H226304   4.938   3.689   7.345 -0.4435  0.6769  0.9330
 1581TIP3   OH226305   4.597   0.228   2.269 -0.1897  0.3509  0.1808
 1581TIP3    H126306   4.663   0.289   2.237 -1.1639  0.7747 -1.1370
 1581TIP3    H226307   4.644   0.146   2.284  0.6899  0.7391 -0.4036
 1582TIP3   OH226308   0.955   0.659   7.984 -0.1554  0.0350 -0.6278
 1582TIP3    H126309   0.883   0.619   8.033 -0.2639 -0.3780 -1.1155
 1582TIP3    H226310   0.924   0.662   7.893  0.2160  0.3851 -0.7472
 1583TIP3   OH226311   3.303   5.674   1.208  0.3987  0.2151 -0.1592
 1583TIP3    H126312   3.387   5.670   1.163  0.2403 -0.0800 -0.4307
 1583TIP3    H226313   3.292   5.767   1.230  2.5196 -0.1832  3.1982
 1584TIP3   OH226314   2.461   3.211   0.174 -0.0290 -0.2845  0.5971
 1584TIP3    H126315   2.437   3.251   0.090  0.3600  1.6565  1.3573
 1584TIP3    H226316   2.521   3.140   0.150 -1.3269 -0.9287 -0.8675
 1585TIP3   OH226317   0.446   4.408   6.515 -0.7303 -0.4853 -0.2908
 1585TIP3    H126318   0.378   4.439   6.575 -0.4503 -0.0311 -0.2036
 1585TIP3    H226319   0.483   4.488   6.478  0.2885 -0.6908  0.2571
 1586TIP3   OH226320   4.021   6.685   8.072  0.4209  0.4956  0.3533
 1586TIP3    H126321   4.076   6.654   8.001  1.5925 -1.3157  1.9576
 1586TIP3    H226322   4.063   6.766   8.102  0.1590  1.0363 -0.6968
 1587TIP3   OH226323   3.953   4.658   7.476  0.0214  0.6799  0.2176
 1587TIP3    H126324   3.869   4.669   7.522  0.9037  3.0658  1.4405
 1587TIP3    H226325   3.941   4.702   7.392  0.1027  1.1899  0.4722
 1588TIP3   OH226326   5.724   4.999   1.726 -0.6968 -0.3177 -0.6533
 1588TIP3    H126327   5.746   4.925   1.783 -1.3821 -1.4330 -1.7929
 1588TIP3    H226328   5.629   5.007   1.734 -0.7175 -0.0668 -1.1435
 1589TIP3   OH226329   1.949   3.527   6.441 -0.0929 -0.1737  0.1790
 1589TIP3    H126330   2.018   3.586   6.412  0.1897  0.6413  2.3441
 1589TIP3    H226331   1.988   3.440   6.437  0.5741  0.1311  0.0425
 1590TIP3   OH226332   6.461   6.561   1.326 -0.4632  0.0865  0.0660
 1590TIP3    H126333   6.374   6.594   1.349 -0.1227 -0.4178  2.2959
 1590TIP3    H226334   6.512   6.640   1.308 -0.5099  0.6549  2.1657
 1591TIP3   OH226335   3.851   0.373   7.338 -0.4244 -0.5281  0.2661
 1591TIP3    H126336   3.771   0.376   7.286  0.5164  1.8593 -1.2544
 1591TIP3    H226337   3.921   0.364   7.273  0.6434 -0.8563  1.4182
 1592TIP3   OH226338   5.001   3.637   0.146 -0.7073 -0.0673  0.7722
 1592TIP3    H126339   5.056   3.650   0.223 -0.1934 -0.9557  0.5635
 1592TIP3    H226340   4.912   3.628   0.182 -0.2801 -2.2117  1.4561
 1593TIP3   OH226341   0.855   0.327   0.311 -0.2875 -0.4619  0.3490
 1593TIP3    H126342   0.866   0.378   0.391  0.9113 -2.2498  1.3843
 1593TIP3    H226343   0.775   0.276   0.326 -0.4571 -0.2732  0.0973
 1594TIP3   OH226344   0.217   0.251   7.197  0.6052 -0.2416 -0.1621
 1594TIP3    H126345   0.133   0.297   7.193  0.0779 -1.2227 -0.8352
 1594TIP3    H226346   0.247   0.265   7.286 -0.2696  0.1396  0.0901
 1595TIP3   OH226347   0.004   5.340   8.654 -0.2903  0.2213 -0.6479
 1595TIP3    H126348   0.049   5.411   8.700 -1.1516 -0.5625  1.5368
 1595TIP3    H226349   0.015   5.361   8.561  1.4532  1.9458 -0.1203
 1596TIP3   OH226350   2.402   4.617   1.802 -0.0362  0.1644  0.5220
 1596TIP3    H126351   2.429   4.668   1.726 -0.3515  0.0220  0.3144
 1596TIP3    H226352   2.458   4.539   1.799  0.2598  0.3648  0.6906
 1597TIP3   OH226353   4.738   1.947   6.763  0.2150 -0.5807 -0.0873
 1597TIP3    H126354   4.683   2.003   6.819  1.3793 -0.0064  0.5138
 1597TIP3    H226355   4.696   1.861   6.767 -1.1545  0.0444 -0.3874
 1598TIP3   OH226356   1.513   3.314   8.256 -0.5194  0.2817  0.5881
 1598TIP3    H126357   1.475   3.265   8.329 -0.5712  0.0715  0.4212
 1598TIP3    H226358   1.469   3.280   8.178  1.3039 -1.3285  0.1684
 1599TIP3   OH226359   2.770   4.596   7.204 -0.1428  0.4912 -0.2524
 1599TIP3    H126360   2.802   4.511   7.234 -0.3611  0.2484 -0.7054
 1599TIP3    H226361   2.805   4.606   7.116  0.5602  1.2441  0.1032
 1600TIP3   OH226362   2.956   1.730   0.130 -0.0151 -0.2189 -0.2497
 1600TIP3    H126363   2.899   1.769   0.196  1.7445  0.3900  0.9928
 1600TIP3    H226364   2.964   1.797   0.063 -0.9677 -0.4196 -0.5705
 1601TIP3   OH226365   5.656   0.912   7.168  0.0105 -0.0841  0.4282
 1601TIP3    H126366   5.580   0.943   7.119  0.4177  1.4341  0.7011
 1601TIP3    H226367   5.669   0.978   7.236  2.5174  0.5867 -0.5735
 1602TIP3   OH226368   4.975   1.180   7.951  0.3514 -0.0243  0.6550
 1602TIP3    H126369   5.008   1.113   8.012  1.4145  0.3604  0.5189
 1602TIP3    H226370   4.968   1.134   7.867  0.3055 -0.1660  0.7349
 1603TIP3   OH226371   1.710   5.277   8.250  0.8490  0.0486 -0.2267
 1603TIP3    H126372   1.674   5.202   8.297  0.2521  0.0751 -0.6269
 1603TIP3    H226373   1.804   5.273   8.266  0.5978  0.4368  1.5165
 1604TIP3   OH226374   2.259   3.403   8.416  0.1370  0.5119 -0.4443
 1604TIP3    H126375   2.273   3.487   8.373  0.4070  0.9167  0.4136
 1604TIP3    H226376   2.322   3.344   8.374  0.4060  0.9049 -0.6030
 1605TIP3   OH226377   2.017   0.549   7.805 -0.2954  0.4063 -0.4607
 1605TIP3    H126378   1.952   0.527   7.739 -0.3029  0.1334 -0.3623
 1605TIP3    H226379   2.075   0.473   7.809 -0.0129  0.6162 -0.4948
 1606TIP3   OH226380   5.020   4.507   0.774  0.8015  0.0067 -0.1548
 1606TIP3    H126381   5.049   4.528   0.685 -0.3908  1.1515 -0.3127
 1606TIP3    H226382   4.925   4.497   0.766  0.9807 -3.1369  0.4160
 1607TIP3   OH226383   0.676   5.258   8.309 -0.0605 -0.1742  0.0645
 1607TIP3    H126384   0.625   5.277   8.230  0.8101 -0.4896 -0.5885
 1607TIP3    H226385   0.679   5.341   8.356 -2.3806 -0.4591  0.8728
 1608TIP3   OH226386   0.181   0.844   0.069 -0.5105  0.0259  0.5145
 1608TIP3    H126387   0.215   0.833  -0.020  0.0493 -0.0863  0.7377
 1608TIP3    H226388   0.172   0.754   0.102 -1.7379  0.0114  0.2040
 1609TIP3   OH226389   2.472   2.671   6.548  0.1642  0.2197 -0.9339
 1609TIP3    H126390   2.482   2.579   6.523  0.2978  0.2423 -0.9663
 1609TIP3    H226391   2.439   2.667   6.638  1.0818  0.1378 -0.5913
 1610TIP3   OH226392   4.409   3.805   1.641  0.2533  0.0376 -0.6752
 1610TIP3    H126393   4.498   3.821   1.674 -0.5251  2.4683  0.4960
 1610TIP3    H226394   4.375   3.736   1.698  0.8282  0.2831 -0.0127
 1611TIP3   OH226395   2.130   0.781   7.882 -0.0298  0.1446 -0.2740
 1611TIP3    H126396   2.096   0.693   7.870  0.3104  0.0719 -0.7195
 1611TIP3    H226397   2.093   0.810   7.965  1.8462 -1.3627  1.2033
 1612TIP3   OH226398   1.299   3.023   0.014 -0.0251 -0.1484 -0.2432
 1612TIP3    H126399   1.323   3.013  -0.078  1.5270  0.5466  0.0593
 1612TIP3    H226400   1.363   2.971   0.062 -1.2298 -1.0685  0.4391
 1613TIP3   OH226401   6.767   6.549   0.544 -0.3602  0.1046  0.0494
 1613TIP3    H126402   6.745   6.633   0.586  0.5039 -0.4368  1.6756
 1613TIP3    H226403   6.751   6.484   0.612  0.2037 -0.9163 -0.7841
 1614TIP3   OH226404   3.089   2.278   0.457  0.6695 -0.0578  0.2613
 1614TIP3    H126405   3.122   2.294   0.369 -2.8579 -2.7377 -1.8201
 1614TIP3    H226406   3.129   2.194   0.482  1.4756  0.5806  1.1656
 1615TIP3   OH226407   1.888   4.819   1.417 -0.4484 -0.2754 -0.2708
 1615TIP3    H126408   1.885   4.743   1.475  0.2510 -0.4917 -0.5035
 1615TIP3    H226409   1.804   4.818   1.371  0.1607 -1.8386 -1.4267
 1616TIP3   OH226410   0.350   4.638   8.571 -0.0996 -0.1005 -0.7036
 1616TIP3    H126411   0.414   4.567   8.567 -0.9102 -0.8384 -0.8661
 1616TIP3    H226412   0.367   4.680   8.655  1.1926  0.2992 -1.1463
 1617TIP3   OH226413   6.658   1.722   7.147 -0.3325 -0.1499  0.6184
 1617TIP3    H126414   6.698   1.802   7.181  2.4552 -0.5956 -1.2094
 1617TIP3    H226415   6.602   1.752   7.076 -2.1983  0.3749  2.2283
 1618TIP3   OH226416   0.366   5.602   1.420  0.1440  0.1271  0.0452
 1618TIP3    H126417   0.352   5.692   1.391 -3.9267  0.2279  1.6731
 1618TIP3    H226418   0.307   5.550   1.364 -1.2039 -0.7804  2.1940
 1619TIP3   OH226419   6.120   2.298   0.527  0.2305  0.4389 -0.3131
 1619TIP3    H126420   6.145   2.254   0.608 -0.7586 -0.1154 -0.2877
 1619TIP3    H226421   6.033   2.263   0.507 -0.1388  1.6126 -0.8619
 1620TIP3   OH226422   3.034   5.074   6.630  0.1473 -0.4545  0.2572
 1620TIP3    H126423   3.066   5.161   6.605  1.5126 -1.1090 -0.3432
 1620TIP3    H226424   2.957   5.061   6.574 -1.3957  1.2096  1.8478
 1621TIP3   OH226425   5.700   2.270   0.317  0.5094 -0.1436  0.1049
 1621TIP3    H126426   5.657   2.235   0.395  1.5468 -0.3827  0.5974
 1621TIP3    H226427   5.703   2.197   0.256 -0.0785 -0.0290 -0.0625
 1622TIP3   OH226428   5.371   2.091   8.189  0.5467  0.4268  0.1732
 1622TIP3    H126429   5.332   2.056   8.110 -0.6852 -2.6332  1.9768
 1622TIP3    H226430   5.394   2.181   8.166  1.0917 -0.5319 -3.8771
 1623TIP3   OH226431   1.285   1.211   8.296 -0.0800 -0.0385  0.0887
 1623TIP3    H126432   1.321   1.122   8.289 -2.6163 -1.2002  0.5862
 1623TIP3    H226433   1.309   1.253   8.213  0.1126 -1.6383 -0.7037
 1624TIP3   OH226434   5.090   4.745   6.440 -0.0958 -0.2811 -0.2786
 1624TIP3    H126435   5.118   4.682   6.508  0.3532 -0.2978 -0.4758
 1624TIP3    H226436   4.994   4.741   6.442 -0.0791 -0.5973  0.0636
 1625TIP3   OH226437   5.079   5.470   7.234  0.0217  0.5647 -0.0625
 1625TIP3    H126438   5.101   5.540   7.296  1.7894  1.0735 -1.1669
 1625TIP3    H226439   5.089   5.511   7.147 -0.3156 -0.6828 -0.7111
 1626TIP3   OH226440   1.364   0.718   1.319  0.7446  0.2092  0.7094
 1626TIP3    H126441   1.361   0.680   1.231 -0.1540  2.0564 -0.1168
 1626TIP3    H226442   1.452   0.757   1.326  1.4340 -1.3686  1.3181
 1627TIP3   OH226443   5.132   1.119   8.396  0.4376  0.0967 -0.2380
 1627TIP3    H126444   5.198   1.158   8.339 -0.3586  3.9577  1.1935
 1627TIP3    H226445   5.128   1.176   8.472 -2.3497 -1.7812  1.2098
 1628TIP3   OH226446   0.350   0.835   1.037  0.4814  1.2143 -0.1055
 1628TIP3    H126447   0.273   0.809   1.088  0.7872  0.0480 -0.2072
 1628TIP3    H226448   0.424   0.824   1.098  0.8693 -0.3565 -0.7972
 1629TIP3   OH226449   5.169   0.428   8.349 -0.5229 -0.2637 -0.1746
 1629TIP3    H126450   5.199   0.468   8.267  1.9105 -1.3970  0.0930
 1629TIP3    H226451   5.169   0.334   8.331  1.4664 -0.6412  1.5015
 1630TIP3   OH226452   3.874   0.734   7.400  0.4105 -0.0441  0.2675
 1630TIP3    H126453   3.923   0.715   7.480 -0.1721  0.5357  0.7660
 1630TIP3    H226454   3.843   0.648   7.370 -0.1702 -0.1607  1.1886
 1631TIP3   OH226455   2.539   3.286   8.668 -0.1315 -0.0912  0.3719
 1631TIP3    H126456   2.603   3.317   8.733  0.1397 -0.4240  0.2639
 1631TIP3    H226457   2.590   3.232   8.608 -0.9248 -2.4076  1.6684
 1632TIP3   OH226458   6.274   0.406   1.494 -0.4487 -0.3050  0.8967
 1632TIP3    H126459   6.303   0.324   1.534  1.9461  0.0411  0.0270
 1632TIP3    H226460   6.323   0.474   1.542 -0.9896  0.4613  0.3863
 1633TIP3   OH226461   4.035   4.908   8.494 -0.1495  0.1275  0.6155
 1633TIP3    H126462   4.065   4.917   8.403  1.6165 -2.7221  0.7881
 1633TIP3    H226463   3.951   4.863   8.488 -0.1659  0.1898  0.3847
 1634TIP3   OH226464   5.478   1.643   6.903 -0.2065  0.3172  0.3118
 1634TIP3    H126465   5.403   1.594   6.937 -0.8187  1.1999  0.2583
 1634TIP3    H226466   5.468   1.642   6.808  0.6404 -0.7806  0.2125
 1635TIP3   OH226467   3.427   2.141   0.194  0.3046  0.5904  0.0846
 1635TIP3    H126468   3.406   2.112   0.283 -2.2395  1.5474 -0.1044
 1635TIP3    H226469   3.420   2.061   0.141  0.3190  0.2872  0.5337
 1636TIP3   OH226470   5.569   4.102   7.169  0.0016  0.0771  0.0272
 1636TIP3    H126471   5.542   4.191   7.146  0.6712  0.4383  0.5934
 1636TIP3    H226472   5.639   4.081   7.107  0.1348  0.1071  0.1677
 1637TIP3   OH226473   3.948   0.176   8.032 -0.1003 -0.0992  0.5303
 1637TIP3    H126474   4.008   0.127   7.976 -1.3383 -0.4200 -0.5871
 1637TIP3    H226475   3.954   0.266   8.001 -0.3304 -0.1722  0.2560
 1638TIP3   OH226476   3.148   1.512   8.155  0.3573 -0.5352 -0.1590
 1638TIP3    H126477   3.098   1.572   8.211 -0.1075  0.4201 -1.5620
 1638TIP3    H226478   3.234   1.554   8.145 -0.0548  0.0524 -1.3563
 1639TIP3   OH226479   4.677   1.761   8.278 -0.7245 -0.4258  0.4293
 1639TIP3    H126480   4.759   1.736   8.321 -0.3240  1.1822  0.6585
 1639TIP3    H226481   4.627   1.680   8.272  0.9887 -1.5043  0.0407
 1640TIP3   OH226482   5.774   1.296   8.701 -0.3112  0.2178  0.1915
 1640TIP3    H126483   5.682   1.291   8.675  0.2504 -2.6566 -1.7298
 1640TIP3    H226484   5.785   1.227   8.766 -0.0816  2.6492  2.9434
 1641TIP3   OH226485   4.329   4.486   7.222 -0.3493 -0.7351 -0.1958
 1641TIP3    H126486   4.381   4.420   7.267  1.3057 -0.5081 -1.6369
 1641TIP3    H226487   4.240   4.473   7.253  0.4070 -1.7970  1.6439
 1642TIP3   OH226488   0.321   4.555   6.006 -0.5601 -0.6045  0.6957
 1642TIP3    H126489   0.379   4.484   5.979  0.2820  0.0497  0.7465
 1642TIP3    H226490   0.375   4.611   6.062 -1.8831 -1.1951  2.6554
 1643TIP3   OH226491   0.456   2.586   1.353  0.0088  0.0166  0.5574
 1643TIP3    H126492   0.512   2.603   1.277 -1.0730  2.6624  0.2604
 1643TIP3    H226493   0.384   2.533   1.318 -1.3018  2.4813 -0.7356
 1644TIP3   OH226494   0.353   6.359   1.405  0.0483  0.6514  0.3656
 1644TIP3    H126495   0.383   6.313   1.327  0.0253 -0.0162  0.7371
 1644TIP3    H226496   0.367   6.451   1.386  2.1665  0.3944  0.4497
 1645TIP3   OH226497   1.937   3.379   1.630 -0.3536  0.0772  0.6487
 1645TIP3    H126498   1.952   3.405   1.721 -0.6000  2.2614  0.1222
 1645TIP3    H226499   1.850   3.339   1.631 -1.1137  1.6628  1.1199
 1646TIP3   OH226500   4.126   5.520   8.718  0.0670  0.2434  0.3050
 1646TIP3    H126501   4.130   5.464   8.795 -0.3853 -2.7273 -1.6647
 1646TIP3    H226502   4.213   5.513   8.679  0.1430  1.3302  0.2439
 1647TIP3   OH226503   2.361   5.792   1.562 -0.3220 -0.1585  0.0823
 1647TIP3    H126504   2.384   5.714   1.612 -1.7257 -1.1436 -0.7343
 1647TIP3    H226505   2.265   5.793   1.563 -0.3392  0.7193 -1.1821
 1648TIP3   OH226506   2.659   5.300   0.850 -0.2330  0.2616  0.3345
 1648TIP3    H126507   2.597   5.303   0.778 -1.6699 -0.9242  1.4441
 1648TIP3    H226508   2.745   5.288   0.808 -0.9380  0.3000 -1.1774
 1649TIP3   OH226509   2.387   2.891   8.181 -0.0244  0.3339  0.4448
 1649TIP3    H126510   2.374   2.799   8.159 -1.4585  0.8750 -1.1322
 1649TIP3    H226511   2.409   2.933   8.098  2.5453  1.1495  1.4276
 1650TIP3   OH226512   0.286   1.454   6.278 -0.5494 -0.1606 -0.4141
 1650TIP3    H126513   0.307   1.364   6.253 -1.8638 -0.2881 -1.1808
 1650TIP3    H226514   0.341   1.471   6.354 -0.7078 -1.8240  0.1316
 1651TIP3   OH226515   0.311   4.033   7.977 -0.2200  0.1868 -0.0247
 1651TIP3    H126516   0.329   4.127   7.978  0.1361  0.1204 -0.0172
 1651TIP3    H226517   0.380   3.995   8.032 -0.1113 -0.1229 -0.3740
 1652TIP3   OH226518   4.597   1.620   0.350  0.5536 -0.7772 -0.0674
 1652TIP3    H126519   4.521   1.645   0.298  0.8890  0.0652 -0.1609
 1652TIP3    H226520   4.667   1.678   0.320  0.0838  1.8784  3.3757
 1653TIP3   OH226521   2.220   6.339   7.265 -0.6184 -0.6750 -0.3945
 1653TIP3    H126522   2.249   6.270   7.205  0.8870 -0.2978 -0.1353
 1653TIP3    H226523   2.200   6.293   7.347  1.2163 -0.7342  0.0511
 1654TIP3   OH226524   3.377   0.546   7.310  0.7170  0.3728  0.6388
 1654TIP3    H126525   3.353   0.538   7.402 -1.2295  0.0827  0.1458
 1654TIP3    H226526   3.396   0.457   7.282 -0.9924  0.1010  0.2188
 1655TIP3   OH226527   6.392   1.401   0.823 -1.6520 -0.2112  0.4547
 1655TIP3    H126528   6.390   1.309   0.849 -0.6942 -1.0974 -2.2972
 1655TIP3    H226529   6.485   1.424   0.826 -1.6035 -0.0921 -1.1190
 1656TIP3   OH226530   4.115   3.451   1.933  0.5222 -0.6609  0.2191
 1656TIP3    H126531   4.178   3.466   1.862  1.3383 -1.9129  0.6595
 1656TIP3    H226532   4.034   3.424   1.889  1.0571 -1.5363 -0.2426
 1657TIP3   OH226533   2.279   0.943   1.831 -0.4339 -0.0494 -0.0477
 1657TIP3    H126534   2.284   0.857   1.874  2.0993  0.5261  1.0608
 1657TIP3    H226535   2.368   0.978   1.839 -1.4570  2.8410 -0.1367
 1658TIP3   OH226536   4.737   1.050   0.531  0.4643  0.5989 -0.3161
 1658TIP3    H126537   4.808   1.075   0.471  0.4439  1.6745  0.0883
 1658TIP3    H226538   4.781   1.003   0.601  0.6423  0.3693 -0.5787
 1659TIP3   OH226539   5.109   4.349   2.310  0.0081  0.2225  0.4492
 1659TIP3    H126540   5.187   4.327   2.259  0.3870  0.7979  0.7594
 1659TIP3    H226541   5.057   4.404   2.252 -1.2707 -1.9461 -0.5768
 1660TIP3   OH226542   4.052   6.543   0.860 -0.0816  0.2901 -0.1752
 1660TIP3    H126543   4.018   6.520   0.773 -0.6001  1.9761 -0.4711
 1660TIP3    H226544   4.111   6.617   0.843  1.8029 -0.9707  0.6466
 1661TIP3   OH226545   6.782   5.144   6.336 -0.2921 -0.1848 -0.0615
 1661TIP3    H126546   6.696   5.129   6.299  0.0179 -1.7367 -0.2124
 1661TIP3    H226547   6.828   5.061   6.325  1.2406  0.6221 -0.0275
 1662TIP3   OH226548   5.829   4.307   0.551 -0.1310 -0.5682  0.2200
 1662TIP3    H126549   5.794   4.396   0.557 -1.4701 -1.1077  0.6213
 1662TIP3    H226550   5.924   4.319   0.551 -0.2890  0.9460 -1.1241
 1663TIP3   OH226551   3.182   4.972   6.820  0.1904 -0.3013 -0.4698
 1663TIP3    H126552   3.109   5.018   6.778  0.1371  1.6140  1.5252
 1663TIP3    H226553   3.141   4.896   6.862 -0.7477  0.7816  0.6795
 1664TIP3   OH226554   4.313   2.847   7.157 -0.0222  0.3873 -0.0109
 1664TIP3    H126555   4.369   2.884   7.225  1.0114  2.5543 -1.8732
 1664TIP3    H226556   4.272   2.924   7.116 -2.1548 -0.9642 -0.5593
 1665TIP3   OH226557   2.423   5.485   1.373 -0.4288 -0.0128 -0.5773
 1665TIP3    H126558   2.508   5.442   1.372  0.5559  1.8327 -0.7822
 1665TIP3    H226559   2.362   5.420   1.338  1.2723 -0.6118 -2.5785
 1666TIP3   OH226560   2.454   5.142   0.538 -0.3301 -0.0124  0.3751
 1666TIP3    H126561   2.464   5.062   0.591  1.2361  1.5225  2.5846
 1666TIP3    H226562   2.364   5.170   0.556 -1.4142 -1.9260 -1.5541
 1667TIP3   OH226563   2.081   1.103   7.715  0.3694 -0.0846 -0.3228
 1667TIP3    H126564   2.153   1.113   7.776  0.0816  0.7687 -0.1117
 1667TIP3    H226565   2.007   1.075   7.769  0.9452 -2.7749 -0.7789
 1668TIP3   OH226566   1.998   0.187   7.866  0.1771  0.2553  0.1235
 1668TIP3    H126567   2.021   0.185   7.959 -0.1408 -1.5746  0.2091
 1668TIP3    H226568   2.081   0.184   7.820  0.3104  0.4858  0.3463
 1669TIP3   OH226569   0.888   1.205   0.284  0.1145 -0.6256  0.1397
 1669TIP3    H126570   0.846   1.251   0.357 -0.1608 -0.4051 -0.1547
 1669TIP3    H226571   0.913   1.275   0.224 -1.0849 -0.9114 -0.7229
 1670TIP3   OH226572   4.143   6.216   1.298 -0.1147  0.2157 -0.2643
 1670TIP3    H126573   4.112   6.232   1.209  1.0262  1.6825 -0.4373
 1670TIP3    H226574   4.063   6.218   1.352 -0.7637 -0.2595 -1.1869
 1671TIP3   OH226575   1.039   3.577   6.791  0.3678 -0.0315  0.8681
 1671TIP3    H126576   1.017   3.487   6.768  1.4013 -0.4968  1.6394
 1671TIP3    H226577   0.955   3.620   6.804 -0.1274 -0.9581  0.7728
 1672TIP3   OH226578   6.136   0.249   8.778  0.1130  0.2602 -0.7773
 1672TIP3    H126579   6.059   0.285   8.822  0.3286  2.1213 -1.8093
 1672TIP3    H226580   6.131   0.285   8.689  2.0933  0.3160 -0.8972
 1673TIP3   OH226581   0.134   3.107   0.164 -0.5005 -0.1831  0.2127
 1673TIP3    H126582   0.141   3.199   0.190  0.5805 -0.3204  0.4303
 1673TIP3    H226583   0.186   3.059   0.229 -2.4207 -1.1502  1.1171
 1674TIP3   OH226584   3.183   0.773   8.468 -0.0835  0.5268  0.1263
 1674TIP3    H126585   3.230   0.807   8.392  0.2986 -1.5771 -0.6360
 1674TIP3    H226586   3.129   0.703   8.433  0.2495 -0.6202  1.8040
 1675TIP3   OH226587   1.363   4.231   7.714 -0.1465 -0.0002 -0.3382
 1675TIP3    H126588   1.281   4.235   7.762 -0.8446  1.2589 -1.5542
 1675TIP3    H226589   1.358   4.149   7.665 -0.5086 -0.1072 -0.1270
 1676TIP3   OH226590   5.859   3.460   1.430  0.2105  0.2798  0.0860
 1676TIP3    H126591   5.941   3.508   1.422  0.0214  0.6104  0.0778
 1676TIP3    H226592   5.884   3.368   1.435  0.4902  0.2188 -1.7391
 1677TIP3   OH226593   4.920   3.663   0.825  0.0680  0.5654 -0.0225
 1677TIP3    H126594   4.826   3.676   0.812  0.0091  0.0912 -0.0790
 1677TIP3    H226595   4.962   3.725   0.765 -0.2092  0.5268 -0.2557
 1678TIP3   OH226596   1.933   5.493   7.649  0.1741 -0.0498  0.5212
 1678TIP3    H126597   1.901   5.572   7.692 -1.3426 -0.2023 -0.2489
 1678TIP3    H226598   1.885   5.490   7.566 -0.5815 -2.3142  0.9726
 1679TIP3   OH226599   6.321   3.553   0.931 -0.3381 -0.6362 -0.2335
 1679TIP3    H126600   6.231   3.550   0.898 -0.7151  2.7021  0.2219
 1679TIP3    H226601   6.370   3.600   0.864  0.1989  0.8712  1.1581
 1680TIP3   OH226602   0.994   5.078   7.729 -0.0017  0.5087 -0.0722
 1680TIP3    H126603   0.981   5.164   7.769 -0.8464  0.5464 -0.4189
 1680TIP3    H226604   1.077   5.087   7.681 -0.3504  1.3016 -0.5502
 1681TIP3   OH226605   2.174   5.396   7.433  0.5681 -0.6564 -0.2380
 1681TIP3    H126606   2.224   5.315   7.446 -0.1776 -1.0652  0.0962
 1681TIP3    H226607   2.193   5.449   7.510  0.4951 -0.8084 -0.1149
 1682TIP3   OH226608   6.166   2.648   1.657  0.2287 -0.5803 -0.1104
 1682TIP3    H126609   6.248   2.602   1.677  1.2508  0.9972 -0.4884
 1682TIP3    H226610   6.174   2.732   1.702 -0.4616  0.2411 -1.4437
 1683TIP3   OH226611   5.915   2.320   0.038  0.2716 -0.6635 -0.0840
 1683TIP3    H126612   5.901   2.233   0.075  1.3239 -0.5774  0.5573
 1683TIP3    H226613   5.904   2.379   0.113  2.8470 -0.5162  0.2680
 1684TIP3   OH226614   5.161   2.877   6.915 -0.3228 -0.1382  0.1694
 1684TIP3    H126615   5.203   2.872   6.830 -0.3343 -0.6011  0.1871
 1684TIP3    H226616   5.104   2.800   6.918  0.3095 -0.5847  0.9311
 1685TIP3   OH226617   1.616   4.510   7.774  0.0402  0.0047 -0.4571
 1685TIP3    H126618   1.612   4.438   7.712  2.2018 -0.4876 -0.1045
 1685TIP3    H226619   1.574   4.476   7.853 -0.9902 -0.0317 -1.0006
 1686TIP3   OH226620   3.958   6.319   1.480 -0.1490  0.1655 -0.1462
 1686TIP3    H126621   3.871   6.317   1.440 -0.2740 -0.7940  0.1722
 1686TIP3    H226622   3.942   6.327   1.573  0.1196  0.5728 -0.1312
 1687TIP3   OH226623   1.943   0.578   1.686  0.0984  0.4069 -0.1953
 1687TIP3    H126624   1.850   0.600   1.697 -0.7334 -2.0186 -1.7082
 1687TIP3    H226625   1.968   0.537   1.769 -0.3564  0.4975 -0.0097
 1688TIP3   OH226626   6.172   6.626   6.886  0.3817 -0.2182  0.2588
 1688TIP3    H126627   6.140   6.614   6.975  1.1252 -2.4017  0.2835
 1688TIP3    H226628   6.124   6.560   6.835 -0.0357  1.0017 -0.9780
 1689TIP3   OH226629   5.054   2.203   7.991  0.3384 -0.2485  0.2516
 1689TIP3    H126630   5.107   2.124   7.987  0.3795 -0.1872 -0.8956
 1689TIP3    H226631   5.117   2.275   8.001  0.4281 -0.2426 -0.3025
 1690TIP3   OH226632   6.399   2.496   1.760 -0.5619 -0.2889  0.0799
 1690TIP3    H126633   6.404   2.523   1.851  0.4892 -1.6079  0.4416
 1690TIP3    H226634   6.433   2.407   1.759  1.5641  0.4446 -1.8861
 1691TIP3   OH226635   3.131   6.153   0.698 -1.0416 -0.3639 -0.3418
 1691TIP3    H126636   3.058   6.195   0.652 -1.4473 -1.9533 -1.2347
 1691TIP3    H226637   3.197   6.139   0.631  0.5946  2.0263  0.6720
 1692TIP3   OH226638   1.972   2.225   8.245  0.3057  0.4212  0.4141
 1692TIP3    H126639   1.957   2.202   8.153  1.1094 -0.8779  0.5828
 1692TIP3    H226640   1.906   2.291   8.264  0.5905  1.2469 -1.2947
 1693TIP3   OH226641   5.866   4.660   8.095  0.0529  0.5126 -0.1485
 1693TIP3    H126642   5.781   4.616   8.091  0.7774 -1.0771  0.6345
 1693TIP3    H226643   5.922   4.607   8.038  0.7735  0.9150  0.1764
 1694TIP3   OH226644   1.164   4.590   6.627 -0.5113 -0.2384  0.1391
 1694TIP3    H126645   1.254   4.558   6.620 -0.1047  0.8644  0.1588
 1694TIP3    H226646   1.131   4.588   6.537 -0.6346 -1.0693  0.1917
 1695TIP3   OH226647   5.546   4.261   8.200  0.2621 -0.5822 -0.6389
 1695TIP3    H126648   5.451   4.258   8.184  0.5504 -0.7490 -2.5533
 1695TIP3    H226649   5.584   4.269   8.113  2.0611 -1.3318  0.0467
 1696TIP3   OH226650   2.706   4.929   8.810  0.2175 -0.0230  0.2546
 1696TIP3    H126651   2.783   4.879   8.784  0.6087 -0.4744  2.1303
 1696TIP3    H226652   2.738   5.019   8.819  0.9500 -0.4630  2.5263
 1697TIP3   OH226653   5.715   3.219   6.789  0.4790 -0.1409 -0.0645
 1697TIP3    H126654   5.630   3.176   6.779  0.2761 -0.1587  1.4413
 1697TIP3    H226655   5.773   3.151   6.822  0.4900  0.3837  1.0518
 1698TIP3   OH226656   2.624   2.997   0.591  0.4946  0.0640 -0.4161
 1698TIP3    H126657   2.544   3.040   0.621 -0.0532 -0.0985 -1.5819
 1698TIP3    H226658   2.627   2.915   0.641  1.8375  1.6054  2.2305
 1699TIP3   OH226659   5.511   0.082   8.159 -0.0784  0.2346 -0.3368
 1699TIP3    H126660   5.434   0.113   8.207 -0.8567  1.9028 -2.5028
 1699TIP3    H226661   5.479   0.009   8.106  0.5440 -0.9457  0.8651
 1700TIP3   OH226662   4.491   2.173   8.535  0.4507 -0.4922  0.8982
 1700TIP3    H126663   4.445   2.125   8.466  0.0916  0.6103  0.3484
 1700TIP3    H226664   4.575   2.128   8.543  0.4845 -0.6706 -0.2358
 1701TIP3   OH226665   5.299   1.922   6.073  0.2359  0.2374  0.1955
 1701TIP3    H126666   5.375   1.880   6.114 -0.7280 -1.6314  0.1448
 1701TIP3    H226667   5.303   1.896   5.981  1.4468  3.0507 -0.6530
 1702TIP3   OH226668   3.820   0.392   8.615  0.1383  0.1033  0.1317
 1702TIP3    H126669   3.869   0.441   8.549 -1.0177  0.7070 -0.3065
 1702TIP3    H226670   3.729   0.400   8.587 -0.3848  0.4144  1.8370
 1703TIP3   OH226671   4.713   2.745   8.718  1.1688 -0.5075 -0.1275
 1703TIP3    H126672   4.795   2.792   8.704  0.9619 -0.2617 -0.5216
 1703TIP3    H226673   4.706   2.686   8.643 -0.2710  1.2730 -1.4963
 1704TIP3   OH226674   4.523   2.446   7.554  0.2568 -0.3885  0.2828
 1704TIP3    H126675   4.561   2.534   7.562 -0.0041 -0.3174  0.8213
 1704TIP3    H226676   4.442   2.459   7.504  0.3370 -0.3571  0.1612
 1705TIP3   OH226677   5.124   0.769   7.901 -0.0206  0.1485 -0.2987
 1705TIP3    H126678   5.159   0.801   7.984 -0.2832  0.2774 -0.2385
 1705TIP3    H226679   5.185   0.803   7.835 -0.4674  1.0322 -0.2609
 1706TIP3   OH226680   6.553   5.601   1.812 -0.0011  0.4052 -0.4037
 1706TIP3    H126681   6.585   5.565   1.895 -0.8823  0.8440  0.1345
 1706TIP3    H226682   6.584   5.538   1.746  0.3544 -0.1713  0.2878
 1707TIP3   OH226683   2.868   6.323   0.242 -0.4908 -0.1143 -0.0469
 1707TIP3    H126684   2.776   6.316   0.269 -0.6760 -0.8616 -0.8263
 1707TIP3    H226685   2.863   6.358   0.153  0.0041  0.2243  0.0594
 1708TIP3   OH226686   0.148   6.232   1.681  0.3248 -0.3187  0.0378
 1708TIP3    H126687   0.226   6.200   1.636  1.4357  0.9168  0.9968
 1708TIP3    H226688   0.139   6.323   1.651 -2.2665 -1.1170 -2.0071
 1709TIP3   OH226689   1.871   5.844   0.948  0.1231  0.3860 -0.1398
 1709TIP3    H126690   1.855   5.920   0.891  1.5742  0.1262 -0.9532
 1709TIP3    H226691   1.965   5.826   0.938  0.0483 -0.7811  0.9769
 1710TIP3   OH226692   5.145   4.566   7.822  0.2716 -0.5725 -0.5047
 1710TIP3    H126693   5.209   4.584   7.890 -1.6061  0.4783  1.0802
 1710TIP3    H226694   5.165   4.630   7.753  0.8585 -0.2043 -0.0058
 1711TIP3   OH226695   5.230   1.589   7.007 -0.0210 -0.0994  0.3209
 1711TIP3    H126696   5.208   1.623   6.920  0.3335 -0.0183  0.2633
 1711TIP3    H226697   5.188   1.651   7.067 -1.1020 -0.7007  0.2134
 1712TIP3   OH226698   5.960   5.671   0.974  0.4003 -0.1466  0.4937
 1712TIP3    H126699   5.906   5.678   0.896 -1.0309  0.6418  1.4958
 1712TIP3    H226700   6.038   5.724   0.954  0.5258 -0.7762 -0.7425
 1713TIP3   OH226701   3.444   0.537   2.299 -0.3396  0.1164  0.0926
 1713TIP3    H126702   3.437   0.519   2.392 -2.4593  2.4846  0.5206
 1713TIP3    H226703   3.357   0.518   2.264 -0.0158  0.7087 -1.1099
 1714TIP3   OH226704   2.272   5.147   7.988 -0.2514 -0.0802  0.0916
 1714TIP3    H126705   2.207   5.106   8.045 -1.1416 -1.9646 -2.1215
 1714TIP3    H226706   2.354   5.103   8.009  0.1064  1.2949  1.8705
 1715TIP3   OH226707   2.231   0.878   0.968  0.0924 -0.0302 -0.5001
 1715TIP3    H126708   2.215   0.852   0.877 -1.4303 -0.4850 -0.1353
 1715TIP3    H226709   2.326   0.894   0.972  0.2021 -0.0389 -2.1416
 1716TIP3   OH226710   3.551   0.796   2.464 -0.3531  0.3292 -0.1890
 1716TIP3    H126711   3.591   0.712   2.489 -0.4056 -0.0250 -1.2477
 1716TIP3    H226712   3.526   0.836   2.547 -2.1093 -1.5878  0.3034
 1717TIP3   OH226713   2.545   0.617   8.690 -0.0064  0.3599 -0.6531
 1717TIP3    H126714   2.452   0.596   8.698 -0.3834  1.9609 -0.4691
 1717TIP3    H226715   2.575   0.631   8.779  0.6621 -1.0752 -0.6358
 1718TIP3   OH226716   1.878   5.852   7.390 -0.6153  0.6067  0.2218
 1718TIP3    H126717   1.843   5.838   7.302 -0.4720  0.9135  0.1136
 1718TIP3    H226718   1.915   5.940   7.387  2.2837 -0.4938 -0.3977
 1719TIP3   OH226719   4.802   0.323   6.381  0.5147  0.1139  0.1003
 1719TIP3    H126720   4.753   0.394   6.422  2.0633  2.9053 -2.4442
 1719TIP3    H226721   4.893   0.342   6.401  0.9827 -0.9459 -0.9154
 1720TIP3   OH226722   1.395   4.681   6.390  0.1439 -0.1087 -0.1755
 1720TIP3    H126723   1.319   4.624   6.377  0.3973  0.1282 -3.6237
 1720TIP3    H226724   1.459   4.624   6.433 -0.9767 -1.2049  0.1222
 1721TIP3   OH226725   1.768   0.952   7.789 -0.2957  0.5336  0.2879
 1721TIP3    H126726   1.757   0.975   7.696  1.3865  2.8659  0.5626
 1721TIP3    H226727   1.779   1.037   7.833 -0.8815 -0.5324  2.6207
 1722TIP3   OH226728   0.435   6.292   7.897  0.0375  0.4853 -0.0165
 1722TIP3    H126729   0.454   6.371   7.846 -1.3268  2.3271  2.1078
 1722TIP3    H226730   0.447   6.319   7.988 -1.4999 -1.4512  0.8435
 1723TIP3   OH226731   0.870   3.772   1.242  0.0609  0.0202 -0.2658
 1723TIP3    H126732   0.884   3.695   1.296  0.8504 -1.2547 -2.1769
 1723TIP3    H226733   0.780   3.763   1.210  0.4205 -0.5841 -1.1471
 1724TIP3   OH226734   5.460   1.548   6.105 -0.2877 -0.0593  0.0134
 1724TIP3    H126735   5.493   1.637   6.106  0.7553 -0.4344  1.1178
 1724TIP3    H226736   5.456   1.522   6.197 -2.0193 -0.6475 -0.1873
 1725TIP3   OH226737   4.290   3.741   8.140  0.3794 -0.3542  0.1731
 1725TIP3    H126738   4.328   3.748   8.053 -0.3690  1.6776 -0.0292
 1725TIP3    H226739   4.324   3.816   8.188 -0.7222 -0.3764  1.0271
 1726TIP3   OH226740   2.107   3.739   7.608 -0.1480 -0.2088 -0.2986
 1726TIP3    H126741   2.164   3.709   7.537  0.1420  1.0704 -0.6232
 1726TIP3    H226742   2.164   3.745   7.685 -0.0754  0.0769 -0.3747
 1727TIP3   OH226743   3.170   3.881   0.196  0.5187 -0.0008  0.4909
 1727TIP3    H126744   3.140   3.964   0.233 -0.5848 -1.0917  2.1932
 1727TIP3    H226745   3.155   3.817   0.265  1.3747 -1.6368 -0.7559
 1728TIP3   OH226746   4.398   2.634   8.786 -0.1430  0.4186  0.1974
 1728TIP3    H126747   4.439   2.705   8.737 -1.4913 -0.0501 -1.7596
 1728TIP3    H226748   4.438   2.637   8.872  0.7593  2.7296 -0.2401
 1729TIP3   OH226749   6.247   0.325   0.250 -0.5877 -0.1673 -0.1963
 1729TIP3    H126750   6.181   0.369   0.198  0.9293  1.5422 -0.7952
 1729TIP3    H226751   6.326   0.378   0.239  1.1570 -2.5993 -0.2690
 1730TIP3   OH226752   1.084   3.278   0.931 -0.8035  0.4981  0.0856
 1730TIP3    H126753   1.143   3.237   0.868 -0.3801  0.6510  0.3743
 1730TIP3    H226754   1.047   3.206   0.981 -0.5449  0.4283  0.1752
 1731TIP3   OH226755   3.344   0.256   8.392  0.5184 -0.5380  0.1999
 1731TIP3    H126756   3.392   0.321   8.340 -0.1037  1.2796  1.7734
 1731TIP3    H226757   3.348   0.290   8.481 -3.2152 -0.5371  0.5262
 1732TIP3   OH226758   3.316   1.036   8.024  0.6666 -0.0578  0.5125
 1732TIP3    H126759   3.307   1.118   8.072 -1.0101  0.8418 -1.1711
 1732TIP3    H226760   3.316   0.968   8.091 -1.8986  1.1157  1.8526
 1733TIP3   OH226761   1.006   3.753   8.015  0.5286 -0.4287  0.0950
 1733TIP3    H126762   0.996   3.658   8.014 -0.9050 -0.2909 -0.5994
 1733TIP3    H226763   0.943   3.783   8.081  0.3891  0.0925 -0.2706
 1734TIP3   OH226764   6.707   0.411   2.120  0.1894 -0.0312  0.1610
 1734TIP3    H126765   6.666   0.326   2.107 -0.5589  0.5228 -1.3641
 1734TIP3    H226766   6.744   0.407   2.208  2.6678 -2.9445 -0.8409
 1735TIP3   OH226767   6.270   5.581   0.892  0.5253 -0.4330 -0.2011
 1735TIP3    H126768   6.292   5.497   0.931  0.0988 -0.4938 -0.0897
 1735TIP3    H226769   6.215   5.560   0.817  0.0609 -0.2341  0.0793
 1736TIP3   OH226770   2.089   0.193   8.130 -0.1081 -0.2837  0.7262
 1736TIP3    H126771   2.144   0.120   8.157 -0.3758 -0.2476  1.3785
 1736TIP3    H226772   2.000   0.166   8.153 -0.4248 -0.5121 -0.6864
 1737TIP3   OH226773   6.046   3.179   2.456 -0.0498  0.2820 -0.2084
 1737TIP3    H126774   6.083   3.180   2.544  0.6228  0.5317 -0.4846
 1737TIP3    H226775   6.115   3.215   2.401 -1.1741  2.0236 -0.5620
 1738TIP3   OH226776   6.377   0.931   2.239  0.2682 -0.0791  0.1568
 1738TIP3    H126777   6.284   0.953   2.237  0.2318 -0.2371  0.1293
 1738TIP3    H226778   6.405   0.959   2.327  0.4590  1.0246 -0.2365
 1739TIP3   OH226779   4.419   3.790   2.266  0.5993  1.1167 -0.6193
 1739TIP3    H126780   4.456   3.847   2.198 -0.6271  0.5249 -1.8262
 1739TIP3    H226781   4.408   3.705   2.223  1.9699  0.0386  1.0139
 1740TIP3   OH226782   0.869   1.830   7.235  0.3765 -0.5824  0.2524
 1740TIP3    H126783   0.928   1.783   7.176 -0.2558 -0.1459 -0.7723
 1740TIP3    H226784   0.926   1.865   7.304  1.1607 -1.0160 -0.1605
 1741TIP3   OH226785   3.324   2.333   6.682  0.0485 -0.1101 -0.3665
 1741TIP3    H126786   3.271   2.278   6.625 -0.0604  1.4036 -1.8091
 1741TIP3    H226787   3.262   2.399   6.716  0.6428  0.6297 -0.6875
 1742TIP3   OH226788   2.466   1.427   0.613 -0.1731  0.8723  0.3349
 1742TIP3    H126789   2.545   1.445   0.561 -0.8433  0.9402 -0.6885
 1742TIP3    H226790   2.454   1.332   0.606  0.2261  0.7537  1.1173
 1743TIP3   OH226791   1.433   3.392   7.108 -0.2212 -0.5605  0.3345
 1743TIP3    H126792   1.364   3.349   7.158 -1.1491 -0.5403 -0.8755
 1743TIP3    H226793   1.388   3.427   7.031  0.9432  0.4590  0.0852
 1744TIP3   OH226794   6.624   0.443   8.821 -0.0964 -0.1599 -0.0237
 1744TIP3    H126795   6.655   0.530   8.795  0.5009 -0.4074 -0.1515
 1744TIP3    H226796   6.662   0.384   8.756 -0.0566 -0.5806  0.3793
 1745TIP3   OH226797   6.546   5.314   8.403 -0.0896  0.2639 -0.3140
 1745TIP3    H126798   6.548   5.368   8.323 -1.8656  0.6170 -0.1552
 1745TIP3    H226799   6.469   5.259   8.393 -0.9768  1.0522  1.6068
 1746TIP3   OH226800   4.252   2.080   6.463  0.4999  0.2926 -0.0708
 1746TIP3    H126801   4.335   2.033   6.458  1.2346  1.6719 -1.5889
 1746TIP3    H226802   4.222   2.087   6.373 -2.2942 -1.7952  0.5489
 1747TIP3   OH226803   5.590   2.779   2.030  0.2327 -0.0550 -0.1283
 1747TIP3    H126804   5.539   2.789   2.110 -0.0235  0.7856 -0.3880
 1747TIP3    H226805   5.657   2.714   2.052 -0.0402 -0.0756  0.6645
 1748TIP3   OH226806   0.073   5.904   0.416  0.1038 -0.4329 -0.1550
 1748TIP3    H126807   0.146   5.863   0.369  0.0660 -0.6653 -0.0164
 1748TIP3    H226808   0.067   5.854   0.498  1.0403  0.8292  0.7216
 1749TIP3   OH226809   5.650   2.319   1.916 -0.1530 -0.9132  0.4567
 1749TIP3    H126810   5.697   2.381   1.972  0.6878 -0.5768 -0.5980
 1749TIP3    H226811   5.657   2.236   1.963  1.3167 -0.8257  0.4594
 1750TIP3   OH226812   6.804   1.126   1.445 -0.7231  0.4106  0.3646
 1750TIP3    H126813   6.898   1.111   1.432 -0.9330 -1.0228  0.2837
 1750TIP3    H226814   6.799   1.201   1.504  0.4629  0.7353  0.0723
 1751TIP3   OH226815   3.867   4.064   7.859 -0.0922 -0.0799 -0.1294
 1751TIP3    H126816   3.876   4.154   7.891 -2.5148  0.0699  0.3755
 1751TIP3    H226817   3.783   4.064   7.813 -0.2823 -2.1511  0.1441
 1752TIP3   OH226818   5.389   0.794   1.568  0.6309 -0.0095  0.0206
 1752TIP3    H126819   5.369   0.856   1.638  1.9875  3.0028 -2.0338
 1752TIP3    H226820   5.480   0.769   1.584  0.3349 -0.8893  0.3885
 1753TIP3   OH226821   1.353   0.103   7.736  0.3023 -0.4123 -0.2326
 1753TIP3    H126822   1.303   0.029   7.771  0.1173  0.9997  2.7835
 1753TIP3    H226823   1.287   0.162   7.700  0.0947 -0.1857  0.4946
 1754TIP3   OH226824   1.111   1.713   0.650  0.3853  0.9375 -0.0617
 1754TIP3    H126825   1.154   1.627   0.657  0.0081  0.6643 -1.0353
 1754TIP3    H226826   1.018   1.694   0.659  0.3690  1.4077  0.9551
 1755TIP3   OH226827   2.102   3.883   0.306  0.0589 -0.0214 -0.4036
 1755TIP3    H126828   2.187   3.920   0.283  0.0898  0.0485 -0.1795
 1755TIP3    H226829   2.050   3.891   0.226 -0.2273  1.3393 -0.1032
 1756TIP3   OH226830   6.324   0.078   1.135  0.0604  0.5587  0.5153
 1756TIP3    H126831   6.240   0.117   1.109  0.0311  1.3083  1.6503
 1756TIP3    H226832   6.329   0.093   1.230  1.5747  0.7200  0.4337
 1757TIP3   OH226833   3.920   0.574   7.098 -0.2671 -0.7800 -0.0923
 1757TIP3    H126834   3.833   0.561   7.136 -0.3469  0.8131  0.3384
 1757TIP3    H226835   3.904   0.583   7.004 -0.6967  0.4221  0.0819
 1758TIP3   OH226836   5.132   3.393   8.473 -0.9814  0.4253 -0.5121
 1758TIP3    H126837   5.089   3.400   8.558  0.3511 -2.3515  0.5024
 1758TIP3    H226838   5.178   3.476   8.462 -3.8512  2.1805 -0.1658
 1759TIP3   OH226839   3.962   0.472   0.031  0.1088  0.2727 -0.7007
 1759TIP3    H126840   3.935   0.429  -0.051  0.5494 -0.5365 -0.4351
 1759TIP3    H226841   4.057   0.481   0.023  0.1335  0.3344 -0.3499
 1760TIP3   OH226842   3.691   6.244   8.119  0.2550 -0.2910  0.6649
 1760TIP3    H126843   3.763   6.299   8.086 -0.7222  0.3481 -0.4663
 1760TIP3    H226844   3.713   6.156   8.087 -0.6917  0.3143 -1.9014
 1761TIP3   OH226845   6.079   0.570   1.397  0.5894 -0.1069 -0.4048
 1761TIP3    H126846   6.145   0.502   1.410 -1.2006 -1.8470 -0.1211
 1761TIP3    H226847   5.998   0.523   1.381 -0.9853  1.9146  1.0563
 1762TIP3   OH226848   5.689   1.811   8.007  0.4743  0.0075 -0.3778
 1762TIP3    H126849   5.745   1.876   8.049  1.1471 -2.4098  2.9335
 1762TIP3    H226850   5.747   1.766   7.945  1.1943 -0.0537  0.3179
 1763TIP3   OH226851   2.963   5.129   7.170 -0.7788  0.8267  0.1509
 1763TIP3    H126852   2.963   5.208   7.223 -1.8953 -0.1254  1.6227
 1763TIP3    H226853   3.039   5.140   7.112 -0.3130  2.4925  1.0108
 1764TIP3   OH226854   3.917   4.213   1.406 -0.2595  0.1173 -0.1691
 1764TIP3    H126855   3.888   4.243   1.493 -0.8937 -2.2883  0.5345
 1764TIP3    H226856   3.868   4.268   1.345  0.3592  2.0191  0.9424
 1765TIP3   OH226857   4.561   6.252   7.338 -0.9826 -0.0099  0.3879
 1765TIP3    H126858   4.637   6.251   7.396  0.1746 -2.5974 -0.9705
 1765TIP3    H226859   4.594   6.290   7.256 -0.3785 -3.0556 -0.9290
 1766TIP3   OH226860   6.796   1.714   0.454 -0.6412  0.0877  0.3347
 1766TIP3    H126861   6.736   1.771   0.405  0.7751 -0.4270 -2.2296
 1766TIP3    H226862   6.883   1.742   0.424  0.1934 -1.8061  0.8826
 1767TIP3   OH226863   1.536   3.406   0.881 -0.0227  0.1636  0.5879
 1767TIP3    H126864   1.554   3.313   0.895  1.0660  0.4299  1.0934
 1767TIP3    H226865   1.589   3.450   0.947 -1.2895  1.1112  0.9962
 1768TIP3   OH226866   0.184   5.981   2.092  0.6500  0.9986 -0.2343
 1768TIP3    H126867   0.122   5.961   2.022  1.1850 -0.2285 -0.3831
 1768TIP3    H226868   0.166   5.916   2.159  0.4093  1.9244  0.6214
 1769TIP3   OH226869   2.345   1.132   7.199 -0.2032 -0.5057  0.4283
 1769TIP3    H126870   2.294   1.055   7.172  0.9975 -1.0040 -0.5342
 1769TIP3    H226871   2.396   1.102   7.274  0.4990 -0.7606 -0.1403
 1770TIP3   OH226872   3.156   1.269   1.021 -0.1449 -0.1207 -0.1340
 1770TIP3    H126873   3.134   1.317   0.942 -2.3389 -1.1306 -0.1936
 1770TIP3    H226874   3.097   1.193   1.021 -0.2989 -0.0930  2.5091
 1771TIP3   OH226875   4.870   5.695   8.098  0.2805 -0.0779  0.3910
 1771TIP3    H126876   4.943   5.633   8.098  1.0011  0.7404  1.0516
 1771TIP3    H226877   4.863   5.725   8.007  0.8211 -0.0993  0.3417
 1772TIP3   OH226878   5.959   6.112   7.273  0.0530 -0.4258  0.0035
 1772TIP3    H126879   5.869   6.092   7.248  0.1040  0.5185 -0.9962
 1772TIP3    H226880   6.008   6.112   7.191  1.1192 -1.5744  0.5939
 1773TIP3   OH226881   3.799   1.171   7.314  0.2027  0.0730  0.1573
 1773TIP3    H126882   3.852   1.160   7.235  0.8082 -0.4337  0.6169
 1773TIP3    H226883   3.847   1.237   7.366  1.3348 -1.5697  1.3187
 1774TIP3   OH226884   0.589   3.132   6.398  0.0401 -0.3528  0.0963
 1774TIP3    H126885   0.638   3.054   6.425  0.3331 -0.7737 -1.5408
 1774TIP3    H226886   0.656   3.195   6.372 -0.2286 -0.6581 -1.4294
 1775TIP3   OH226887   6.211   3.908   1.738 -0.1457 -0.0028  0.8673
 1775TIP3    H126888   6.145   3.840   1.748 -0.8115  0.0401 -2.1244
 1775TIP3    H226889   6.230   3.909   1.644  3.7951  0.3538  1.5169
 1776TIP3   OH226890   4.579   6.150   2.307  0.3415 -0.1258  0.0198
 1776TIP3    H126891   4.503   6.202   2.334  0.3458 -0.2232  0.2241
 1776TIP3    H226892   4.589   6.169   2.213  0.0368 -0.1462 -0.0184
 1777TIP3   OH226893   1.278   0.509   0.331  0.4782  0.9354  0.2358
 1777TIP3    H126894   1.211   0.529   0.266  1.2546  1.4391 -0.4223
 1777TIP3    H226895   1.351   0.475   0.280 -0.4480 -3.0225  1.1810
 1778TIP3   OH226896   2.413   5.546   1.713  0.4805 -0.0353 -0.3625
 1778TIP3    H126897   2.463   5.475   1.674 -0.6295 -0.5580 -0.8768
 1778TIP3    H226898   2.341   5.502   1.759 -1.4376  0.7888 -2.4242
 1779TIP3   OH226899   5.528   4.905   0.084 -0.1333  0.4831 -0.2899
 1779TIP3    H126900   5.559   4.938  -0.001 -0.9155  0.3020 -0.6504
 1779TIP3    H226901   5.450   4.957   0.103 -1.1476 -0.8417 -0.6628
 1780TIP3   OH226902   6.571   6.193   1.540  0.0658 -0.0363 -0.1371
 1780TIP3    H126903   6.656   6.207   1.497 -0.7116 -0.7917 -1.9809
 1780TIP3    H226904   6.544   6.280   1.568  1.3947  0.2288  0.3897
 1781TIP3   OH226905   6.576   0.297   7.379 -0.4923 -0.8712 -0.7962
 1781TIP3    H126906   6.549   0.374   7.429 -0.8615 -2.1669  1.1219
 1781TIP3    H226907   6.568   0.324   7.288 -1.3676  1.0964 -0.2023
 1782TIP3   OH226908   4.339   4.745   0.523  0.5868  0.3429  0.0625
 1782TIP3    H126909   4.387   4.663   0.537  0.2904  0.2441  0.5161
 1782TIP3    H226910   4.394   4.794   0.463  0.4176 -0.4901 -0.8005
 1783TIP3   OH226911   3.854   1.643   8.535  0.0152 -0.4634 -0.1488
 1783TIP3    H126912   3.937   1.679   8.566 -0.1349 -0.9286  0.8351
 1783TIP3    H226913   3.810   1.612   8.614 -1.4017  0.3813 -0.5633
 1784TIP3   OH226914   5.051   0.116   0.578  0.6183  0.2521 -0.1031
 1784TIP3    H126915   5.120   0.066   0.535  2.1874  1.8409  0.4075
 1784TIP3    H226916   5.008   0.165   0.508 -0.1799 -0.9232 -0.4542
 1785TIP3   OH226917   1.901   6.751   0.153 -0.3256 -0.1101 -0.4766
 1785TIP3    H126918   1.869   6.712   0.234  0.0850  0.4365 -0.0386
 1785TIP3    H226919   1.827   6.800   0.119 -0.6297 -0.6927 -0.6595
 1786TIP3   OH226920   5.561   2.135   6.298 -0.4323 -0.4622  0.0556
 1786TIP3    H126921   5.595   2.099   6.216 -1.4996 -0.6647 -0.3045
 1786TIP3    H226922   5.493   2.074   6.325 -0.4617 -0.1060  0.8147
 1787TIP3   OH226923   2.991   4.396   7.109 -0.0851  0.4680  0.1924
 1787TIP3    H126924   2.926   4.418   7.042  0.4958  1.5139 -0.0489
 1787TIP3    H226925   2.941   4.349   7.176 -0.6950 -0.4883 -0.9092
 1788TIP3   OH226926   0.581   3.214   1.273 -0.0325 -0.4397 -0.0051
 1788TIP3    H126927   0.567   3.122   1.249  4.7008 -1.4458  0.0362
 1788TIP3    H226928   0.585   3.214   1.368  0.3329 -0.2956 -0.0174
 1789TIP3   OH226929   2.979   6.285   2.433 -0.7548  0.2573 -0.1415
 1789TIP3    H126930   3.000   6.191   2.435 -1.5696  0.0011 -1.9483
 1789TIP3    H226931   3.060   6.327   2.462  0.1862 -0.9628 -0.8459
 1790TIP3   OH226932   0.828   2.470   8.764 -0.2092 -0.2635  0.6375
 1790TIP3    H126933   0.753   2.503   8.713  0.0544  1.3275  1.2144
 1790TIP3    H226934   0.905   2.494   8.711 -0.0612 -1.9458  0.0170
 1791TIP3   OH226935   1.585   5.901   0.850 -0.5588  0.5763  0.3262
 1791TIP3    H126936   1.588   5.855   0.766  3.3358  0.8092  0.1456
 1791TIP3    H226937   1.584   5.832   0.916 -0.0378  0.3066  0.0557
 1792TIP3   OH226938   4.363   0.203   1.879  0.8250 -0.3397  0.0751
 1792TIP3    H126939   4.443   0.222   1.829 -0.3266  2.5363 -0.9006
 1792TIP3    H226940   4.362   0.269   1.948 -0.7853 -0.1774 -0.0709
 1793TIP3   OH226941   6.332   5.649   8.307 -0.0435 -0.0017  0.3244
 1793TIP3    H126942   6.287   5.574   8.269  0.2534 -0.6163  1.1861
 1793TIP3    H226943   6.376   5.616   8.385  1.5346  0.6759 -0.2232
 1794TIP3   OH226944   3.999   0.297   7.120  0.0906  0.0726  0.2862
 1794TIP3    H126945   4.008   0.384   7.080  0.6420  0.2071  0.6935
 1794TIP3    H226946   3.928   0.256   7.071  0.7520  0.2334 -0.8499
 1795TIP3   OH226947   4.755   1.494   0.144 -0.0744  0.3700  0.7675
 1795TIP3    H126948   4.674   1.444   0.137 -0.1301  0.6517 -1.1141
 1795TIP3    H226949   4.727   1.585   0.146  0.1578  0.7415 -3.5806
 1796TIP3   OH226950   3.408   1.167   7.767 -0.4050  0.6609 -0.2193
 1796TIP3    H126951   3.322   1.148   7.805  0.1305  1.1212  1.3084
 1796TIP3    H226952   3.427   1.092   7.710 -1.2434 -0.0729  0.4466
 1797TIP3   OH226953   4.600   6.195   0.659 -0.0958  0.7745  0.0141
 1797TIP3    H126954   4.566   6.278   0.624  0.3465  0.4766 -1.1943
 1797TIP3    H226955   4.573   6.130   0.594 -0.1926  0.0061  0.8104
 1798TIP3   OH226956   5.536   5.568   2.073 -0.7053 -0.6243 -0.9034
 1798TIP3    H126957   5.586   5.504   2.124 -0.5924 -0.1967 -0.4613
 1798TIP3    H226958   5.462   5.590   2.129  0.2358  0.9970 -0.2320
 1799TIP3   OH226959   1.420   2.156   6.988  0.2859  0.4398 -0.0170
 1799TIP3    H126960   1.496   2.207   6.960  1.0119 -0.8004 -0.3485
 1799TIP3    H226961   1.345   2.214   6.972  0.9891  0.9977 -1.4492
 1800TIP3   OH226962   0.181   5.240   8.404  0.3544 -0.1263  0.5158
 1800TIP3    H126963   0.205   5.333   8.407  1.4429 -0.3689 -0.1702
 1800TIP3    H226964   0.265   5.194   8.394 -0.0844 -1.2408  1.6954
 1801TIP3   OH226965   4.794   2.732   1.816  0.1413 -0.5169 -0.0507
 1801TIP3    H126966   4.706   2.694   1.812  0.4809 -1.2991 -0.1366
 1801TIP3    H226967   4.779   2.820   1.852 -0.8779  0.0742 -1.7940
 1802TIP3   OH226968   4.085   5.557   2.700  0.0904  0.4899  0.2698
 1802TIP3    H126969   4.025   5.603   2.641  1.2090  0.0694 -1.2381
 1802TIP3    H226970   4.083   5.466   2.670  2.0992  0.6180 -0.3621
 1803TIP3   OH226971   4.485   4.408   1.337  0.2554 -0.6785  0.6061
 1803TIP3    H126972   4.549   4.374   1.399  1.5732 -1.0484 -0.8992
 1803TIP3    H226973   4.487   4.346   1.264 -0.7780  0.0930 -0.1091
 1804TIP3   OH226974   6.467   2.075   7.002  0.2724  0.7396 -0.3034
 1804TIP3    H126975   6.558   2.078   6.971  0.7004 -0.8397  0.6730
 1804TIP3    H226976   6.472   2.029   7.086 -1.5686 -0.4798 -0.7962
 1805TIP3   OH226977   3.737   6.197   0.581  0.7747  0.2915  0.3945
 1805TIP3    H126978   3.734   6.289   0.556  0.4346  0.2329  0.2262
 1805TIP3    H226979   3.830   6.180   0.596  0.6734  1.1767  2.3138
 1806TIP3   OH226980   6.265   6.566   0.006 -0.0734 -0.4672 -0.1442
 1806TIP3    H126981   6.341   6.598  -0.043  0.0212 -0.6878 -0.1440
 1806TIP3    H226982   6.202   6.540  -0.061 -0.5348  0.6257 -0.1399
 1807TIP3   OH226983   3.696   1.938   7.316 -0.3854  0.0201 -0.7966
 1807TIP3    H126984   3.685   2.032   7.303 -2.3260 -0.2595 -1.4892
 1807TIP3    H226985   3.647   1.898   7.245 -0.5401 -1.5269  0.1424
 1808TIP3   OH226986   6.681   0.530   5.975  0.3393  0.1055  0.0705
 1808TIP3    H126987   6.657   0.558   6.063  0.8912  0.3771  0.1389
 1808TIP3    H226988   6.741   0.598   5.944 -0.0421  0.1420 -0.6090
 1809TIP3   OH226989   2.025   5.489   2.008 -0.0635  0.2595 -0.1464
 1809TIP3    H126990   1.932   5.482   1.987  0.0337 -0.3594 -0.3975
 1809TIP3    H226991   2.061   5.403   1.987  0.5955  0.5410 -0.1998
 1810TIP3   OH226992   3.502   2.843   7.724 -0.1585 -0.0748  0.2423
 1810TIP3    H126993   3.411   2.826   7.699  0.2083  1.4161 -2.5196
 1810TIP3    H226994   3.549   2.851   7.640  2.2614  0.5415  1.5531
 1811TIP3   OH226995   5.004   0.512   6.758  0.0751  0.4083  0.4113
 1811TIP3    H126996   4.970   0.428   6.727  1.3997  0.2153 -0.6160
 1811TIP3    H226997   5.049   0.550   6.682  3.3467 -0.0073  1.9539
 1812TIP3   OH226998   3.035   4.966   1.329 -0.1274  0.0499  0.3390
 1812TIP3    H126999   2.989   4.972   1.245 -1.0620  0.2289  0.8463
 1812TIP3    H227000   3.090   5.045   1.331  1.3513 -0.8917 -0.9066
 1813TIP3   OH227001   1.176   4.670   0.612 -0.3302  0.3357  0.0540
 1813TIP3    H127002   1.105   4.730   0.589 -0.8551 -0.4696 -0.5143
 1813TIP3    H227003   1.189   4.618   0.532  0.4960  0.0838  0.3538
 1814TIP3   OH227004   2.574   2.702   1.282  0.0123  0.5577 -0.2314
 1814TIP3    H127005   2.542   2.631   1.338  0.8126  1.0652  0.8964
 1814TIP3    H227006   2.514   2.775   1.299  1.7299  1.5830  2.0511
 1815TIP3   OH227007   2.949   0.330   7.607 -0.0399  0.5243  0.3548
 1815TIP3    H127008   2.861   0.312   7.574 -0.0232  1.5389 -0.2955
 1815TIP3    H227009   2.939   0.407   7.663  0.3045  0.1345  0.9690
 1816TIP3   OH227010   0.827   4.918   0.153  0.4057 -0.4672 -0.1607
 1816TIP3    H127011   0.842   4.865   0.232 -2.0596  1.2850  1.6577
 1816TIP3    H227012   0.878   4.875   0.085  2.1831 -2.4471  2.2355
 1817TIP3   OH227013   3.168   0.285   8.081  0.3100 -0.0141 -0.3416
 1817TIP3    H127014   3.235   0.219   8.098  2.7306  2.5518  0.8480
 1817TIP3    H227015   3.174   0.303   7.987  0.7026 -0.3762 -0.3875
 1818TIP3   OH227016   1.575   1.297   7.864 -0.1365 -0.0875  1.2596
 1818TIP3    H127017   1.490   1.335   7.842 -0.8590 -2.6303 -0.8116
 1818TIP3    H227018   1.557   1.238   7.937  0.0160 -0.0302  1.3449
 1819TIP3   OH227019   4.108   3.869   5.764  0.4262 -0.2069  0.2267
 1819TIP3    H127020   4.152   3.879   5.679  0.3762  1.6100  0.3897
 1819TIP3    H227021   4.152   3.793   5.804  0.0820 -1.4698 -1.6185
 1820TIP3   OH227022   4.654   4.103   6.614 -0.4178  0.5017 -0.2443
 1820TIP3    H127023   4.569   4.077   6.648 -1.1711  1.6878 -1.1225
 1820TIP3    H227024   4.641   4.113   6.520  0.4042  1.6914 -0.2641
 1821TIP3   OH227025   3.721   0.152   7.027 -0.4221 -0.2117 -0.1503
 1821TIP3    H127026   3.640   0.128   7.072  0.4360  1.2909  2.4090
 1821TIP3    H227027   3.694   0.218   6.963 -1.2876  0.0625  0.4736
 1822TIP3   OH227028   4.556   5.508   8.039  0.1358 -0.0909 -0.4576
 1822TIP3    H127029   4.530   5.589   7.995  1.3203 -0.1304 -1.3011
 1822TIP3    H227030   4.487   5.491   8.102 -1.2502  0.4046 -1.7755
 1823TIP3   OH227031   2.364   1.098   8.386 -0.4696  0.2565  0.2750
 1823TIP3    H127032   2.393   1.147   8.463  1.9465 -0.6258  0.0033
 1823TIP3    H227033   2.358   1.164   8.317 -0.1972  0.6482  0.6165
 1824TIP3   OH227034   0.487   4.440   1.499  0.3351 -0.0301 -0.0831
 1824TIP3    H127035   0.520   4.434   1.589  0.3923  1.1892 -0.0117
 1824TIP3    H227036   0.553   4.491   1.453  0.6710 -1.2588 -1.0223
 1825TIP3   OH227037   4.885   4.916   0.189 -0.1897  0.4728 -0.0358
 1825TIP3    H127038   4.865   4.994   0.138 -0.0782 -0.7718 -2.0935
 1825TIP3    H227039   4.844   4.932   0.275  1.3410  3.4846  0.2350
 1826TIP3   OH227040   6.165   2.882   7.767 -0.0127  0.5875  0.3058
 1826TIP3    H127041   6.234   2.823   7.737  0.3186  1.2023 -0.1421
 1826TIP3    H227042   6.094   2.870   7.704  0.4829  1.4897 -0.4467
 1827TIP3   OH227043   1.034   4.683   7.125 -0.2519  0.3706  0.4654
 1827TIP3    H127044   1.044   4.635   7.043 -0.0831 -1.3987  1.4866
 1827TIP3    H227045   0.940   4.688   7.138 -0.3071  1.2777 -0.1568
 1828TIP3   OH227046   4.377   1.903   6.266 -0.1093 -0.1972  0.2242
 1828TIP3    H127047   4.459   1.900   6.216 -0.2076 -1.5149  0.1080
 1828TIP3    H227048   4.309   1.903   6.200 -0.2347 -1.6484  0.3261
 1829TIP3   OH227049   0.786   3.607   1.808 -0.5813 -0.0544  0.0776
 1829TIP3    H127050   0.793   3.626   1.902 -0.4654 -0.6404  0.1919
 1829TIP3    H227051   0.874   3.623   1.774  0.0342 -2.1112  0.5163
 1830TIP3   OH227052   4.962   3.686   1.554  0.2237  0.5881 -0.5253
 1830TIP3    H127053   4.966   3.667   1.460  0.0892 -0.7705 -0.2785
 1830TIP3    H227054   5.028   3.628   1.593 -1.4355 -0.7430  0.4720
 1831TIP3   OH227055   1.550   1.579   8.637 -0.1536  0.2491  0.0591
 1831TIP3    H127056   1.500   1.566   8.718  1.1226  0.1206  0.8448
 1831TIP3    H227057   1.617   1.643   8.659 -0.9590  1.6825 -1.4410
 1832TIP3   OH227058   2.663   5.874   8.508 -0.0126 -0.2268 -0.4943
 1832TIP3    H127059   2.686   5.941   8.572  0.9014 -1.1079  0.1434
 1832TIP3    H227060   2.741   5.864   8.453  0.2574 -1.4377  0.0581
 1833TIP3   OH227061   5.446   0.939   2.419  0.4550  0.2854 -0.1334
 1833TIP3    H127062   5.391   0.962   2.344  0.8010  0.9233 -0.1967
 1833TIP3    H227063   5.413   0.995   2.490  1.4152  1.1326 -0.3325
 1834TIP3   OH227064   0.075   4.412   8.313 -1.1310  0.3923 -0.6330
 1834TIP3    H127065   0.134   4.475   8.272 -1.9885  2.2099  0.7571
 1834TIP3    H227066   0.103   4.327   8.280  1.5598  1.2730 -0.8359
 1835TIP3   OH227067   6.519   5.113   6.272  0.0692  0.0827 -0.2742
 1835TIP3    H127068   6.428   5.083   6.274  0.4308 -0.9884  0.6930
 1835TIP3    H227069   6.512   5.208   6.259 -1.2096  0.0912  0.3175
 1836TIP3   OH227070   0.295   6.089   1.114 -0.7216 -0.6856  0.1830
 1836TIP3    H127071   0.285   6.171   1.066 -0.9156 -1.0309 -0.3801
 1836TIP3    H227072   0.209   6.072   1.152 -1.0709 -1.3038 -0.8259
 1837TIP3   OH227073   2.323   3.975   1.020  0.3892  0.0118  0.2309
 1837TIP3    H127074   2.373   3.961   1.100 -0.7578  2.3447  1.4479
 1837TIP3    H227075   2.386   3.959   0.950  1.6095 -1.4284  1.5903
 1838TIP3   OH227076   2.903   0.318   1.854  0.4669 -0.2958  0.3462
 1838TIP3    H127077   2.866   0.276   1.932 -0.7073  1.1675  0.6309
 1838TIP3    H227078   2.827   0.330   1.796  1.1334 -0.3774 -0.5500
 1839TIP3   OH227079   4.144   6.320   8.061 -0.2042 -0.6058 -0.0854
 1839TIP3    H127080   4.217   6.381   8.065 -0.6318 -0.1656  1.8454
 1839TIP3    H227081   4.183   6.238   8.030  0.9584 -0.1721  0.1742
 1840TIP3   OH227082   3.979   2.698   6.701  0.5094 -0.0603 -0.0095
 1840TIP3    H127083   4.055   2.696   6.643  2.5735  3.1009  2.2445
 1840TIP3    H227084   3.931   2.776   6.674  1.7717  1.7660  2.5873
 1841TIP3   OH227085   0.710   0.834   8.099 -0.0125  0.1613 -0.2240
 1841TIP3    H127086   0.746   0.747   8.082 -0.7048 -0.1542 -0.1131
 1841TIP3    H227087   0.629   0.818   8.147  0.2582  0.9070  0.4964
 1842TIP3   OH227088   0.540   3.486   7.714 -0.3643  0.4981 -0.1648
 1842TIP3    H127089   0.555   3.438   7.633  1.3956 -0.0113  0.4073
 1842TIP3    H227090   0.515   3.419   7.778 -0.6262  0.7283 -0.0239
 1843TIP3   OH227091   2.867   1.621   7.991  0.1157  0.5511 -0.5637
 1843TIP3    H127092   2.918   1.701   7.999  0.2000  0.3847  1.0060
 1843TIP3    H227093   2.798   1.643   7.929  1.7296  0.9447 -2.2927
 1844TIP3   OH227094   4.421   2.510   0.362 -0.6907  0.2389  0.5313
 1844TIP3    H127095   4.510   2.501   0.395 -1.5743  0.4278  3.1961
 1844TIP3    H227096   4.407   2.605   0.355 -1.0353  0.2482  1.2458
 1845TIP3   OH227097   0.365   0.437   8.816  0.2427  0.5984  0.7761
 1845TIP3    H127098   0.399   0.367   8.873 -1.9177 -0.1986  1.2061
 1845TIP3    H227099   0.415   0.514   8.840 -0.6405  0.3471  3.9813
 1846TIP3   OH227100   1.323   2.653   8.174 -0.1790  0.5859 -0.1539
 1846TIP3    H127101   1.400   2.634   8.227  0.1323 -2.3089 -1.4867
 1846TIP3    H227102   1.352   2.645   8.084 -2.1240 -1.3017 -0.6952
 1847TIP3   OH227103   5.835   2.131   1.217  0.7980 -0.4136  0.6790
 1847TIP3    H127104   5.882   2.212   1.202 -1.2570  0.6631 -0.3274
 1847TIP3    H227105   5.744   2.151   1.196  0.0531 -2.7147  1.3555
 1848TIP3   OH227106   0.391   0.631   1.430  0.4556  0.5274 -0.0662
 1848TIP3    H127107   0.385   0.661   1.339  2.9391  2.0185  0.1557
 1848TIP3    H227108   0.380   0.710   1.482 -0.2164 -0.1984  0.9219
 1849TIP3   OH227109   6.028   1.907   0.796 -0.0198 -0.1642  0.3035
 1849TIP3    H127110   5.949   1.882   0.843  0.0346 -1.1069 -0.0877
 1849TIP3    H227111   6.099   1.862   0.843  0.0031 -1.3854 -0.8282
 1850TIP3   OH227112   5.805   1.786   0.837 -0.2680 -0.6482 -0.0016
 1850TIP3    H127113   5.768   1.744   0.915  0.0019  0.4266  0.7272
 1850TIP3    H227114   5.750   1.755   0.765 -1.1812 -0.8473  0.7584
 1851TIP3   OH227115   2.751   0.101   7.204  0.1547 -0.3942 -0.3868
 1851TIP3    H127116   2.675   0.044   7.213  0.4134 -0.9084 -1.3333
 1851TIP3    H227117   2.739   0.168   7.271 -0.9891 -0.6295 -0.3385
 1852TIP3   OH227118   0.305   2.828   6.542 -0.2021  0.6806 -0.4212
 1852TIP3    H127119   0.280   2.912   6.581  0.3186  1.5203 -1.8086
 1852TIP3    H227120   0.223   2.779   6.537 -0.4733  0.9902  0.6319
 1853TIP3   OH227121   5.457   3.008   8.439 -0.2050  0.1138 -0.3084
 1853TIP3    H127122   5.486   3.080   8.495 -2.3688  0.9809 -0.1939
 1853TIP3    H227123   5.463   3.042   8.350 -1.6145  0.6331 -0.2297
 1854TIP3   OH227124   2.228   6.591   7.093 -0.1794 -0.5619  0.4030
 1854TIP3    H127125   2.178   6.548   7.024  0.9290  1.5317 -1.8845
 1854TIP3    H227126   2.284   6.523   7.128 -0.1183 -1.5426 -1.4502
 1855TIP3   OH227127   5.922   6.285   7.028  0.1824  0.4770 -0.4963
 1855TIP3    H127128   5.895   6.339   6.954  0.7174  0.8063 -0.4560
 1855TIP3    H227129   6.011   6.257   7.006  0.7145  1.3726  0.4540
 1856TIP3   OH227130   2.472   4.812   0.451 -0.8833 -0.1486 -0.3675
 1856TIP3    H127131   2.418   4.829   0.374 -0.4620 -2.7123 -1.3284
 1856TIP3    H227132   2.412   4.824   0.525 -1.4023  1.9506 -1.0630
 1857TIP3   OH227133   2.343   0.890   8.057 -0.2334  0.4753  0.0360
 1857TIP3    H127134   2.252   0.879   8.085  0.3045  0.3377  1.8581
 1857TIP3    H227135   2.385   0.807   8.080  0.8187  1.3136  1.3151
 1858TIP3   OH227136   5.310   3.300   0.924 -0.6857 -0.2997 -0.6710
 1858TIP3    H127137   5.396   3.259   0.928 -0.0034  1.0554 -0.8822
 1858TIP3    H227138   5.266   3.272   1.004  0.0206 -0.8700 -0.4766
 1859TIP3   OH227139   0.718   3.387   8.272 -0.1244  0.0853  0.1159
 1859TIP3    H127140   0.704   3.474   8.312 -2.5992 -0.3822  0.3886
 1859TIP3    H227141   0.709   3.326   8.345 -2.0200 -0.6021 -0.6368
 1860TIP3   OH227142   6.743   2.304   1.963 -0.1475  0.2136  0.2450
 1860TIP3    H127143   6.836   2.281   1.965 -0.3212 -0.5192  0.2878
 1860TIP3    H227144   6.711   2.277   2.049 -0.8685 -1.6498 -0.5506
 1861TIP3   OH227145   1.948   4.693   1.995  0.4956  0.0249  0.1249
 1861TIP3    H127146   1.960   4.788   1.998  0.9415  0.0661 -1.4880
 1861TIP3    H227147   1.853   4.680   1.994  0.4350  0.4663  0.3489
 1862TIP3   OH227148   3.649   1.325   0.393  0.9375  0.3682  0.0628
 1862TIP3    H127149   3.638   1.238   0.356 -0.6604  0.0751  1.1199
 1862TIP3    H227150   3.688   1.311   0.479  2.0270  0.8332 -0.3331
 1863TIP3   OH227151   2.117   3.626   8.074 -0.1987 -0.1230  0.2691
 1863TIP3    H127152   2.183   3.657   8.136 -0.9311  2.7491 -0.2795
 1863TIP3    H227153   2.086   3.543   8.112  1.9221 -0.3051  1.7968
 1864TIP3   OH227154   0.095   4.780   1.100  0.3626 -0.3325 -0.4748
 1864TIP3    H127155   0.176   4.767   1.150  0.4899  0.3085 -0.5077
 1864TIP3    H227156   0.099   4.871   1.071 -0.5627 -0.1708 -0.1253
 1865TIP3   OH227157   2.653   5.096   8.302  0.2795 -0.0733 -0.1412
 1865TIP3    H127158   2.596   5.037   8.252  2.2744 -0.6850 -1.8034
 1865TIP3    H227159   2.693   5.040   8.369  0.2003  0.0005 -0.0301
 1866TIP3   OH227160   6.672   1.368   0.769  0.4369 -0.4335  0.3877
 1866TIP3    H127161   6.760   1.386   0.738  0.1998 -0.1421 -0.1251
 1866TIP3    H227162   6.635   1.309   0.704  0.6345 -1.4790  1.1884
 1867TIP3   OH227163   5.961   3.224   1.675 -0.2603  0.4016  0.2393
 1867TIP3    H127164   5.949   3.294   1.740 -0.4420 -0.1405  0.7947
 1867TIP3    H227165   6.021   3.262   1.611 -1.4715  1.5950 -0.2586
 1868TIP3   OH227166   4.872   0.084   7.073 -0.1834  0.2668 -0.1117
 1868TIP3    H127167   4.924   0.012   7.037 -0.1329  0.7485 -1.0303
 1868TIP3    H227168   4.896   0.087   7.165 -0.8093 -1.4323  0.1514
 1869TIP3   OH227169   0.902   4.771   0.937  0.1079 -0.8625 -0.5436
 1869TIP3    H127170   0.965   4.713   0.894  0.9904 -0.3418  0.0313
 1869TIP3    H227171   0.941   4.858   0.932 -0.7152 -0.4767 -0.4564
 1870TIP3   OH227172   6.082   3.841   0.677  0.7611 -0.6154 -0.1244
 1870TIP3    H127173   6.100   3.891   0.597  1.3897 -2.1364 -0.9669
 1870TIP3    H227174   6.070   3.908   0.744  0.0650  0.7150 -1.5017
 1871TIP3   OH227175   1.206   5.997   7.691 -0.3917  0.2799 -0.0047
 1871TIP3    H127176   1.175   5.907   7.695  1.4838 -0.3942  3.0245
 1871TIP3    H227177   1.137   6.045   7.646 -1.6045 -2.5726 -1.4126
 1872TIP3   OH227178   1.149   2.027   2.000  0.5916 -0.1867  0.0441
 1872TIP3    H127179   1.163   2.091   2.069 -0.9447  0.7491 -0.4476
 1872TIP3    H227180   1.093   1.961   2.040 -1.4894  1.0770 -0.6109
 1873TIP3   OH227181   6.794   6.007   7.897  0.1604  0.4716 -0.0448
 1873TIP3    H127182   6.750   6.066   7.959  0.3518 -0.4025  0.9597
 1873TIP3    H227183   6.870   6.056   7.868 -0.2966  1.1583 -0.1052
 1874TIP3   OH227184   6.819   3.469   0.278 -0.2893 -0.3161 -0.3888
 1874TIP3    H127185   6.913   3.459   0.294 -0.6231  0.3194  2.5036
 1874TIP3    H227186   6.808   3.446   0.186  2.7611  0.0371 -0.9567
 1875TIP3   OH227187   0.203   1.900   0.431 -0.3842 -0.1180  0.5517
 1875TIP3    H127188   0.287   1.945   0.427 -0.1788 -0.5179  0.2282
 1875TIP3    H227189   0.213   1.835   0.500 -0.3305 -0.3537  0.3239
 1876TIP3   OH227190   6.121   1.433   6.374  0.2689 -0.3131 -0.4950
 1876TIP3    H127191   6.074   1.368   6.425  1.3386 -0.5203  0.2540
 1876TIP3    H227192   6.203   1.390   6.348 -0.0676 -0.0746 -2.0535
 1877TIP3   OH227193   5.630   6.520   8.328  0.3988  0.4071  0.1850
 1877TIP3    H127194   5.630   6.452   8.261 -3.0416  1.4673 -1.0732
 1877TIP3    H227195   5.681   6.591   8.289  1.0796 -0.1373  0.0606
 1878TIP3   OH227196   4.489   4.564   2.211  0.4618 -0.2605  0.0349
 1878TIP3    H127197   4.466   4.623   2.140 -0.2917 -2.0339 -1.2697
 1878TIP3    H227198   4.584   4.576   2.223  0.7212 -0.3489 -1.6967
 1879TIP3   OH227199   2.551   2.549   8.244 -0.3468  0.0737 -0.0396
 1879TIP3    H127200   2.530   2.503   8.163 -1.3342  2.3780 -1.1945
 1879TIP3    H227201   2.467   2.576   8.280  0.0266 -1.3854  2.1451
 1880TIP3   OH227202   3.193   1.929   8.274 -0.0370 -0.2529 -0.0567
 1880TIP3    H127203   3.230   1.850   8.313  0.3366  0.2132  0.5432
 1880TIP3    H227204   3.228   2.001   8.327  0.6129  0.4118 -1.3388
 1881TIP3   OH227205   3.944   2.673   1.034 -0.0603  0.5714  0.4539
 1881TIP3    H127206   3.934   2.623   1.115  0.2840  1.9312  1.3784
 1881TIP3    H227207   3.979   2.610   0.971 -1.1882 -0.7414  1.0845
 1882TIP3   OH227208   3.578   3.778   7.121 -0.2795  0.1555  0.9024
 1882TIP3    H127209   3.661   3.734   7.137  1.4375  1.9360 -2.1572
 1882TIP3    H227210   3.563   3.830   7.200  1.5949 -0.1174  1.4836
 1883TIP3   OH227211   2.788   3.863   0.935 -0.3874 -0.6276 -0.4016
 1883TIP3    H127212   2.845   3.936   0.960 -0.7725  0.1707 -1.7308
 1883TIP3    H227213   2.774   3.814   1.016  0.3414  0.4523  0.4034
 1884TIP3   OH227214   5.205   0.836   0.013 -0.3957 -0.3099 -0.2663
 1884TIP3    H127215   5.289   0.869  -0.020 -0.3791  0.2354  0.2915
 1884TIP3    H227216   5.229   0.778   0.085 -0.4698 -0.7501 -0.5937
 1885TIP3   OH227217   6.393   6.113   8.283 -0.0866  0.0079 -0.3271
 1885TIP3    H127218   6.328   6.182   8.294 -0.8327 -0.6921 -0.2995
 1885TIP3    H227219   6.343   6.036   8.258  0.9247  0.0142 -2.7431
 1886TIP3   OH227220   0.174   6.086   7.600  0.2060 -0.3028  0.0789
 1886TIP3    H127221   0.180   6.130   7.685  1.1585  1.7188 -0.9708
 1886TIP3    H227222   0.131   6.150   7.543  1.5075 -0.7723 -1.4868
 1887TIP3   OH227223   2.309   0.027   8.190  0.1044  0.2813  0.1349
 1887TIP3    H127224   2.273  -0.043   8.245  0.2553 -1.2870 -1.6693
 1887TIP3    H227225   2.403   0.027   8.210  0.4494 -1.4133 -1.2033
 1888TIP3   OH227226   5.210   6.420   7.038 -0.0866 -0.4841 -0.4185
 1888TIP3    H127227   5.280   6.458   6.985  0.4338 -2.0242 -0.9112
 1888TIP3    H227228   5.152   6.380   6.974  0.2400 -1.8768  0.1197
 1889TIP3   OH227229   1.943   3.705   7.211  0.2389  0.4412 -0.4037
 1889TIP3    H127230   1.868   3.711   7.270  1.4953  0.4757  1.2441
 1889TIP3    H227231   1.908   3.662   7.133 -1.6712  1.1870 -0.0162
 1890TIP3   OH227232   1.474   0.543   2.664  0.1500  0.1126 -0.5194
 1890TIP3    H127233   1.451   0.457   2.632  0.5655 -0.0739 -0.3341
 1890TIP3    H227234   1.399   0.571   2.716  0.9568 -1.1875  1.4550
 1891TIP3   OH227235   6.080   2.705   0.121 -0.2801  0.0622 -0.3315
 1891TIP3    H127236   6.042   2.680   0.037 -1.5042 -1.2882  0.5705
 1891TIP3    H227237   6.022   2.774   0.154 -0.5547 -0.2974 -0.0471
 1892TIP3   OH227238   6.812   5.696   1.439  0.0061 -0.1966 -0.0096
 1892TIP3    H127239   6.866   5.737   1.506  0.5529  2.3239 -1.8423
 1892TIP3    H227240   6.723   5.725   1.459  0.0836  0.0657 -0.0449
 1893TIP3   OH227241   1.827   0.112   0.493  0.0801 -1.0138  0.2644
 1893TIP3    H127242   1.828   0.080   0.403 -3.4678 -3.3125  0.8758
 1893TIP3    H227243   1.735   0.130   0.512  0.7380 -0.2635  3.3518
 1894TIP3   OH227244   3.307   0.351   0.697 -0.4046  0.2919 -0.3222
 1894TIP3    H127245   3.218   0.373   0.723 -0.5387 -1.3704  0.7727
 1894TIP3    H227246   3.345   0.311   0.774  1.4026  1.1818 -0.6952
 1895TIP3   OH227247   0.556   1.121   1.226  0.4043 -0.3110 -0.5630
 1895TIP3    H127248   0.550   1.041   1.280 -0.9932  0.8166  1.0792
 1895TIP3    H227249   0.639   1.161   1.252 -0.3930  0.3828  1.1154
 1896TIP3   OH227250   4.294   5.904   8.119 -0.1652 -0.1035  0.0529
 1896TIP3    H127251   4.335   5.919   8.204 -0.1230 -1.2462  0.2481
 1896TIP3    H227252   4.201   5.920   8.134 -0.2456 -0.9106  0.4865
 1897TIP3   OH227253   0.700   6.701   2.243  0.3393 -0.5740 -0.0395
 1897TIP3    H127254   0.781   6.739   2.276  1.7617 -2.9987 -0.5344
 1897TIP3    H227255   0.674   6.638   2.310 -0.9462 -0.1379 -0.0908
 1898TIP3   OH227256   0.413   4.325   7.749 -0.5087 -0.0716  0.4143
 1898TIP3    H127257   0.378   4.318   7.838 -1.6069  0.0960  0.0073
 1898TIP3    H227258   0.427   4.234   7.722 -1.0990 -0.1661  0.4070
 1899TIP3   OH227259   5.556   4.052   7.677 -0.1203 -0.0485 -0.1286
 1899TIP3    H127260   5.527   4.063   7.586 -1.6627 -0.4501  0.2779
 1899TIP3    H227261   5.564   3.957   7.688  1.2709  0.0497 -0.1826
 1900TIP3   OH227262   0.019   1.371   1.832  0.3963 -0.1868 -0.6495
 1900TIP3    H127263  -0.068   1.402   1.857  0.5225  1.4830 -2.0241
 1900TIP3    H227264   0.070   1.373   1.913 -1.1091 -2.4095  0.4444
 1901TIP3   OH227265   1.055   0.135   0.325  0.1521 -0.6816 -0.3805
 1901TIP3    H127266   1.069   0.131   0.420 -1.4769 -2.3124 -0.1556
 1901TIP3    H227267   0.988   0.203   0.314  1.4815  0.6616 -0.5760
 1902TIP3   OH227268   6.226   0.207   1.846 -0.4426  0.0145 -0.1088
 1902TIP3    H127269   6.321   0.201   1.851 -0.2382  2.1942 -0.3713
 1902TIP3    H227270   6.198   0.124   1.808  1.1692 -1.4136  1.6565
 1903TIP3   OH227271   2.664   6.177   2.571  0.4610  0.3128 -0.1878
 1903TIP3    H127272   2.655   6.096   2.622  0.4054 -0.0770 -0.8126
 1903TIP3    H227273   2.643   6.152   2.481 -1.8622  1.5068 -0.0490
 1904TIP3   OH227274   4.610   4.087   0.856 -0.1728  0.3200 -0.2639
 1904TIP3    H127275   4.689   4.070   0.908 -0.1011  1.5439  0.0475
 1904TIP3    H227276   4.640   4.080   0.765 -0.2495 -1.5886 -0.1886
 1905TIP3   OH227277   3.652   0.643   0.595  0.1041 -0.2255  0.2539
 1905TIP3    H127278   3.626   0.555   0.566 -1.1724 -0.0499  0.7974
 1905TIP3    H227279   3.748   0.640   0.597  0.0910 -2.2301  2.0313
 1906TIP3   OH227280   0.218   4.720   7.905 -0.2190 -1.0466 -0.3218
 1906TIP3    H127281   0.171   4.752   7.828 -1.1592  1.1661  1.0679
 1906TIP3    H227282   0.152   4.673   7.956 -0.4280  0.2359  0.6221
 1907TIP3   OH227283   2.032   3.499   1.166 -0.0419  0.2800  0.4362
 1907TIP3    H127284   2.123   3.527   1.159  0.0500 -0.3325 -1.5381
 1907TIP3    H227285   2.033   3.430   1.231  0.9154  0.2535  0.4057
 1908TIP3   OH227286   1.009   1.084   1.482 -0.0775  0.5889 -0.3211
 1908TIP3    H127287   0.992   1.076   1.576  1.9798  0.0725  0.0449
 1908TIP3    H227288   1.082   1.025   1.465 -0.9799 -0.0152 -2.4564
 1909TIP3   OH227289   2.439   6.181   0.551 -0.4055 -0.3397  0.3904
 1909TIP3    H127290   2.460   6.091   0.579 -0.2756 -0.3057  0.4037
 1909TIP3    H227291   2.353   6.174   0.511 -0.0395 -0.6296 -0.3674
 1910TIP3   OH227292   3.773   4.798   7.626 -0.4392 -0.0956 -0.3779
 1910TIP3    H127293   3.719   4.876   7.641  0.5889  0.8762 -1.5265
 1910TIP3    H227294   3.848   4.809   7.684 -0.1837 -0.1232 -0.7027
 1911TIP3   OH227295   3.046   5.677   1.796  0.0815  0.1427  0.1091
 1911TIP3    H127296   2.982   5.738   1.760 -0.3241 -0.6464 -0.5323
 1911TIP3    H227297   3.017   5.662   1.886 -0.4013  0.0968 -0.0529
 1912TIP3   OH227298   3.005   6.542   1.717  0.4262  0.1528 -0.1233
 1912TIP3    H127299   2.975   6.632   1.710 -2.5203 -0.6602  0.7784
 1912TIP3    H227300   2.943   6.491   1.664 -0.1209 -1.6823  2.1114
 1913TIP3   OH227301   5.000   4.516   0.260  0.0356  0.2594 -0.0016
 1913TIP3    H127302   4.907   4.509   0.279  0.3442  1.2954  2.1945
 1913TIP3    H227303   5.005   4.572   0.182 -1.1940 -0.9847 -1.0133
 1914TIP3   OH227304   3.809   1.122   7.731  0.2453 -0.1422 -0.2089
 1914TIP3    H127305   3.772   1.096   7.647 -0.8940 -0.7819  0.4733
 1914TIP3    H227306   3.752   1.082   7.796  2.0098 -1.0140  0.8989
 1915TIP3   OH227307   3.213   1.591   0.882  0.6971 -0.0480 -0.2178
 1915TIP3    H127308   3.296   1.544   0.886  0.4055 -0.5456  0.1921
 1915TIP3    H227309   3.147   1.522   0.871 -0.0747 -0.1649  3.5140
 1916TIP3   OH227310   5.427   6.443   8.532  0.1358 -0.4030  0.3523
 1916TIP3    H127311   5.346   6.489   8.551  0.3385 -0.5572  1.6723
 1916TIP3    H227312   5.475   6.503   8.475 -0.2593  0.3579  0.7989
 1917TIP3   OH227313   4.305   0.720   8.385 -0.1339  0.3459  0.3516
 1917TIP3    H127314   4.285   0.639   8.337 -2.0988  0.2981  1.1504
 1917TIP3    H227315   4.273   0.703   8.474 -0.0777  1.7995  0.6733
 1918TIP3   OH227316   1.809   0.204   2.316 -0.0081  0.2980  0.1622
 1918TIP3    H127317   1.847   0.137   2.372  2.6607  1.4745 -0.0705
 1918TIP3    H227318   1.856   0.284   2.338  0.1481  1.1292 -2.6806
 1919TIP3   OH227319   2.449   2.802   1.617 -0.1636  0.0713 -0.5357
 1919TIP3    H127320   2.544   2.799   1.610 -0.0017 -1.3208  1.4332
 1919TIP3    H227321   2.427   2.895   1.616  1.4607  0.5222  1.2261
 1920TIP3   OH227322   1.469   6.139   0.784  0.0713  0.2939  0.0158
 1920TIP3    H127323   1.391   6.147   0.839 -0.3930  0.3894 -0.6406
 1920TIP3    H227324   1.513   6.061   0.816  0.5265  1.0683  1.3958
 1921TIP3   OH227325   1.339   0.087   8.282  0.1961 -0.4974 -0.4052
 1921TIP3    H127326   1.275   0.158   8.270  1.6017  0.8826 -0.0036
 1921TIP3    H227327   1.285   0.009   8.296 -1.4052  0.4435 -1.0110
 1922TIP3   OH227328   4.810   0.690   6.335  0.5995  0.0520 -0.4908
 1922TIP3    H127329   4.751   0.755   6.298  0.2525 -0.4863 -0.9058
 1922TIP3    H227330   4.892   0.736   6.348  0.7153  0.2733 -1.8648
 1923TIP3   OH227331   0.984   4.682   8.410  0.3373 -0.2524  0.2850
 1923TIP3    H127332   0.910   4.740   8.392 -0.2662 -1.6294 -2.1670
 1923TIP3    H227333   1.054   4.714   8.353 -0.5001 -2.6819 -2.3647
 1924TIP3   OH227334   2.022   5.795   0.483  0.1476  0.5135  0.0738
 1924TIP3    H127335   2.091   5.852   0.517 -0.0685  0.2131  1.0297
 1924TIP3    H227336   1.973   5.851   0.422  1.2087  0.7321 -0.5919
 1925TIP3   OH227337   6.520   0.834   6.421 -0.0176 -0.5893 -0.1675
 1925TIP3    H127338   6.480   0.921   6.420  0.6248 -0.2067  1.9783
 1925TIP3    H227339   6.571   0.830   6.340 -1.9368  0.0666 -1.4708
 1926TIP3   OH227340   3.880   1.550   7.407 -0.2599  0.8225  0.2274
 1926TIP3    H127341   3.802   1.550   7.463 -2.3909 -0.8037 -2.5002
 1926TIP3    H227342   3.846   1.570   7.319  2.7177  1.9046 -0.7987
 1927TIP3   OH227343   3.394   5.277   0.220  0.3846  0.4814 -0.3643
 1927TIP3    H127344   3.476   5.254   0.174  0.1931 -0.3288 -0.3254
 1927TIP3    H227345   3.415   5.267   0.313  0.4515  1.0039 -0.3245
 1928TIP3   OH227346   0.203   6.536   7.107  0.1446  0.4264 -0.0743
 1928TIP3    H127347   0.225   6.584   7.187  0.7722  1.0994 -0.6424
 1928TIP3    H227348   0.110   6.554   7.093 -0.1106 -0.1395  0.7896
 1929TIP3   OH227349   4.130   4.131   8.097 -0.3772  0.1390  0.0948
 1929TIP3    H127350   4.203   4.131   8.035 -1.0121 -2.0475 -0.7399
 1929TIP3    H227351   4.108   4.223   8.108  1.5074  0.7515 -0.8155
 1930TIP3   OH227352   1.035   5.093   6.635 -0.1528 -0.0323 -0.0501
 1930TIP3    H127353   1.073   5.063   6.552  0.0582  1.1484 -0.3990
 1930TIP3    H227354   0.965   5.154   6.609 -3.1007 -2.8935  0.5283
 1931TIP3   OH227355   6.708   4.498   6.496  0.4451  0.5884 -0.1595
 1931TIP3    H127356   6.757   4.423   6.528  1.2156  2.1513  2.7140
 1931TIP3    H227357   6.735   4.508   6.405  2.3170 -1.0309  0.1474
 1932TIP3   OH227358   0.370   5.356   0.432 -0.0739  0.1294 -0.2080
 1932TIP3    H127359   0.450   5.310   0.406 -0.8448 -0.6708 -1.2973
 1932TIP3    H227360   0.397   5.446   0.448  1.2585 -0.4134  0.6867
 1933TIP3   OH227361   0.473   1.193   7.445  0.3069 -0.0089  0.1940
 1933TIP3    H127362   0.486   1.268   7.503  1.4880  0.6157 -0.8589
 1933TIP3    H227363   0.381   1.199   7.419  0.6644  1.7252 -0.7645
 1934TIP3   OH227364   2.149   6.234   0.734  0.0554  0.2819 -0.8093
 1934TIP3    H127365   2.210   6.289   0.685  1.2959 -0.6843 -0.4053
 1934TIP3    H227366   2.136   6.156   0.679 -2.0019  1.0826 -1.5625
 1935TIP3   OH227367   6.035   5.440   1.088  0.1685 -0.7065  0.0831
 1935TIP3    H127368   6.121   5.424   1.049  0.4968 -1.1816  0.9687
 1935TIP3    H227369   6.000   5.515   1.040  1.3810 -0.0631  0.1740
 1936TIP3   OH227370   4.709   4.824   0.707 -0.0433  0.0972 -0.6227
 1936TIP3    H127371   4.756   4.829   0.790 -0.8672  0.2438 -0.1506
 1936TIP3    H227372   4.722   4.734   0.678 -1.0735 -0.4437  0.4897
 1937TIP3   OH227373   0.597   4.949   8.166 -0.1642 -0.5353  0.0174
 1937TIP3    H127374   0.569   4.956   8.075  0.8167 -0.5124 -0.2998
 1937TIP3    H227375   0.692   4.934   8.160  0.4192  2.1838  1.0615
 1938TIP3   OH227376   6.781   1.399   7.117  0.2776  0.0751  0.2690
 1938TIP3    H127377   6.695   1.357   7.112  0.4033 -0.2429  0.7188
 1938TIP3    H227378   6.761   1.490   7.139 -0.0357  0.4629 -1.4706
 1939TIP3   OH227379   5.446   4.901   6.812 -0.0987  0.1488 -0.3968
 1939TIP3    H127380   5.412   4.973   6.759 -1.8217 -1.2290 -1.2463
 1939TIP3    H227381   5.481   4.839   6.749  1.9670  0.4543  0.3593
 1940TIP3   OH227382   1.957   3.762   8.355  0.2317  0.0491  0.1000
 1940TIP3    H127383   1.971   3.742   8.448 -0.1588 -0.0940  0.1317
 1940TIP3    H227384   2.026   3.715   8.309 -1.2872 -2.3279  0.0810
 1941TIP3   OH227385   1.673   3.432   0.246  0.3859  0.0737  0.0457
 1941TIP3    H127386   1.742   3.465   0.188  1.8531 -0.6679  1.2820
 1941TIP3    H227387   1.645   3.509   0.296  0.7170  0.2836 -0.0881
 1942TIP3   OH227388   6.320   4.650   7.963 -0.2974 -0.0576 -0.2642
 1942TIP3    H127389   6.349   4.559   7.960  0.2154  0.1382 -2.5098
 1942TIP3    H227390   6.275   4.664   7.880 -2.2928  1.1771  0.9235
 1943TIP3   OH227391   3.297   0.004   7.357 -0.2664 -0.0163 -0.3516
 1943TIP3    H127392   3.346   0.052   7.289  0.2358 -0.5519 -0.3729
 1943TIP3    H227393   3.346  -0.078   7.368 -1.9803 -1.2506 -1.4364
 1944TIP3   OH227394   4.178   0.097   8.559  0.4520 -0.3787 -0.0171
 1944TIP3    H127395   4.102   0.045   8.583  0.5023 -1.5345 -2.1622
 1944TIP3    H227396   4.145   0.162   8.498  0.8558  0.4640  0.6383
 1945TIP3   OH227397   4.652   0.279   0.042 -0.8270 -0.1527 -0.6122
 1945TIP3    H127398   4.566   0.277   0.082 -0.9737  0.9335 -0.8568
 1945TIP3    H227399   4.639   0.321  -0.043 -0.0625  0.0173 -0.6560
 1946TIP3   OH227400   6.041   2.082   7.252 -0.0808  0.7147  0.2449
 1946TIP3    H127401   6.068   2.081   7.160 -1.2071 -0.2877 -0.1027
 1946TIP3    H227402   6.109   2.133   7.296  0.3294  1.4708 -1.1827
 1947TIP3   OH227403   4.765   5.760   6.273 -0.8434 -0.3816  0.3141
 1947TIP3    H127404   4.735   5.737   6.185  0.8481 -0.5282 -0.2556
 1947TIP3    H227405   4.780   5.676   6.317  2.1374 -0.4832 -0.6552
 1948TIP3   OH227406   1.279   4.413   7.322  0.0806  0.0564 -0.1200
 1948TIP3    H127407   1.282   4.351   7.248  1.3849 -0.0083 -0.0342
 1948TIP3    H227408   1.187   4.415   7.347 -0.3744 -0.0112 -1.6738
 1949TIP3   OH227409   1.795   4.146   1.434  0.3855 -0.0102 -0.4096
 1949TIP3    H127410   1.730   4.191   1.487  0.8082  0.7362 -0.5161
 1949TIP3    H227411   1.752   4.064   1.408  0.4644 -0.7942  1.7547
 1950TIP3   OH227412   4.503   5.949   1.918  0.6216 -0.3857  0.2823
 1950TIP3    H127413   4.439   5.880   1.901  2.0615 -1.6652 -0.2007
 1950TIP3    H227414   4.484   5.977   2.008 -0.8593 -0.4267  0.0023
 1951TIP3   OH227415   1.614   3.622   1.483 -0.0619 -0.0367 -0.0583
 1951TIP3    H127416   1.607   3.556   1.552  1.9497 -1.8507 -1.4789
 1951TIP3    H227417   1.539   3.605   1.425  0.2736 -0.8968 -0.2514
 1952TIP3   OH227418   2.011   3.798   6.579 -0.0055  0.2132  0.3596
 1952TIP3    H127419   2.076   3.770   6.514  0.5324  0.7135  0.6686
 1952TIP3    H227420   1.981   3.883   6.546  0.2192  0.4366  0.7289
 1953TIP3   OH227421   2.753   0.775   1.036  0.0604 -0.5917 -0.1011
 1953TIP3    H127422   2.715   0.843   1.092  1.3838  0.4885 -0.4394
 1953TIP3    H227423   2.687   0.759   0.969 -1.2498 -1.3817  1.3160
 1954TIP3   OH227424   1.643   0.379   6.830  1.0303  0.3250  0.4394
 1954TIP3    H127425   1.670   0.293   6.797 -0.1807 -0.3471  1.1279
 1954TIP3    H227426   1.688   0.442   6.773  0.3454 -0.7668 -1.3998
 1955TIP3   OH227427   3.935   5.230   7.833  0.7898 -0.0988  0.4760
 1955TIP3    H127428   3.978   5.220   7.748  0.9196 -0.4471  0.5806
 1955TIP3    H227429   3.960   5.318   7.861  0.5719  0.0995  0.0608
 1956TIP3   OH227430   3.174   4.271   0.683  0.4270 -0.2250 -0.1609
 1956TIP3    H127431   3.206   4.182   0.673  1.6751  0.2486 -0.5717
 1956TIP3    H227432   3.081   4.266   0.658  0.7632 -1.1899 -1.2962
 1957TIP3   OH227433   5.860   6.802   8.701 -0.1054  0.1004 -0.1540
 1957TIP3    H127434   5.905   6.785   8.784 -1.1089 -1.1930  0.1554
 1957TIP3    H227435   5.930   6.814   8.638  0.6783 -0.0055  0.6742
 1958TIP3   OH227436   3.931   0.381   1.603  0.1863 -0.0092 -0.2435
 1958TIP3    H127437   3.894   0.359   1.517 -0.9677 -0.0378  0.2484
 1958TIP3    H227438   3.997   0.313   1.618 -0.7775 -1.0066 -0.3703
 1959TIP3   OH227439   5.235   1.011   0.602 -0.3969 -0.2124  0.1781
 1959TIP3    H127440   5.263   1.068   0.673 -0.7573  2.1111 -1.4477
 1959TIP3    H227441   5.311   1.005   0.544 -1.0943  0.6654 -0.8768
 1960TIP3   OH227442   5.007   4.338   7.229 -0.6608 -0.4604 -0.5162
 1960TIP3    H127443   4.977   4.385   7.307 -2.1582  0.0967 -1.3804
 1960TIP3    H227444   4.929   4.291   7.199 -0.4173  0.2277 -2.2955
 1961TIP3   OH227445   6.778   6.587   7.833 -0.4625  0.3929  0.7094
 1961TIP3    H127446   6.746   6.501   7.862  1.1006 -0.0368  1.2337
 1961TIP3    H227447   6.760   6.588   7.739  0.7724 -1.1333  0.4057
 1962TIP3   OH227448   5.297   2.818   0.189 -0.1163 -0.3888  0.3143
 1962TIP3    H127449   5.220   2.797   0.136 -0.6626  1.8828  0.1388
 1962TIP3    H227450   5.364   2.844   0.125  1.0390 -2.7843  0.4257
 1963TIP3   OH227451   4.195   6.123   6.694 -0.5281 -0.1937 -0.0995
 1963TIP3    H127452   4.140   6.177   6.638  0.7550 -0.0154 -1.2314
 1963TIP3    H227453   4.204   6.040   6.646  0.9216  0.1093 -0.3946
 1964TIP3   OH227454   2.009   2.948   8.054 -0.1220  0.0692 -0.8857
 1964TIP3    H127455   2.001   2.929   8.147 -0.5105 -2.0292 -1.2922
 1964TIP3    H227456   1.959   3.029   8.041  0.2206  0.5669  0.7633
 1965TIP3   OH227457   0.646   5.246   7.822 -0.2555 -0.0915 -0.1294
 1965TIP3    H127458   0.681   5.303   7.891  1.3872  2.3067 -2.7394
 1965TIP3    H227459   0.588   5.303   7.772 -1.5526 -1.8315 -0.7064
 1966TIP3   OH227460   4.817   4.208   0.611 -0.2855  0.1713  0.1312
 1966TIP3    H127461   4.794   4.115   0.613 -0.3502  0.1849  0.0108
 1966TIP3    H227462   4.783   4.240   0.527 -3.1347  1.0472  1.4834
 1967TIP3   OH227463   1.878   4.893   2.246  0.3891  0.4575  0.0531
 1967TIP3    H127464   1.788   4.924   2.231 -0.8029 -1.8850  1.7170
 1967TIP3    H227465   1.933   4.966   2.218 -1.9155  1.2727 -2.8404
 1968TIP3   OH227466   1.166   1.648   1.618  0.0237  0.6183 -0.2362
 1968TIP3    H127467   1.152   1.578   1.554 -0.1200  0.8802 -0.4930
 1968TIP3    H227468   1.113   1.622   1.693  0.4217  0.1634 -0.1084
 1969TIP3   OH227469   6.711   6.321   7.915  0.2294 -0.3465 -0.7183
 1969TIP3    H127470   6.706   6.292   8.006  1.1251 -1.0542 -0.8873
 1969TIP3    H227471   6.629   6.290   7.875  0.6774 -1.7235 -0.6210
 1970TIP3   OH227472   6.025   6.529   0.756 -1.2674  0.0473  0.5706
 1970TIP3    H127473   6.074   6.574   0.688 -0.8897 -1.7492 -0.4327
 1970TIP3    H227474   5.934   6.549   0.737 -1.1959 -0.7701 -0.7701
 1971TIP3   OH227475   1.689   3.449   7.202 -0.2755  0.4084  0.2194
 1971TIP3    H127476   1.602   3.418   7.177  0.4502 -2.3591  0.8213
 1971TIP3    H227477   1.732   3.471   7.120 -0.1748 -2.1989 -0.4942
 1972TIP3   OH227478   2.851   3.236   1.915  0.1887 -0.0735  0.1713
 1972TIP3    H127479   2.847   3.178   1.991 -0.3198  0.8646  0.8791
 1972TIP3    H227480   2.761   3.267   1.904  0.1694 -0.5129 -1.0734
 1973TIP3   OH227481   5.724   3.658   0.276  0.1768  0.1386  0.2423
 1973TIP3    H127482   5.685   3.738   0.314  0.9742  0.2319  0.8855
 1973TIP3    H227483   5.676   3.586   0.317 -0.2644  0.2679 -0.0310
 1974TIP3   OH227484   4.335   4.791   7.905 -0.2204 -0.0998  0.3305
 1974TIP3    H127485   4.430   4.801   7.909 -0.2613 -0.2411  2.1019
 1974TIP3    H227486   4.320   4.697   7.911 -0.4568 -0.2118 -1.3431
 1975TIP3   OH227487   4.864   2.229   1.716 -0.0438 -0.4471 -0.8782
 1975TIP3    H127488   4.942   2.194   1.759  0.8035 -0.9476 -2.6766
 1975TIP3    H227489   4.839   2.305   1.768  0.7515 -1.1428  0.5874
 1976TIP3   OH227490   2.995   4.826   0.335 -0.4763  0.3024 -0.0013
 1976TIP3    H127491   3.042   4.818   0.418 -0.5060  1.7255  0.1774
 1976TIP3    H227492   2.904   4.837   0.360 -0.4360  1.1265 -0.2073
 1977TIP3   OH227493   0.203   5.013   1.778  0.0342  0.0880 -0.4933
 1977TIP3    H127494   0.144   4.944   1.808  0.0001 -0.1667 -1.1368
 1977TIP3    H227495   0.179   5.089   1.831  0.0819 -0.3953  0.2329
 1978TIP3   OH227496   1.885   4.049   8.306  0.9139 -0.0032  0.4404
 1978TIP3    H127497   1.969   4.083   8.275  0.4541  0.9257  0.1917
 1978TIP3    H227498   1.899   3.954   8.313  1.8942  0.1078  0.1375
 1979TIP3   OH227499   0.618   4.862   2.265  0.1736 -0.6206 -0.2148
 1979TIP3    H127500   0.537   4.822   2.294 -0.4141 -0.2210 -1.2452
 1979TIP3    H227501   0.682   4.791   2.265 -0.6935 -1.4488 -1.3941
 1980TIP3   OH227502   4.269   4.559   1.428  0.1202 -0.1282  0.1751
 1980TIP3    H127503   4.346   4.505   1.448  1.1463  1.3050  0.1831
 1980TIP3    H227504   4.304   4.645   1.407 -1.3394 -0.0172 -2.1262
 1981TIP3   OH227505   3.260   1.426   7.934 -0.2295  0.4567  0.6716
 1981TIP3    H127506   3.220   1.455   8.016  0.3390  2.7372  0.2085
 1981TIP3    H227507   3.348   1.397   7.959  0.9203  3.5783  0.6329
 1982TIP3   OH227508   6.105   1.574   1.966  0.4225 -0.0591 -0.6873
 1982TIP3    H127509   6.027   1.619   1.998 -0.2378 -0.5611 -1.5559
 1982TIP3    H227510   6.075   1.525   1.889  1.2816 -1.3484 -0.2365
 1983TIP3   OH227511   3.385   2.633   8.272  0.0233 -0.4994  0.6147
 1983TIP3    H127512   3.364   2.569   8.339  1.7551 -1.2824  0.4745
 1983TIP3    H227513   3.468   2.602   8.234 -0.8556 -0.0925 -1.8699
 1984TIP3   OH227514   0.851   2.836   1.430  0.2355 -0.5080  0.3791
 1984TIP3    H127515   0.904   2.895   1.484  0.1950  0.6589 -0.7965
 1984TIP3    H227516   0.878   2.748   1.455  3.1547  0.0228 -0.5453
 1985TIP3   OH227517   2.532   4.716   8.543  0.3425  0.6495 -0.1054
 1985TIP3    H127518   2.537   4.633   8.496  1.2642  0.7273 -0.1623
 1985TIP3    H227519   2.448   4.754   8.516  0.0752 -0.0954 -0.3520
 1986TIP3   OH227520   1.912   5.520   1.004  0.5099 -0.1194  0.0362
 1986TIP3    H127521   1.947   5.596   0.957 -0.0154  0.1651  0.0979
 1986TIP3    H227522   1.975   5.450   0.987 -0.0399 -0.2427 -1.7241
 1987TIP3   OH227523   3.886   6.323   1.094 -0.2124 -0.0076 -0.3085
 1987TIP3    H127524   3.839   6.279   1.023  0.5902 -1.3660 -0.0283
 1987TIP3    H227525   3.838   6.297   1.173 -0.4348  0.5903 -0.2450
 1988TIP3   OH227526   1.140   0.222   7.643  0.2578  0.0123 -0.3519
 1988TIP3    H127527   1.075   0.257   7.703 -0.0440 -2.7382  1.0977
 1988TIP3    H227528   1.181   0.299   7.605 -1.3064  1.8682  1.4477
 1989TIP3   OH227529   1.032   5.766   7.669  0.5523  0.3876 -0.6359
 1989TIP3    H127530   1.006   5.692   7.615 -0.9312  0.5684 -0.2160
 1989TIP3    H227531   0.966   5.833   7.652  1.3001  1.2542 -0.2547
 1990TIP3   OH227532   0.941   5.461   0.863 -0.4469 -0.0581 -0.0115
 1990TIP3    H127533   0.959   5.381   0.813 -0.7049 -1.1242  1.5397
 1990TIP3    H227534   0.895   5.431   0.941 -1.7778  1.7741 -0.0403
 1991TIP3   OH227535   2.844   6.478   0.756  0.1607  0.0998  0.5798
 1991TIP3    H127536   2.764   6.427   0.764 -0.9362  0.9956 -3.1702
 1991TIP3    H227537   2.904   6.438   0.820 -1.7374 -3.5606  0.2983
 1992TIP3   OH227538   0.272   1.965   0.725  0.3757 -0.1702 -0.5178
 1992TIP3    H127539   0.265   1.980   0.819  0.2307 -3.0714  0.0198
 1992TIP3    H227540   0.201   1.905   0.704  0.1325  0.7513 -2.5931
 1993TIP3   OH227541   4.242   1.174   8.151  0.0122 -0.3480  0.4210
 1993TIP3    H127542   4.182   1.226   8.097  0.9300  1.2462  0.8897
 1993TIP3    H227543   4.329   1.208   8.130  0.6454 -1.6576  0.8109
 1994TIP3   OH227544   2.630   3.157   7.083 -0.3306  0.0711  0.1386
 1994TIP3    H127545   2.642   3.216   7.157 -1.8298  0.4532  0.1194
 1994TIP3    H227546   2.630   3.213   7.006 -2.8370  0.2870  0.1961
 1995TIP3   OH227547   6.324   4.905   7.793  0.0993  0.5613  0.4504
 1995TIP3    H127548   6.382   4.955   7.736 -0.1886  2.3797  1.6715
 1995TIP3    H227549   6.279   4.844   7.734  2.4082 -0.1522 -0.6794
 1996TIP3   OH227550   5.844   5.154   6.489  0.3755 -0.2552 -0.1273
 1996TIP3    H127551   5.852   5.225   6.425  1.3776 -1.2144 -1.1322
 1996TIP3    H227552   5.888   5.080   6.447  0.4694 -1.1142  1.4221
 1997TIP3   OH227553   5.540   3.106   0.654 -0.1342 -0.1500 -0.2998
 1997TIP3    H127554   5.541   3.016   0.620 -0.1257 -0.9009  1.5362
 1997TIP3    H227555   5.452   3.137   0.637 -0.0995 -0.4453 -1.0808
 1998TIP3   OH227556   1.466   5.481   1.202  0.2947  0.3340 -0.1458
 1998TIP3    H127557   1.537   5.501   1.142  0.1215  3.9835  0.6166
 1998TIP3    H227558   1.509   5.474   1.288 -0.0129  0.4279  0.0175
 1999TIP3   OH227559   3.730   1.071   0.224  0.3356  0.0260  0.8598
 1999TIP3    H127560   3.647   1.024   0.231  1.0709 -1.5055  0.0645
 1999TIP3    H227561   3.796   1.004   0.242  1.4374  0.8050 -0.1092
 2000TIP3   OH227562   0.477   1.257   0.858  0.2616 -0.2201  0.0342
 2000TIP3    H127563   0.411   1.188   0.866 -0.8596  0.8558  0.2872
 2000TIP3    H227564   0.475   1.281   0.765 -0.4974  0.5482  0.2341
 2001TIP3   OH227565   0.261   5.134   7.258  0.7186 -0.6490  0.1864
 2001TIP3    H127566   0.277   5.107   7.167 -0.9450  0.8384 -0.5952
 2001TIP3    H227567   0.348   5.131   7.298  1.7750  0.0548 -1.8553
 2002TIP3   OH227568   6.720   5.476   7.901 -0.5992 -0.6189 -0.2445
 2002TIP3    H127569   6.659   5.544   7.930 -0.8852  0.0970 -2.4014
 2002TIP3    H227570   6.792   5.481   7.964 -1.9128 -0.2748  1.2975
 2003TIP3   OH227571   1.671   2.510   1.704 -0.0550  0.3605 -0.4014
 2003TIP3    H127572   1.677   2.549   1.617  0.7426  0.5665 -0.2649
 2003TIP3    H227573   1.581   2.479   1.711 -0.6577  1.9765 -0.6111
 2004TIP3   OH227574   6.306   0.904   8.805 -0.2945  0.1907 -0.1209
 2004TIP3    H127575   6.340   0.865   8.886  0.3764  0.8681 -0.0602
 2004TIP3    H227576   6.212   0.906   8.817 -0.1892  0.4620  0.7384
 2005TIP3   OH227577   5.796   3.607   8.309 -0.7259 -0.0538  0.2334
 2005TIP3    H127578   5.755   3.667   8.247 -1.3931 -0.2960  0.4410
 2005TIP3    H227579   5.791   3.652   8.394  1.0271  0.7008 -0.0052
 2006TIP3   OH227580   5.319   4.593   8.034 -0.0524  0.5661  0.1744
 2006TIP3    H127581   5.373   4.573   8.110 -2.0887 -0.8402  1.3490
 2006TIP3    H227582   5.380   4.596   7.960  1.5437 -1.5986  1.3201
 2007TIP3   OH227583   1.139   5.829   0.180  0.4125 -0.4408 -0.7687
 2007TIP3    H127584   1.148   5.903   0.120 -0.5321 -1.1429 -1.8168
 2007TIP3    H227585   1.045   5.811   0.182  0.5860 -1.3456 -0.1863
 2008TIP3   OH227586   3.145   4.631   0.239 -0.1348  0.4136 -1.2558
 2008TIP3    H127587   3.075   4.692   0.258 -1.7381 -1.8061  0.4362
 2008TIP3    H227588   3.207   4.641   0.311  0.6606  1.3920 -2.0344
 2009TIP3   OH227589   4.641   4.433   7.659 -0.3735 -0.0524 -0.5233
 2009TIP3    H127590   4.728   4.474   7.662 -1.0790  1.4637  1.1571
 2009TIP3    H227591   4.585   4.499   7.621 -1.0897 -0.3833 -0.0614
 2010TIP3   OH227592   6.645   5.766   1.156  0.2662  0.2108 -0.1024
 2010TIP3    H127593   6.557   5.757   1.119 -0.5575 -0.3494  1.8082
 2010TIP3    H227594   6.683   5.679   1.149  0.5162  0.3545 -0.5568
 2011TIP3   OH227595   2.693   6.647   6.793  0.3474 -0.5696  0.5937
 2011TIP3    H127596   2.687   6.571   6.735  4.5253 -1.6473  1.2311
 2011TIP3    H227597   2.671   6.612   6.880 -2.0777  0.1285  0.3318
 2012TIP3   OH227598   2.578   3.289   1.896  0.2667 -0.4964 -0.3016
 2012TIP3    H127599   2.593   3.197   1.919 -0.3350 -0.2366  1.3204
 2012TIP3    H227600   2.527   3.324   1.970 -0.6748  0.8109 -1.5090
 2013TIP3   OH227601   2.370   3.050   1.772 -0.5887  0.7923 -0.2127
 2013TIP3    H127602   2.459   3.024   1.795 -0.2196  1.5308 -0.7883
 2013TIP3    H227603   2.318   3.029   1.850  0.5810  3.0362  1.2614
 2014TIP3   OH227604   4.816   4.893   0.948  0.7437 -0.0912  0.4023
 2014TIP3    H127605   4.731   4.860   0.978  0.6443 -1.5236 -1.3253
 2014TIP3    H227606   4.880   4.837   0.991  0.7518 -0.0056  0.5023
 2015TIP3   OH227607   1.096   4.595   7.939 -0.0477 -0.2114  0.0901
 2015TIP3    H127608   1.162   4.665   7.943  1.0312 -0.9994 -2.1571
 2015TIP3    H227609   1.016   4.639   7.912  0.4030  0.3035 -0.4398
 2016TIP3   OH227610   5.591   0.189   0.303 -0.6068 -0.1892 -0.4370
 2016TIP3    H127611   5.649   0.119   0.273 -0.1384  0.8938 -2.2202
 2016TIP3    H227612   5.508   0.172   0.259 -0.9163 -0.3872  0.2149
 2017TIP3   OH227613   5.254   5.002   6.528  0.4412 -0.8574 -0.4133
 2017TIP3    H127614   5.169   5.021   6.489 -0.8134 -1.1531  1.9891
 2017TIP3    H227615   5.303   4.957   6.459  0.2809  2.9120 -3.3411
 2018TIP3   OH227616   0.170   3.552   7.801 -0.3470  0.0724  0.3774
 2018TIP3    H127617   0.191   3.640   7.770  0.2505 -0.0217  0.4942
 2018TIP3    H227618   0.255   3.506   7.802 -0.5561 -0.3144  0.9101
 2019TIP3   OH227619   5.031   6.036   7.869 -0.0880 -0.0944  0.4670
 2019TIP3    H127620   4.972   6.029   7.943  2.4168  0.8252  2.7207
 2019TIP3    H227621   5.087   5.958   7.875 -0.4054 -0.4818 -1.0468
 2020TIP3   OH227622   4.405   4.532   6.340 -0.0314 -0.3890 -0.1370
 2020TIP3    H127623   4.405   4.593   6.267 -0.3739 -0.6565 -0.3632
 2020TIP3    H227624   4.344   4.570   6.403  0.8911  0.2705  0.3808
 2021TIP3   OH227625   5.108   2.690   8.585  0.2694 -0.0293  0.1615
 2021TIP3    H127626   5.148   2.605   8.605  0.9773  0.7042  2.1615
 2021TIP3    H227627   5.050   2.706   8.659 -0.5131  0.8465 -0.6288
 2022TIP3   OH227628   4.593   4.033   0.579  0.2369 -0.7618 -0.7711
 2022TIP3    H127629   4.510   4.014   0.625  0.5237  0.2180  0.1971
 2022TIP3    H227630   4.567   4.083   0.502 -0.0898 -0.6223 -0.5728
 2023TIP3   OH227631   4.752   1.958   2.242  0.1282 -0.1167 -0.1483
 2023TIP3    H127632   4.706   1.888   2.196 -0.1709 -0.7747  1.1157
 2023TIP3    H227633   4.784   1.917   2.322  1.1283  0.8606 -0.0184
 2024TIP3   OH227634   6.710   5.573   0.875 -0.0940  0.0407  0.1047
 2024TIP3    H127635   6.688   5.666   0.882 -0.5249  0.0355 -0.9344
 2024TIP3    H227636   6.669   5.532   0.951 -0.2460  0.6405  0.3465
 2025TIP3   OH227637   0.426   1.314   1.658 -0.0305 -0.2000  0.0747
 2025TIP3    H127638   0.359   1.314   1.726  1.3533  1.7744  1.5386
 2025TIP3    H227639   0.509   1.326   1.704  1.1445 -0.4111 -1.8329
 2026TIP3   OH227640   3.680   0.754   8.529  0.7192  0.1678 -0.1686
 2026TIP3    H127641   3.672   0.660   8.546 -0.0908  0.2500 -0.0661
 2026TIP3    H227642   3.652   0.796   8.610 -1.5245  0.5302 -1.0597
 2027TIP3   OH227643   3.821   1.894   6.580 -0.1206  1.0305  0.1988
 2027TIP3    H127644   3.811   1.818   6.524  2.0112  0.9277 -0.0989
 2027TIP3    H227645   3.846   1.965   6.521 -0.2043  1.4977  0.7151
 2028TIP3   OH227646   2.590   0.989   7.217 -0.0326  0.1955  0.1973
 2028TIP3    H127647   2.645   1.026   7.148 -0.2675  1.5216  0.7059
 2028TIP3    H227648   2.591   0.895   7.199  0.7884  0.3976 -0.9688
 2029TIP3   OH227649   0.341   3.860   0.594 -0.1202  0.0624  0.3641
 2029TIP3    H127650   0.383   3.872   0.509 -0.3335  0.7879  0.3609
 2029TIP3    H227651   0.410   3.881   0.658  0.6586 -2.3791  0.4319
 2030TIP3   OH227652   1.571   6.675   0.643  0.1018  0.7500 -0.1308
 2030TIP3    H127653   1.550   6.645   0.555  3.3111  0.4424 -0.8937
 2030TIP3    H227654   1.539   6.604   0.700 -2.0722  0.9927 -0.9579
 2031TIP3   OH227655   2.194   0.859   1.247 -0.1300  0.2678 -0.0843
 2031TIP3    H127656   2.209   0.868   1.153 -1.4521  0.7093 -0.2771
 2031TIP3    H227657   2.206   0.766   1.265  4.1902  0.6607  0.1238
 2032TIP3   OH227658   4.712   1.892   7.118  0.3290  0.5749  0.2543
 2032TIP3    H127659   4.622   1.891   7.150  0.2333 -0.6049 -0.0100
 2032TIP3    H227660   4.763   1.924   7.193 -0.4812  3.1493 -0.1936
 2033TIP3   OH227661   5.299   1.480   0.803 -0.0685  0.3244  0.2235
 2033TIP3    H127662   5.269   1.445   0.720 -0.4893  0.5387  0.2834
 2033TIP3    H227663   5.395   1.481   0.796 -0.1119  0.5999 -0.3651
 2034TIP3   OH227664   2.138   5.736   0.927 -0.5203 -0.1547  0.1268
 2034TIP3    H127665   2.205   5.711   0.989 -0.3384 -0.3204 -0.1351
 2034TIP3    H227666   2.122   5.657   0.875  0.2582  0.3246 -0.8892
 2035TIP3   OH227667   6.250   0.324   7.387 -0.0219  0.1255  0.4748
 2035TIP3    H127668   6.310   0.384   7.431  0.2174 -0.8922  1.6220
 2035TIP3    H227669   6.171   0.326   7.441 -0.8437  1.0634 -0.7331
 2036TIP3   OH227670   0.246   4.400   0.731 -0.3862  0.6981 -0.1554
 2036TIP3    H127671   0.164   4.371   0.691 -0.0331  0.2665 -0.5851
 2036TIP3    H227672   0.239   4.496   0.733 -1.2885  0.6306  0.6758
 2037TIP3   OH227673   3.111   6.304   7.210  0.0102 -0.1320  0.3639
 2037TIP3    H127674   3.152   6.326   7.294 -0.4198 -0.9642  0.7978
 2037TIP3    H227675   3.019   6.329   7.221 -0.0933 -0.4421  0.2175
 2038TIP3   OH227676   3.823   4.571   1.647  0.1043  0.1092 -0.0177
 2038TIP3    H127677   3.768   4.649   1.650  1.3052  0.9743  2.2175
 2038TIP3    H227678   3.904   4.600   1.605 -0.0804 -0.4046 -0.7413
 2039TIP3   OH227679   2.081   3.171   1.780 -0.1133 -0.3094 -0.3435
 2039TIP3    H127680   1.989   3.184   1.800  0.0623  1.7000 -0.5959
 2039TIP3    H227681   2.098   3.228   1.705  1.7019  0.7545  0.7988
 2040TIP3   OH227682   1.100   2.524   1.436  0.0396  0.5968  0.3568
 2040TIP3    H127683   1.105   2.429   1.429  0.4707  0.7075 -1.1537
 2040TIP3    H227684   1.007   2.543   1.451 -0.3288  0.0087 -1.0308
 2041TIP3   OH227685   4.320   2.132   8.778 -0.1740  0.3580 -0.0737
 2041TIP3    H127686   4.304   2.109   8.686 -1.0598  1.8648 -0.3307
 2041TIP3    H227687   4.407   2.172   8.779 -0.1253  0.2576 -0.2275
 2042TIP3   OH227688   4.161   2.534   0.858 -0.3971 -0.0436  0.4298
 2042TIP3    H127689   4.190   2.446   0.882 -0.3695 -0.4395 -0.9573
 2042TIP3    H227690   4.215   2.593   0.911  0.3622 -0.8405  0.5652
 2043TIP3   OH227691   4.753   5.542   6.432  0.5138  0.5022 -0.5287
 2043TIP3    H127692   4.728   5.615   6.488  0.8817  0.1898  0.0530
 2043TIP3    H227693   4.789   5.477   6.492 -1.8504 -1.1103 -0.7435
 2044TIP3   OH227694   6.436   2.859   1.527 -0.2034  0.3585 -0.0996
 2044TIP3    H127695   6.384   2.890   1.453 -2.7256 -0.8941  1.0183
 2044TIP3    H227696   6.455   2.768   1.507  1.8002  0.8245 -0.5474
 2045TIP3   OH227697   2.034   5.609   8.708  0.5174 -0.2707 -0.3787
 2045TIP3    H127698   2.094   5.642   8.774  1.8270 -2.5565 -0.3473
 2045TIP3    H227699   2.076   5.630   8.624 -0.0305  0.5895 -0.4521
 2046TIP3   OH227700   4.145   4.157   1.030 -0.2052  0.2365  0.3618
 2046TIP3    H127701   4.060   4.195   1.005 -0.2268  0.7974  1.2294
 2046TIP3    H227702   4.153   4.177   1.124 -0.4978 -2.4262  1.0473
 2047TIP3   OH227703   5.143   6.311   8.245  0.4424 -0.4436 -0.3774
 2047TIP3    H127704   5.063   6.361   8.230 -0.3104 -1.2496  0.8526
 2047TIP3    H227705   5.163   6.272   8.160 -1.0670 -1.0848 -0.4637
 2048TIP3   OH227706   3.552   4.085   6.660  0.4883  0.2552 -0.1540
 2048TIP3    H127707   3.519   4.011   6.711  0.8528 -1.4972 -2.3462
 2048TIP3    H227708   3.508   4.079   6.576  0.5414  2.5698 -0.4243
 2049TIP3   OH227709   2.300   4.826   8.460  0.7093 -0.1933 -0.6607
 2049TIP3    H127710   2.229   4.868   8.412  0.1486 -0.3707  0.0009
 2049TIP3    H227711   2.323   4.888   8.529  0.6419 -0.4808 -0.3737
 2050TIP3   OH227712   2.629   1.547   8.602 -0.4301  0.7328 -0.0489
 2050TIP3    H127713   2.621   1.525   8.695 -0.8614  2.1475  0.2800
 2050TIP3    H227714   2.696   1.488   8.569 -1.2267 -0.7235  0.8381
 2051TIP3   OH227715   5.296   6.201   8.665 -0.3935 -0.1937  0.1340
 2051TIP3    H127716   5.302   6.107   8.649 -1.4262 -0.1563 -0.5405
 2051TIP3    H227717   5.384   6.234   8.651 -0.1756 -0.9611 -0.3274
 2052TIP3   OH227718   6.584   4.697   7.452 -0.1500 -0.1471  0.4640
 2052TIP3    H127719   6.554   4.730   7.367  0.4086 -0.5949  0.0804
 2052TIP3    H227720   6.575   4.602   7.445 -1.3026 -0.1229  1.3834
 2053TIP3   OH227721   0.835   6.370   8.218 -0.0286 -0.1295  0.1562
 2053TIP3    H127722   0.809   6.438   8.155 -0.5176  1.7627  2.2467
 2053TIP3    H227723   0.753   6.329   8.244  0.2228 -1.2514 -0.7509
 2054TIP3   OH227724   6.193   5.477   1.310  0.3798  0.0347 -0.1199
 2054TIP3    H127725   6.147   5.439   1.235 -2.4488 -0.9648  1.9918
 2054TIP3    H227726   6.164   5.568   1.312 -1.6897 -0.5946  1.2125
 2055TIP3   OH227727   2.025   2.746   7.860 -0.6595 -0.5786  0.0959
 2055TIP3    H127728   2.004   2.676   7.922 -1.9025 -0.8754 -0.6248
 2055TIP3    H227729   2.059   2.817   7.914  0.1195 -1.5415  0.8986
 2056TIP3   OH227730   6.083   1.499   8.440 -0.1820 -0.0509 -0.1418
 2056TIP3    H127731   6.141   1.557   8.489  1.1592 -0.1202 -1.5698
 2056TIP3    H227732   6.095   1.524   8.349 -2.6527  0.1138 -0.4863
 2057TIP3   OH227733   2.407   3.492   6.925 -0.2980  0.2629  0.2354
 2057TIP3    H127734   2.431   3.432   6.855 -1.6989 -0.6283  0.4787
 2057TIP3    H227735   2.477   3.483   6.990  0.9836  1.0657 -0.9933
 2058TIP3   OH227736   3.073   4.710   7.316 -0.6707  0.7454  0.0402
 2058TIP3    H127737   3.140   4.648   7.287  0.0674  1.0698  0.9936
 2058TIP3    H227738   3.012   4.716   7.243  0.1106  0.1070 -0.6780
 2059TIP3   OH227739   1.725   6.049   7.000 -0.0980 -0.7429 -0.0729
 2059TIP3    H127740   1.667   6.073   6.928 -0.4639 -1.0293  0.1261
 2059TIP3    H227741   1.763   6.133   7.029 -1.5854 -0.3263  0.8047
 2060TIP3   OH227742   2.286   1.139   7.897  0.0676 -0.1790  0.5483
 2060TIP3    H127743   2.347   1.211   7.910 -1.7114  1.4497  0.3849
 2060TIP3    H227744   2.305   1.078   7.968  1.9274  0.1981  0.4221
 2061TIP3   OH227745   5.029   0.692   6.977  0.0111 -0.0359  0.0072
 2061TIP3    H127746   5.014   0.613   6.924  0.6843 -1.8821  2.3634
 2061TIP3    H227747   5.106   0.670   7.030  1.1380  2.8377 -0.2636
 2062TIP3   OH227748   3.804   5.199   8.721 -0.4802 -0.5112 -0.2423
 2062TIP3    H127749   3.865   5.234   8.657  1.1966 -0.2765  1.3898
 2062TIP3    H227750   3.823   5.105   8.723 -0.2055 -0.4500  0.2085
 2063TIP3   OH227751   2.256   1.454   8.089 -0.0471 -0.1094 -0.2628
 2063TIP3    H127752   2.340   1.417   8.062  0.2085  0.5865 -0.4402
 2063TIP3    H227753   2.236   1.519   8.022 -0.2118  0.4842  0.3573
 2064TIP3   OH227754   2.017   1.106   7.432  0.0820 -1.0917 -0.1263
 2064TIP3    H127755   2.059   1.084   7.515  1.6014  2.3283  0.1815
 2064TIP3    H227756   2.075   1.070   7.365  0.6417 -1.0021  0.3051
 2065TIP3   OH227757   6.480   1.456   8.736  0.3060 -0.2011 -0.0613
 2065TIP3    H127758   6.555   1.515   8.741 -0.4477  1.0002 -1.9908
 2065TIP3    H227759   6.416   1.493   8.797  0.4255  0.0680 -0.1004
 2066TIP3   OH227760   4.233   4.597   8.242 -0.8113  0.4810 -0.0506
 2066TIP3    H127761   4.207   4.680   8.201 -2.5560 -1.3505 -2.9782
 2066TIP3    H227762   4.158   4.539   8.230  0.0536 -1.4077  2.5593
 2067TIP3   OH227763   6.648   1.844   6.729  0.4422 -0.4396  0.4356
 2067TIP3    H127764   6.677   1.892   6.651  0.2135  0.3389  0.8240
 2067TIP3    H227765   6.708   1.770   6.735 -0.0924 -1.0394 -1.0127
 2068TIP3   OH227766   3.188   6.284   7.808 -0.3287  0.3087  0.9705
 2068TIP3    H127767   3.126   6.212   7.797  1.2900 -1.2226  1.3783
 2068TIP3    H227768   3.189   6.328   7.723 -2.1439  0.5420  1.0369
 2069TIP3   OH227769   2.562   4.434   8.409 -0.4082 -0.1162 -0.1595
 2069TIP3    H127770   2.535   4.427   8.500 -0.6912 -0.6251 -0.2800
 2069TIP3    H227771   2.480   4.437   8.359 -0.2767 -1.6225 -0.5243
 2070TIP3   OH227772   5.475   5.333   1.241  0.3676  0.0095  0.0508
 2070TIP3    H127773   5.537   5.348   1.313  0.1727  0.0744  0.2056
 2070TIP3    H227774   5.428   5.415   1.232 -0.0015 -0.1811  0.2269
 2071TIP3   OH227775   5.316   4.060   7.822 -0.1576  0.5830 -0.1829
 2071TIP3    H127776   5.263   4.139   7.807  0.2194  0.7107 -0.9140
 2071TIP3    H227777   5.394   4.074   7.768 -0.0890 -0.2956 -0.3181
 2072TIP3   OH227778   3.363   2.953   0.427  0.1943  0.4572  0.0238
 2072TIP3    H127779   3.419   2.891   0.473  0.1875  1.4245  1.4334
 2072TIP3    H227780   3.322   2.903   0.357  0.6889 -0.9460  0.7110
 2073TIP3   OH227781   1.393   3.105   6.821  1.0388 -0.0056 -0.2426
 2073TIP3    H127782   1.375   3.011   6.811  0.4815  0.0948 -0.1896
 2073TIP3    H227783   1.488   3.112   6.812  1.1010 -0.5973 -0.0902
 2074TIP3   OH227784   2.903   3.096   1.527  0.0732  0.0064  0.4529
 2074TIP3    H127785   2.975   3.148   1.492 -0.1726 -0.0154 -0.0942
 2074TIP3    H227786   2.909   3.012   1.481  0.0343 -0.1933  0.8083
 2075TIP3   OH227787   0.095   5.324   0.347  0.1853 -0.2074 -0.0577
 2075TIP3    H127788   0.108   5.232   0.322  0.0793 -0.3385  0.3546
 2075TIP3    H227789   0.184   5.356   0.366  0.1874 -0.3338  0.1558
 2076TIP3   OH227790   4.522   3.416   0.381  0.3419  0.3726  0.5111
 2076TIP3    H127791   4.585   3.416   0.453  0.7461  1.4370  0.1757
 2076TIP3    H227792   4.518   3.324   0.352  0.1773 -0.0631  1.8627
 2077TIP3   OH227793   3.310   0.549   0.039  1.2836  0.0235  0.0089
 2077TIP3    H127794   3.221   0.526   0.063  1.6686  0.3561  1.8834
 2077TIP3    H227795   3.303   0.635  -0.001  0.9159  0.7882  1.6357
 2078TIP3   OH227796   6.668   5.478   1.208 -0.5147  0.3794 -0.2585
 2078TIP3    H127797   6.692   5.401   1.260  0.1179  0.0634 -0.9874
 2078TIP3    H227798   6.620   5.534   1.268  0.7028  0.2990  0.8425
 2079TIP3   OH227799   5.979   5.495   0.209 -0.2992 -0.3766  0.4885
 2079TIP3    H127800   6.022   5.413   0.184 -0.8341 -0.6895  0.5839
 2079TIP3    H227801   5.998   5.555   0.136  0.5169 -0.4255  0.6525
 2080TIP3   OH227802   2.495   1.467   1.915  0.3319 -0.3734 -0.2951
 2080TIP3    H127803   2.529   1.460   2.004 -3.0339  0.0694  1.1692
 2080TIP3    H227804   2.517   1.556   1.887  0.1501 -0.0158  0.6805
 2081TIP3   OH227805   4.469   4.705   0.070 -0.3946 -0.1944  0.2608
 2081TIP3    H127806   4.501   4.770   0.007 -1.6559 -0.2968 -0.5136
 2081TIP3    H227807   4.543   4.645   0.082  0.0174  0.0709 -0.8006
 2082TIP3   OH227808   5.852   4.315   1.246 -0.3030 -0.0728  0.1127
 2082TIP3    H127809   5.929   4.357   1.208  0.1471 -0.9968 -0.0148
 2082TIP3    H227810   5.867   4.318   1.341  0.5014 -1.3649  0.0442
 2083TIP3   OH227811   5.287   4.028   0.288 -0.2765 -0.4566  0.2721
 2083TIP3    H127812   5.372   3.987   0.273  0.1597  0.6648 -0.4857
 2083TIP3    H227813   5.278   4.091   0.217 -1.4563 -0.1001  0.7149
 2084TIP3   OH227814   3.517   4.110   7.071 -0.1115 -0.3442  0.0964
 2084TIP3    H127815   3.512   4.050   6.997  2.5720  0.4166 -0.8269
 2084TIP3    H227816   3.569   4.062   7.136 -0.3460 -0.0765  0.4799
 2085TIP3   OH227817   4.647   4.865   8.757  0.3024 -0.3372  0.6409
 2085TIP3    H127818   4.660   4.939   8.817  1.8124  0.1679 -0.2604
 2085TIP3    H227819   4.642   4.906   8.670 -0.3017 -1.1810  0.2744
 2086TIP3   OH227820   6.587   2.304   7.435  0.8506  0.3055 -0.6329
 2086TIP3    H127821   6.504   2.314   7.481  0.5735 -0.2603 -1.0031
 2086TIP3    H227822   6.612   2.394   7.412 -0.0972  0.4231 -1.2803
 2087TIP3   OH227823   2.310   1.180   0.031  0.1027 -0.0938  0.2276
 2087TIP3    H127824   2.274   1.109  -0.023 -0.5245  0.2055  0.2398
 2087TIP3    H227825   2.404   1.166   0.030 -0.0134 -0.9500  0.2540
 2088TIP3   OH227826   1.520   0.372   1.447 -0.0244 -0.0656 -0.0883
 2088TIP3    H127827   1.501   0.419   1.528 -0.9296 -1.7094  0.7078
 2088TIP3    H227828   1.613   0.350   1.454 -0.6501 -2.5833  1.9192
 2089TIP3   OH227829   4.444   2.274   0.670 -0.0867  0.5476  0.3635
 2089TIP3    H127830   4.417   2.301   0.758 -0.2396  0.1566  0.4350
 2089TIP3    H227831   4.365   2.237   0.631 -0.1252  1.0770 -0.0824
 2090TIP3   OH227832   5.877   0.326   0.349 -0.4390 -0.4259 -0.1698
 2090TIP3    H127833   5.921   0.287   0.425 -2.2422 -0.2246  1.0524
 2090TIP3    H227834   5.869   0.255   0.286  0.9594 -0.6359 -0.1212
 2091TIP3   OH227835   2.835   1.750   8.635  0.4112 -0.1634  0.4559
 2091TIP3    H127836   2.858   1.721   8.547  0.5362 -0.6611  0.6477
 2091TIP3    H227837   2.759   1.695   8.658  1.2055 -0.9963  1.1753
 2092TIP3   OH227838   0.949   4.999   7.215  0.0186  0.0067  1.3366
 2092TIP3    H127839   0.882   5.053   7.257  0.4240  0.6013  1.2216
 2092TIP3    H227840   0.923   4.909   7.236 -0.2993  0.2608  2.0689
 2093TIP3   OH227841   5.705   3.844   1.278 -0.3598  0.5239 -0.2946
 2093TIP3    H127842   5.660   3.779   1.224 -0.4054  0.0801  0.2671
 2093TIP3    H227843   5.638   3.874   1.340  0.2090 -0.4556  0.8273
 2094TIP3   OH227844   5.846   2.046   8.130 -0.9045  0.6768  0.5673
 2094TIP3    H127845   5.780   2.044   8.199 -0.9743 -1.1847  0.4932
 2094TIP3    H227846   5.925   2.011   8.170 -0.9864 -0.5840 -0.2976
 2095TIP3   OH227847   1.116   6.134   0.229  0.0408 -0.1138 -0.2412
 2095TIP3    H127848   1.205   6.151   0.259 -0.3103  0.4222  0.5245
 2095TIP3    H227849   1.119   6.150   0.135  0.2748  1.9550  0.0824
 2096TIP3   OH227850   6.731   2.574   7.896  0.1626 -0.2733  0.2615
 2096TIP3    H127851   6.692   2.523   7.968 -2.3380  0.8990 -0.1743
 2096TIP3    H227852   6.714   2.521   7.818  0.7575 -0.4233  0.2295
 2097TIP3   OH227853   4.319   0.756   0.156 -0.0138  0.0550  0.1516
 2097TIP3    H127854   4.296   0.830   0.212  1.1514  0.5409  0.0271
 2097TIP3    H227855   4.346   0.796   0.073  1.3325 -0.4449  0.3234
 2098TIP3   OH227856   3.305   1.383   8.781 -0.1885  0.1312  0.1949
 2098TIP3    H127857   3.346   1.466   8.755  0.2833 -0.3403 -0.5965
 2098TIP3    H227858   3.212   1.397   8.766 -0.0407  0.2848 -0.6102
 2099TIP3   OH227859   2.248   1.539   0.260 -0.1366  0.0098 -0.3155
 2099TIP3    H127860   2.158   1.572   0.257  0.7159  2.5382 -1.2274
 2099TIP3    H227861   2.284   1.575   0.341  0.2844 -0.3421 -0.3411
 2100TIP3   OH227862   1.567   6.317   7.328 -0.3290 -0.0683 -0.0519
 2100TIP3    H127863   1.541   6.241   7.278  1.7984  0.3684 -1.9914
 2100TIP3    H227864   1.645   6.289   7.376 -0.6416  0.3663  0.7364
 2101TIP3   OH227865   5.670   5.905   7.553 -0.0605 -0.6127  0.0828
 2101TIP3    H127866   5.632   5.968   7.492  0.8993 -1.2495 -1.2173
 2101TIP3    H227867   5.763   5.928   7.554 -0.0839 -0.4892  1.4899
 2102TIP3   OH227868   6.647   0.750   8.397 -0.2459  0.3607  0.1852
 2102TIP3    H127869   6.623   0.661   8.422 -1.6223  0.5531 -0.3209
 2102TIP3    H227870   6.576   0.804   8.433  0.2372  1.1693 -0.0640
 2103TIP3   OH227871   6.699   2.020   2.293 -0.0185 -0.2631  0.4580
 2103TIP3    H127872   6.781   1.975   2.272  0.0511  0.3654 -0.6952
 2103TIP3    H227873   6.657   1.965   2.359  0.8076 -1.1791  0.2351
 2104TIP3   OH227874   1.105   5.620   8.414  0.1749 -0.5163  0.1087
 2104TIP3    H127875   1.121   5.648   8.505 -1.0751  2.4009 -0.4665
 2104TIP3    H227876   1.185   5.644   8.368  0.0078 -0.0422  0.0604
 2105TIP3   OH227877   2.940   4.571   1.747 -0.2900 -0.1895  0.7777
 2105TIP3    H127878   3.019   4.624   1.751 -0.7899  0.7343 -0.7998
 2105TIP3    H227879   2.897   4.584   1.832 -0.2987  1.7819  0.5026
 2106TIP3   OH227880   0.450   1.084   1.972  0.3776 -0.3166 -0.4370
 2106TIP3    H127881   0.536   1.076   1.931  0.4138 -1.0148 -0.2419
 2106TIP3    H227882   0.461   1.150   2.040  1.4882 -2.2199  1.3644
 2107TIP3   OH227883   1.051   4.425   8.794  0.9674 -0.5277 -0.4382
 2107TIP3    H127884   1.034   4.345   8.843 -0.8482  0.3890  0.5529
 2107TIP3    H227885   1.034   4.401   8.703 -1.4534 -0.8918  0.0290
 2108TIP3   OH227886   4.637   0.945   2.246  0.7764 -0.2430 -0.0513
 2108TIP3    H127887   4.605   0.977   2.162 -0.8448 -1.3782  0.1022
 2108TIP3    H227888   4.637   1.023   2.302 -0.9103 -0.0125 -0.3165
 2109TIP3   OH227889   4.575   4.469   1.026  0.3899 -0.1648 -0.2560
 2109TIP3    H127890   4.636   4.465   0.952 -0.2434 -1.9568 -0.7502
 2109TIP3    H227891   4.509   4.403   1.005  0.3573 -0.9687  2.0475
 2110TIP3   OH227892   2.547   0.438   6.678  0.5333  0.1819  0.0343
 2110TIP3    H127893   2.523   0.363   6.624 -0.5793 -0.0062  0.7732
 2110TIP3    H227894   2.472   0.452   6.735  0.0707  2.7842 -1.0450
 2111TIP3   OH227895   2.062   1.415   8.511 -0.4202  0.1684  0.4806
 2111TIP3    H127896   2.019   1.367   8.581 -0.5708  0.1526  0.3794
 2111TIP3    H227897   2.155   1.407   8.529 -0.4932  1.3207  1.4469
 2112TIP3   OH227898   3.366   4.171   7.466 -0.6201 -0.0435 -0.0734
 2112TIP3    H127899   3.338   4.117   7.541  1.7284  0.4088  1.2067
 2112TIP3    H227900   3.309   4.248   7.470 -0.8458 -0.2463  0.9733
 2113TIP3   OH227901   4.861   3.785   8.218  0.5090  0.1132  0.2607
 2113TIP3    H127902   4.865   3.800   8.313  2.4824  1.1744  0.0636
 2113TIP3    H227903   4.819   3.863   8.184  1.9227  0.8229  0.0857
 2114TIP3   OH227904   6.753   4.810   8.113 -0.5255  0.4622 -0.3565
 2114TIP3    H127905   6.692   4.805   8.040 -1.4250  3.1464  0.1208
 2114TIP3    H227906   6.828   4.858   8.079 -0.9752  1.7885  0.4558
 2115TIP3   OH227907   4.669   5.792   1.764  0.1441 -0.2023 -0.1425
 2115TIP3    H127908   4.742   5.793   1.826 -0.0760  0.0891  0.1152
 2115TIP3    H227909   4.605   5.854   1.801 -0.1091 -0.2390 -0.5126
 2116TIP3   OH227910   3.647   5.958   8.421  0.5672  0.0510  0.1342
 2116TIP3    H127911   3.668   5.935   8.331 -0.5165 -0.2396 -0.0599
 2116TIP3    H227912   3.576   6.022   8.414 -0.0705 -0.5685  0.7808
 2117TIP3   OH227913   1.550   2.931   8.112  0.3139  0.1947  0.0232
 2117TIP3    H127914   1.563   2.889   8.026 -2.4187 -0.9766  0.0809
 2117TIP3    H227915   1.487   3.000   8.095 -0.5350 -0.2798  1.1166
 2118TIP3   OH227916   5.376   4.877   1.152  0.3807  0.5997  0.1278
 2118TIP3    H127917   5.380   4.883   1.057 -0.3337 -0.8396 -0.0260
 2118TIP3    H227918   5.282   4.871   1.172  0.5636 -0.4121  0.7861
 2119TIP3   OH227919   1.444   0.420   0.149 -0.3821 -0.6256  0.0591
 2119TIP3    H127920   1.512   0.413   0.216  0.6401  0.2481 -0.8495
 2119TIP3    H227921   1.472   0.360   0.080 -0.9179 -0.8051 -0.0021
 2120TIP3   OH227922   4.319   3.406   1.307 -0.6626  0.3997  0.1764
 2120TIP3    H127923   4.241   3.388   1.361 -0.2676  1.0973  1.0150
 2120TIP3    H227924   4.297   3.372   1.221  0.1372 -4.3463  1.5872
 2121TIP3   OH227925   1.665   3.792   8.407  0.0492  0.0603  0.1182
 2121TIP3    H127926   1.759   3.793   8.385  0.4163  0.6674  1.5952
 2121TIP3    H227927   1.622   3.763   8.326  1.4394  0.5224 -0.8363
 2122TIP3   OH227928   5.189   6.451   2.766  0.4113 -0.0472 -0.0508
 2122TIP3    H127929   5.114   6.464   2.824  0.4170 -0.9188  0.1735
 2122TIP3    H227930   5.174   6.510   2.692  0.1471  0.7078  0.5953
 2123TIP3   OH227931   6.438   4.698   0.655  0.0992 -0.4623  0.1032
 2123TIP3    H127932   6.533   4.686   0.657 -0.0549 -2.0153 -0.2740
 2123TIP3    H227933   6.404   4.631   0.713 -0.8140 -0.6073 -0.5745
 2124TIP3   OH227934   3.319   4.779   2.120  0.2724 -0.3623  0.1310
 2124TIP3    H127935   3.415   4.782   2.126  0.4136 -2.3810 -0.2688
 2124TIP3    H227936   3.295   4.702   2.172 -0.8847 -1.3257 -1.7234
 2125TIP3   OH227937   0.203   2.125   0.935 -0.1793  0.4285 -0.0909
 2125TIP3    H127938   0.293   2.146   0.958 -0.2277  0.8878 -0.3308
 2125TIP3    H227939   0.151   2.159   1.008 -0.1079 -0.3924  0.3527
 2126TIP3   OH227940   4.246   6.336   0.959  0.1264 -0.2136  0.6547
 2126TIP3    H127941   4.161   6.372   0.935  0.4839  1.6907  2.0100
 2126TIP3    H227942   4.309   6.385   0.906  0.4143 -1.7026 -0.4424
 2127TIP3   OH227943   5.968   1.667   8.139  0.7218 -0.3528  0.2023
 2127TIP3    H127944   6.042   1.653   8.080 -0.8045  0.1480 -1.9574
 2127TIP3    H227945   5.980   1.757   8.171  0.5926  0.0538 -0.8518
 2128TIP3   OH227946   1.943   6.447   8.118  0.1858  0.2534 -0.1813
 2128TIP3    H127947   2.017   6.398   8.081  0.1208  0.6266 -0.8240
 2128TIP3    H227948   1.900   6.487   8.042 -0.0900  0.8489  0.2743
 2129TIP3   OH227949   2.068   5.456   8.385 -0.6325  0.3540  0.1431
 2129TIP3    H127950   2.134   5.460   8.454  0.1061 -3.4233 -0.1173
 2129TIP3    H227951   2.106   5.506   8.312  2.6780 -2.5960 -0.4127
 2130TIP3   OH227952   4.253   6.085   0.000  0.1360  0.2909 -0.0617
 2130TIP3    H127953   4.172   6.036   0.016 -0.0751 -0.6331 -3.2995
 2130TIP3    H227954   4.230   6.149  -0.067  1.8895  0.6033 -0.4150
 2131TIP3   OH227955   4.811   4.050   8.271  0.1832  0.4917 -0.1645
 2131TIP3    H127956   4.821   4.143   8.293  1.6500  0.1140  0.9318
 2131TIP3    H227957   4.725   4.027   8.304  0.2794  1.1927  0.6186
 2132TIP3   OH227958   4.518   0.292   2.748  0.4711  0.0482 -0.4983
 2132TIP3    H127959   4.443   0.264   2.695  0.5053  0.2497 -0.6559
 2132TIP3    H227960   4.580   0.219   2.743  0.7157  0.2978 -1.2120
 2133TIP3   OH227961   1.384   4.644   7.153  0.2989  0.4887 -0.2198
 2133TIP3    H127962   1.329   4.583   7.202  1.2214 -0.0610  0.1349
 2133TIP3    H227963   1.349   4.730   7.177 -1.3657  0.1262 -1.1493
 2134TIP3   OH227964   0.598   3.658   7.452 -0.1705  0.2031  0.2128
 2134TIP3    H127965   0.660   3.717   7.410 -1.7278  0.9411 -1.1937
 2134TIP3    H227966   0.587   3.587   7.389 -0.1319 -0.3310  0.8077
 2135TIP3   OH227967   0.652   6.465   7.738  0.1296  0.3741  0.1267
 2135TIP3    H127968   0.673   6.450   7.646 -0.3496  0.0789  0.0632
 2135TIP3    H227969   0.675   6.383   7.781 -1.3766 -0.1521 -0.0290
 2136TIP3   OH227970   0.586   3.873   8.025 -0.0133  0.9244  0.1434
 2136TIP3    H127971   0.533   3.793   8.024 -2.3356  2.3756 -0.3565
 2136TIP3    H227972   0.663   3.849   8.076 -0.0652 -1.9375 -0.9152
 2137TIP3   OH227973   0.932   0.040   6.957 -0.3869  0.3120 -0.5846
 2137TIP3    H127974   0.860   0.091   6.919  0.7542  1.6773 -1.0372
 2137TIP3    H227975   0.962  -0.015   6.885 -1.1264 -0.4607 -0.3180
 2138TIP3   OH227976   5.279   3.622   8.513 -0.1834 -0.4969 -0.3939
 2138TIP3    H127977   5.209   3.655   8.569  0.1537 -0.2930 -0.0815
 2138TIP3    H227978   5.340   3.696   8.506  1.5698 -1.6155  1.8966
 2139TIP3   OH227979   0.239   1.755   8.175  0.3198 -0.0482  0.7331
 2139TIP3    H127980   0.310   1.695   8.153 -0.2796  0.0965 -1.9157
 2139TIP3    H227981   0.267   1.797   8.256  3.4640  0.2717 -0.3907
 2140TIP3   OH227982   0.378   2.489   0.595 -0.1081  0.0260  0.2915
 2140TIP3    H127983   0.363   2.423   0.527 -0.5501  2.3836 -2.0769
 2140TIP3    H227984   0.473   2.496   0.600 -0.0584  0.8203 -1.1925
 2141TIP3   OH227985   3.056   6.765   1.132  0.2705 -0.1328  0.5283
 2141TIP3    H127986   3.017   6.852   1.140  0.6052  0.0429  0.2607
 2141TIP3    H227987   3.097   6.749   1.217  2.6327  1.1496 -0.2953
 2142TIP3   OH227988   4.863   1.093   8.312  0.2028  0.2108 -0.4301
 2142TIP3    H127989   4.877   0.999   8.324 -0.7086  0.3177  2.2724
 2142TIP3    H227990   4.941   1.135   8.348 -0.7614  0.4906  1.4759
 2143TIP3   OH227991   4.409   4.016   7.401 -0.5193 -0.6655  0.1317
 2143TIP3    H127992   4.434   4.077   7.332 -0.5091  0.0034  0.7219
 2143TIP3    H227993   4.314   4.020   7.404 -0.4679  0.4335  1.1421
 2144TIP3   OH227994   1.046   4.523   6.888  0.3432 -0.6410 -0.4011
 2144TIP3    H127995   1.076   4.455   6.948 -1.4726 -1.7642 -0.6770
 2144TIP3    H227996   1.089   4.502   6.805  1.1942 -0.3671 -0.0329
 2145TIP3   OH227997   0.537   6.405   1.168 -0.3245  0.0411 -0.3494
 2145TIP3    H127998   0.520   6.473   1.234 -1.1250  0.1061 -0.6087
 2145TIP3    H227999   0.546   6.454   1.086 -0.2274 -0.1125 -0.4295
 2146TIP3   OH228000   5.812   2.074   0.093 -0.1603  0.0602  0.3781
 2146TIP3    H128001   5.733   2.038   0.052 -0.3414 -0.9121  1.5073
 2146TIP3    H228002   5.865   1.997   0.114  0.5279  0.6234  0.7474
 2147TIP3   OH228003   4.151   4.901   7.412 -0.4661  0.5139 -0.1076
 2147TIP3    H128004   4.071   4.871   7.367  0.5863  0.5257 -2.1124
 2147TIP3    H228005   4.152   4.852   7.494 -0.8310 -2.0639 -1.5247
 2148TIP3   OH228006   5.368   3.419   6.849 -0.2392  0.2444 -0.2921
 2148TIP3    H128007   5.346   3.506   6.883  5.6599  1.9855  0.1405
 2148TIP3    H228008   5.366   3.429   6.754  0.7491  1.0443 -0.2438
 2149TIP3   OH228009   3.252   4.879   7.625  0.3361  0.1767  0.8568
 2149TIP3    H128010   3.316   4.933   7.579  0.3001  1.8475  2.6328
 2149TIP3    H228011   3.167   4.911   7.594  0.2757 -1.4963 -0.8971
 2150TIP3   OH228012   1.010   3.509   7.154  0.2795  0.0276 -0.4031
 2150TIP3    H128013   0.930   3.459   7.138  0.4571 -0.5683  0.5020
 2150TIP3    H228014   0.992   3.558   7.234  1.4516 -1.5448  0.8809
 2151TIP3   OH228015   2.436   4.942   8.141 -0.4180 -0.0497  0.3650
 2151TIP3    H128016   2.370   4.873   8.146  0.0990 -0.8880 -2.5790
 2151TIP3    H228017   2.506   4.904   8.089  0.0204  2.5836 -1.1352
 2152TIP3   OH228018   1.097   0.387   2.055  0.3743  0.0679  0.2703
 2152TIP3    H128019   1.146   0.424   2.128  1.1348  0.4966 -0.4317
 2152TIP3    H228020   1.083   0.295   2.078  2.8816 -0.4956 -0.1567
 2153TIP3   OH228021   0.477   0.258   6.936  0.2835  0.4346  0.2204
 2153TIP3    H128022   0.564   0.245   6.898 -0.2166 -0.0824 -0.7952
 2153TIP3    H228023   0.493   0.272   7.029  1.4907  0.8968 -0.0387
 2154TIP3   OH228024   3.700   0.885   1.186  0.4126 -0.3567 -0.3565
 2154TIP3    H128025   3.669   0.795   1.177 -1.3067 -0.0898  2.1379
 2154TIP3    H228026   3.622   0.936   1.206  1.6126  1.4023  0.0755
 2155TIP3   OH228027   3.570   2.454   8.480 -0.4315 -0.1691 -0.0548
 2155TIP3    H128028   3.620   2.502   8.546 -1.0268  1.9077 -1.0255
 2155TIP3    H228029   3.594   2.362   8.493 -1.1268  0.0090  3.5744
 2156TIP3   OH228030   5.405   6.311   1.668 -0.4329 -0.3491 -0.4005
 2156TIP3    H128031   5.399   6.216   1.657  1.3632 -0.3974 -1.3959
 2156TIP3    H228032   5.467   6.339   1.600 -1.4825  1.6414 -0.6018
 2157TIP3   OH228033   2.862   1.000   7.635  0.3651  0.6316  0.5873
 2157TIP3    H128034   2.864   1.074   7.696  0.6929  2.4335 -1.4973
 2157TIP3    H228035   2.782   1.013   7.585  0.8937  0.1075 -0.4165
 2158TIP3   OH228036   4.575   3.382   6.209 -0.2160 -0.2215  0.6267
 2158TIP3    H128037   4.570   3.453   6.272  0.3478  0.6938 -0.3299
 2158TIP3    H228038   4.669   3.370   6.194 -0.3166  1.8103 -2.4434
 2159TIP3   OH228039   0.488   0.544   7.205  0.0565 -0.1248 -0.2709
 2159TIP3    H128040   0.503   0.449   7.209  1.6379  0.1013 -0.2258
 2159TIP3    H228041   0.527   0.578   7.285 -0.1004  0.6235 -0.5025
 2160TIP3   OH228042   1.688   0.717   1.695  0.9796  0.1321  0.5316
 2160TIP3    H128043   1.674   0.759   1.781  0.9825  0.1448  0.5259
 2160TIP3    H228044   1.690   0.790   1.633 -1.2251 -0.0094  0.2198
 2161TIP3   OH228045   3.770   2.547   8.665 -0.2104  0.0852  0.4551
 2161TIP3    H128046   3.768   2.527   8.759  0.3188  0.3715  0.5315
 2161TIP3    H228047   3.800   2.638   8.660 -0.7769  0.2565  0.0280
 2162TIP3   OH228048   3.352   5.736   0.857  0.7590 -0.0102 -0.0169
 2162TIP3    H128049   3.404   5.804   0.901  2.3673  0.2748 -2.1930
 2162TIP3    H228050   3.389   5.654   0.889  1.5037  0.1882 -0.3461
 2163TIP3   OH228051   0.681   6.481   7.454  0.0077 -0.4573  0.2510
 2163TIP3    H128052   0.656   6.391   7.433  0.1092 -0.2909 -0.5969
 2163TIP3    H228053   0.599   6.530   7.454 -0.2545 -0.7938  2.1338
 2164TIP3   OH228054   4.092   5.238   7.004 -0.0026  0.7836  0.3798
 2164TIP3    H128055   4.127   5.165   7.054 -1.7024 -0.4417 -0.1607
 2164TIP3    H228056   4.060   5.300   7.069  0.8347  0.7623  0.8231
 2165TIP3   OH228057   6.376   0.607   0.450 -0.3004 -0.5072 -0.3924
 2165TIP3    H128058   6.458   0.656   0.452 -0.7102  0.1734  1.2302
 2165TIP3    H228059   6.401   0.519   0.421  0.8344 -0.0461 -0.8834
 2166TIP3   OH228060   2.281   1.239   6.740  0.3620 -0.1081 -0.2481
 2166TIP3    H128061   2.321   1.160   6.777 -0.3511 -1.1924 -1.7127
 2166TIP3    H228062   2.354   1.284   6.698  0.5044 -0.8265 -0.7967
 2167TIP3   OH228063   5.095   3.139   8.047  0.3641 -0.4357 -0.0141
 2167TIP3    H128064   5.141   3.146   7.963 -0.3523  0.4244 -0.3505
 2167TIP3    H228065   5.078   3.045   8.058 -1.8205 -0.3707 -2.1184
 2168TIP3   OH228066   3.947   3.032   7.094  0.3048 -0.0890 -0.4444
 2168TIP3    H128067   4.003   3.027   7.172  1.2248 -0.1732 -1.0848
 2168TIP3    H228068   3.962   2.948   7.050 -1.4135 -0.6978  0.0674
 2169TIP3   OH228069   0.518   2.681   1.605  0.2089  0.4897 -0.1857
 2169TIP3    H128070   0.521   2.634   1.521  1.1072 -0.5455  0.3943
 2169TIP3    H228071   0.505   2.773   1.581  3.8429  0.7596 -1.7099
 2170TIP3   OH228072   2.161   2.164   1.664  0.1496  0.5043  0.4688
 2170TIP3    H128073   2.116   2.116   1.594  1.5042  0.3310 -0.3057
 2170TIP3    H228074   2.141   2.256   1.647  0.4083  0.4578 -0.1186
 2171TIP3   OH228075   3.366   2.502   8.673  0.2276  0.2693 -0.0463
 2171TIP3    H128076   3.411   2.493   8.590  0.9596 -0.9649  0.4603
 2171TIP3    H228077   3.416   2.448   8.734 -1.5615 -0.6491  0.6884
 2172TIP3   OH228078   4.445   5.651   0.907  0.4670 -0.1293 -0.4895
 2172TIP3    H128079   4.444   5.711   0.982  0.2163  0.1007 -0.6762
 2172TIP3    H228080   4.396   5.575   0.936  0.4234 -0.0672 -0.3989
 2173TIP3   OH228081   2.751   2.084   8.614  0.0018  0.5046 -0.0049
 2173TIP3    H128082   2.672   2.113   8.567  0.6749  0.6697 -1.0552
 2173TIP3    H228083   2.754   1.990   8.600  0.0857  0.5225 -0.1041
 2174TIP3   OH228084   4.506   1.123   8.812  0.7554 -0.0811  0.2339
 2174TIP3    H128085   4.571   1.154   8.749  1.2737  0.0622  0.8333
 2174TIP3    H228086   4.556   1.104   8.892  0.4347 -2.1725  0.0111
 2175TIP3   OH228087   4.982   2.731   0.136  0.4955  0.1531 -0.2125
 2175TIP3    H128088   4.911   2.714   0.198  0.3302  0.9840 -0.1533
 2175TIP3    H228089   4.943   2.789   0.071  1.3164  1.2546  0.2477
 2176TIP3   OH228090   4.854   5.155   0.006  0.0328 -0.1128 -0.7643
 2176TIP3    H128091   4.888   5.234  -0.035  0.9424  0.3417  0.7724
 2176TIP3    H228092   4.760   5.156  -0.012  0.3167  0.3141 -2.3523
 2177TIP3   OH228093   6.316   1.282   1.581 -0.2094 -0.2006  0.3719
 2177TIP3    H128094   6.272   1.249   1.659 -0.2770  0.1330  0.4775
 2177TIP3    H228095   6.407   1.294   1.608 -0.2039 -0.2169  0.3609
 2178TIP3   OH228096   2.033   4.569   7.743  0.5183  0.4388  0.2831
 2178TIP3    H128097   1.987   4.649   7.717  1.7432  0.7935 -0.9066
 2178TIP3    H228098   1.978   4.531   7.811  0.2406  2.6668  1.4111
 2179TIP3   OH228099   5.518   3.257   1.592  0.1878  0.1752  0.5054
 2179TIP3    H128100   5.476   3.231   1.510  0.4067  0.3073  0.3509
 2179TIP3    H228101   5.584   3.190   1.608 -0.4692 -0.3654  1.0602
 2180TIP3   OH228102   3.416   6.633   8.411  0.0960 -0.3180 -0.0267
 2180TIP3    H128103   3.351   6.612   8.478 -0.7688 -0.0380 -0.7748
 2180TIP3    H228104   3.461   6.710   8.446 -0.7537  0.1914 -0.0228
 2181TIP3   OH228105   3.186   4.789   8.309  0.7211  0.3002  0.6266
 2181TIP3    H128106   3.130   4.824   8.239 -0.7406 -0.5787  1.3147
 2181TIP3    H228107   3.182   4.856   8.378 -0.0110 -0.0253  0.9165
 2182TIP3   OH228108   2.081   5.970   8.079 -0.4332  0.0074 -0.0130
 2182TIP3    H128109   2.101   5.970   7.986 -0.9598 -1.5045 -0.1547
 2182TIP3    H228110   2.053   5.880   8.098 -2.2957  0.7609  1.1584
 2183TIP3   OH228111   2.169   3.330   8.663 -1.1233 -0.2263  0.0314
 2183TIP3    H128112   2.185   3.331   8.569  0.0526 -1.7340  0.1871
 2183TIP3    H228113   2.204   3.414   8.694  0.9163 -0.8122 -0.5415
 2184TIP3   OH228114   2.494   6.745   8.793  0.4599  0.3199  0.6738
 2184TIP3    H128115   2.489   6.664   8.843  3.7802 -1.7151 -1.8222
 2184TIP3    H228116   2.506   6.814   8.858 -1.6468 -1.2140  2.8486
 2185TIP3   OH228117   6.188   2.570   2.186  1.1228  0.0549 -0.1128
 2185TIP3    H128118   6.230   2.610   2.263  1.4389  1.6908 -1.0806
 2185TIP3    H228119   6.244   2.497   2.163  0.8250 -0.6891  1.4177
 2186TIP3   OH228120   2.839   3.385   0.573 -0.0636 -0.2083  0.3416
 2186TIP3    H128121   2.820   3.321   0.504 -0.6075  2.9871 -2.7873
 2186TIP3    H228122   2.756   3.397   0.619 -0.1503 -1.1377  0.4353
 2187TIP3   OH228123   0.393   6.622   1.369 -0.0183 -0.4287 -0.2655
 2187TIP3    H128124   0.440   6.703   1.386  0.5739 -0.7611 -0.2815
 2187TIP3    H228125   0.368   6.627   1.277  1.8377 -1.1580 -0.8599
 2188TIP3   OH228126   2.375   3.666   7.136 -0.2359 -0.4383  0.2022
 2188TIP3    H128127   2.454   3.713   7.111 -2.8425  3.2949 -2.0106
 2188TIP3    H228128   2.360   3.604   7.064  0.1124 -0.4104  0.1026
 2189TIP3   OH228129   5.504   1.828   0.978  0.1123 -0.1168  0.3453
 2189TIP3    H128130   5.576   1.766   0.987  0.9412  0.8795  0.8882
 2189TIP3    H228131   5.425   1.775   0.983  0.7916 -1.0743  1.3286
 2190TIP3   OH228132   4.607   2.700   7.571 -0.5317  0.1689 -0.0010
 2190TIP3    H128133   4.546   2.762   7.611 -0.7009  1.5473 -2.1837
 2190TIP3    H228134   4.670   2.756   7.526 -0.8458 -1.2170 -2.3065
 2191TIP3   OH228135   2.766   4.766   7.495 -0.5603 -0.4586  0.0356
 2191TIP3    H128136   2.773   4.708   7.420 -0.1629 -2.7178  1.7383
 2191TIP3    H228137   2.673   4.786   7.502 -0.4832  0.6489 -1.6273
 2192TIP3   OH228138   1.739   2.186   1.432  0.1696  0.3691  0.1817
 2192TIP3    H128139   1.656   2.235   1.428  1.1586  2.0950 -0.0749
 2192TIP3    H228140   1.747   2.144   1.347 -0.6643 -0.2381  0.3857
 2193TIP3   OH228141   4.672   5.171   7.586  0.3019  0.3391  0.2627
 2193TIP3    H128142   4.639   5.081   7.588  0.6518  0.2157  2.2225
 2193TIP3    H228143   4.767   5.162   7.596  0.2064  0.9474  2.0573
 2194TIP3   OH228144   0.152   1.549   0.768  0.1454  0.1802 -0.0709
 2194TIP3    H128145   0.211   1.620   0.742 -0.7186  1.1628  0.5410
 2194TIP3    H228146   0.158   1.485   0.697  1.7528  0.3593 -0.1320
 2195TIP3   OH228147   1.193   0.351   6.856  0.3180  0.2845 -0.0648
 2195TIP3    H128148   1.097   0.352   6.855  0.2275 -0.9670  1.9521
 2195TIP3    H228149   1.217   0.274   6.805  0.1514 -0.3724  0.8176
 2196TIP3   OH228150   2.646   5.941   7.264  0.3145 -0.1652  0.3603
 2196TIP3    H128151   2.630   6.010   7.199 -0.6216 -1.4924 -0.8838
 2196TIP3    H228152   2.680   5.867   7.213  0.2198 -1.0074  1.4809
 2197TIP3   OH228153   4.907   3.436   8.303  0.1384 -0.0003  0.6397
 2197TIP3    H128154   4.969   3.376   8.344 -1.4868 -2.7325 -0.5761
 2197TIP3    H228155   4.849   3.463   8.374  1.5781  1.1563  1.4323
 2198TIP3   OH228156   6.444   0.657   7.101  0.0386  0.7801  0.0035
 2198TIP3    H128157   6.432   0.680   7.009 -0.6548 -2.4644 -0.8364
 2198TIP3    H228158   6.537   0.639   7.110  0.1316  1.2448 -0.0114
 2199TIP3   OH228159   4.347   3.877   7.922  0.4814 -0.1307  0.0922
 2199TIP3    H128160   4.287   3.905   7.853  2.2286  1.4626 -0.8879
 2199TIP3    H228161   4.383   3.958   7.958  2.1591 -1.0001  0.5242
 2200TIP3   OH228162   1.032   4.468   1.568 -0.4264  0.4320  0.0234
 2200TIP3    H128163   1.094   4.427   1.628  0.3506  0.9953 -0.3725
 2200TIP3    H228164   0.952   4.416   1.576 -0.3257  0.4819  1.5093
 2201TIP3   OH228165   4.568   1.914   8.815 -0.2842 -0.6997  0.5278
 2201TIP3    H128166   4.600   1.975   8.748 -2.4459 -0.7064 -0.5813
 2201TIP3    H228167   4.556   1.831   8.769 -0.0250 -1.2304  1.3885
 2202TIP3   OH228168   0.673   1.089   1.823 -0.0005  0.9157 -0.4307
 2202TIP3    H128169   0.663   1.105   1.729  1.1050  0.4293 -0.6450
 2202TIP3    H228170   0.723   1.008   1.828  0.4302  1.2347  0.5756
 2203TIP3   OH228171   6.408   3.203   7.159 -0.0883 -0.2541 -0.0202
 2203TIP3    H128172   6.325   3.251   7.164  0.3080  0.6234 -1.4048
 2203TIP3    H228173   6.438   3.198   7.250 -1.1516  0.3172  0.3827
 2204TIP3   OH228174   2.062   1.795   1.868 -0.4008  0.1562  0.1032
 2204TIP3    H128175   2.023   1.878   1.896 -1.4088 -0.9375  2.1724
 2204TIP3    H228176   2.151   1.798   1.902 -0.6881  0.0969  0.9017
 2205TIP3   OH228177   5.601   2.603   7.580 -0.0489 -0.5956  0.2460
 2205TIP3    H128178   5.516   2.636   7.551 -0.1037  0.1983  1.2712
 2205TIP3    H228179   5.662   2.630   7.512  0.0701  2.4855  1.4294
 2206TIP3   OH228180   0.475   2.947   7.644 -0.3129 -0.1887 -0.4475
 2206TIP3    H128181   0.489   2.977   7.733 -1.7644 -0.0315 -0.2481
 2206TIP3    H228182   0.452   3.026   7.595 -0.3396 -0.3954 -0.7757
 2207TIP3   OH228183   1.806   4.008   6.293  0.2405  0.3289 -0.0221
 2207TIP3    H128184   1.715   4.033   6.310  1.0296  2.1378  1.8792
 2207TIP3    H228185   1.851   4.023   6.375  2.2911 -0.5761 -0.9149
 2208TIP3   OH228186   2.615   0.643   1.866 -0.2136  0.0308  0.2796
 2208TIP3    H128187   2.611   0.555   1.827  1.3488  0.3400 -0.6661
 2208TIP3    H228188   2.524   0.669   1.877 -0.7395 -0.4487 -2.4003
 2209TIP3   OH228189   5.725   6.280   7.838  0.3656  0.2741  0.0231
 2209TIP3    H128190   5.721   6.299   7.932 -0.5248  2.0674 -0.3444
 2209TIP3    H228191   5.766   6.357   7.799 -0.8225  0.3105 -1.2296
 2210TIP3   OH228192   2.587   1.123   0.343 -0.4508 -0.0429  0.1250
 2210TIP3    H128193   2.656   1.171   0.296  0.3003 -0.8090  0.4043
 2210TIP3    H228194   2.507   1.172   0.325  0.6539  3.2032  2.8965
 2211TIP3   OH228195   3.561   1.539   0.768 -0.2836 -0.5771 -0.0804
 2211TIP3    H128196   3.571   1.467   0.829  2.1946  0.3315  0.6947
 2211TIP3    H228197   3.547   1.616   0.824 -0.7654 -0.1190 -0.8073
 2212TIP3   OH228198   2.469   0.192   6.557 -0.6493 -0.5921  0.1709
 2212TIP3    H128199   2.493   0.182   6.464  0.9789  0.5391  0.4213
 2212TIP3    H228200   2.404   0.124   6.572  0.0282 -1.6725 -1.4770
 2213TIP3   OH228201   4.946   4.801   1.308 -0.2374 -0.0728 -0.5556
 2213TIP3    H128202   4.991   4.858   1.245 -0.8436  1.0185 -0.0253
 2213TIP3    H228203   5.003   4.802   1.385 -0.2842 -0.1412 -0.5206
 2214TIP3   OH228204   0.083   1.669   8.608  0.5451  0.3980  0.6498
 2214TIP3    H128205   0.114   1.646   8.521  0.5334  0.5301  0.6112
 2214TIP3    H228206   0.095   1.589   8.660 -1.9736 -0.6011 -0.1271
 2215TIP3   OH228207   6.493   4.664   8.490  0.1750 -0.6225  0.8058
 2215TIP3    H128208   6.539   4.746   8.473 -0.9103 -0.2070 -0.2124
 2215TIP3    H228209   6.538   4.599   8.436 -0.5173 -0.1810 -0.3306
 2216TIP3   OH228210   4.302   6.050   1.043 -0.1453 -0.5818  0.0981
 2216TIP3    H128211   4.376   6.036   0.984  0.3417 -1.3869  0.8686
 2216TIP3    H228212   4.271   6.138   1.023 -0.4780 -1.0995 -1.8769
 2217TIP3   OH228213   6.303   3.514   1.555 -0.6392 -0.1261  0.7439
 2217TIP3    H128214   6.287   3.607   1.543  0.4128  0.2468  1.9892
 2217TIP3    H228215   6.322   3.505   1.649  1.6370 -1.1865  0.2511
 2218TIP3   OH228216   6.019   3.988   0.911 -0.4389  0.1563  0.2945
 2218TIP3    H128217   6.088   4.054   0.915  1.7191 -1.9587  0.3534
 2218TIP3    H228218   5.963   4.008   0.986  1.0678  0.9931  1.2572
 2219TIP3   OH228219   6.150   6.211   8.028  0.2099 -0.4230 -0.0771
 2219TIP3    H128220   6.173   6.245   8.115 -0.5289  0.9585 -0.3845
 2219TIP3    H228221   6.058   6.186   8.037 -0.6110  2.0130 -1.0681
 2220TIP3   OH228222   3.333   0.414   6.927 -0.3868 -0.1658 -0.3500
 2220TIP3    H128223   3.349   0.399   6.834 -0.7988  3.1060 -1.0739
 2220TIP3    H228224   3.246   0.454   6.930 -0.6319 -0.7402  1.5313
 2221TIP3   OH228225   4.619   0.902   6.268  0.0256  0.1844  0.0953
 2221TIP3    H128226   4.639   0.994   6.285 -1.1449  0.1970  1.6595
 2221TIP3    H228227   4.524   0.897   6.268  0.0707 -0.9549 -0.4052
 2222TIP3   OH228228   0.833   6.695   7.366 -0.0818 -0.1582 -0.0785
 2222TIP3    H128229   0.751   6.741   7.377 -1.3514 -1.8029 -1.9398
 2222TIP3    H228230   0.823   6.616   7.419 -0.2229 -0.9238 -1.2080
 2223TIP3   OH228231   6.012   1.298   0.511 -0.2713  0.4606  0.3462
 2223TIP3    H128232   5.999   1.390   0.535  0.4283  0.4559  0.7673
 2223TIP3    H228233   6.106   1.285   0.518  0.0151  0.4511 -2.4323
 2224TIP3   OH228234   3.460   6.140   0.142 -0.2421 -0.4127 -0.0389
 2224TIP3    H128235   3.456   6.126   0.048  1.0386 -1.2036  0.0032
 2224TIP3    H228236   3.384   6.092   0.177 -1.3758  0.8139 -0.7339
 2225TIP3   OH228237   5.365   0.875   0.984  0.7029 -0.2105 -0.3255
 2225TIP3    H128238   5.292   0.853   1.041  0.2362  0.9209 -0.4602
 2225TIP3    H228239   5.435   0.901   1.043  0.2142  0.9764 -0.2491
 2226TIP3   OH228240   2.839   0.382   6.790  0.1325 -0.5563  0.2249
 2226TIP3    H128241   2.748   0.396   6.765  0.5798  1.1288 -0.5592
 2226TIP3    H228242   2.841   0.293   6.825 -1.4318 -1.3226 -1.5230
 2227TIP3   OH228243   4.112   5.559   1.193  0.1529  0.1085  0.6367
 2227TIP3    H128244   4.091   5.623   1.125  1.0884 -0.4260 -0.1862
 2227TIP3    H228245   4.065   5.589   1.270 -1.5466  0.3256 -0.4443
 2228TIP3   OH228246   1.718   1.889   0.292  0.7125  0.1873  0.2676
 2228TIP3    H128247   1.791   1.893   0.231  0.4180  0.4502 -0.0737
 2228TIP3    H228248   1.701   1.795   0.303  1.8886  0.0665  1.3201
 2229TIP3   OH228249   0.869   5.273   6.862  0.3236 -0.0961  0.2525
 2229TIP3    H128250   0.861   5.358   6.907  1.7661 -0.4072  1.1646
 2229TIP3    H228251   0.833   5.210   6.924  1.1507 -0.3739  0.4720
 2230TIP3   OH228252   1.029   1.335   0.654 -0.8478 -0.0847  0.3776
 2230TIP3    H128253   1.047   1.247   0.687 -0.8011  0.1636  1.0373
 2230TIP3    H228254   1.116   1.373   0.638 -0.6696  1.0137  3.2948
 2231TIP3   OH228255   5.341   3.407   0.386 -0.2934 -0.1906  0.5076
 2231TIP3    H128256   5.305   3.485   0.342 -0.2987  0.0187  0.8840
 2231TIP3    H228257   5.383   3.441   0.465 -0.6562 -0.6143  0.8879
 2232TIP3   OH228258   1.986   5.975   1.146 -0.1807 -0.3591 -0.2126
 2232TIP3    H128259   1.945   5.911   1.087 -1.4500 -0.1733  0.4297
 2232TIP3    H228260   1.985   6.057   1.096 -1.7232 -0.0840  0.2096
 2233TIP3   OH228261   5.617   6.692   8.687 -0.2253 -0.0514  0.4334
 2233TIP3    H128262   5.711   6.710   8.685 -0.2255 -0.0964 -0.2593
 2233TIP3    H228263   5.585   6.723   8.603 -0.8993  0.3084  0.8109
 2234TIP3   OH228264   1.481   5.566   7.254  0.6923  0.1604 -0.0895
 2234TIP3    H128265   1.393   5.535   7.274  0.7740  0.4762  0.7724
 2234TIP3    H228266   1.484   5.655   7.288  0.7697  0.8215 -1.7049
 2235TIP3   OH228267   4.653   5.865   8.643  0.0762  1.0808  0.3251
 2235TIP3    H128268   4.588   5.816   8.592  1.0251 -0.6779  0.7234
 2235TIP3    H228269   4.612   5.879   8.728  0.3220 -0.3536  0.7003
 2236TIP3   OH228270   6.221   5.278   8.253  0.1811 -0.1367  0.0748
 2236TIP3    H128271   6.264   5.264   8.169 -1.2581 -0.0530 -0.6995
 2236TIP3    H228272   6.260   5.211   8.310  1.6014  0.1841 -0.4646
 2237TIP3   OH228273   3.062   3.568   1.497  0.1068  0.3664 -0.6103
 2237TIP3    H128274   3.016   3.652   1.504 -1.0852 -0.4131  1.4545
 2237TIP3    H228275   3.005   3.505   1.540  1.2604 -1.4264 -1.5918
 2238TIP3   OH228276   3.787   5.948   1.427  0.5037  0.2948 -0.0720
 2238TIP3    H128277   3.735   6.028   1.438 -0.7035 -0.5026  0.2573
 2238TIP3    H228278   3.724   5.883   1.393  1.6732 -0.2657 -1.2826
 2239TIP3   OH228279   6.581   1.423   1.884 -0.1990  0.0124  0.3621
 2239TIP3    H128280   6.496   1.453   1.851  0.1119  1.8324  1.0647
 2239TIP3    H228281   6.578   1.441   1.978  1.2156  0.8162  0.2822
 2240TIP3   OH228282   0.326   5.952   0.854 -0.4091  0.3545 -0.1074
 2240TIP3    H128283   0.333   6.024   0.917 -0.7493  1.5824 -1.4129
 2240TIP3    H228284   0.390   5.973   0.786 -1.3041  0.0221 -1.0795
 2241TIP3   OH228285   2.782   0.417   0.548 -0.2617  0.5879 -0.1840
 2241TIP3    H128286   2.732   0.492   0.515 -2.0281 -0.4745 -0.0458
 2241TIP3    H228287   2.733   0.340   0.517  1.4360 -0.5303 -0.2368
 2242TIP3   OH228288   5.349   6.381   1.208  0.4197  0.5242 -0.1466
 2242TIP3    H128289   5.365   6.311   1.144 -0.0915  0.7153 -0.4912
 2242TIP3    H228290   5.303   6.448   1.158  1.6422  1.4790 -0.0319
 2243TIP3   OH228291   5.403   0.347   8.802 -0.2987  0.2864 -0.4659
 2243TIP3    H128292   5.406   0.295   8.882  0.5778  0.9501 -0.0622
 2243TIP3    H228293   5.349   0.295   8.742 -1.9439  0.3099  0.9095
 2244TIP3   OH228294   3.477   3.567   8.174  0.6462 -0.2394  0.1257
 2244TIP3    H128295   3.406   3.514   8.210  0.4064  0.2704  0.3984
 2244TIP3    H228296   3.554   3.509   8.179  0.0554 -1.2015 -1.2036
 2245TIP3   OH228297   1.482   3.604   8.268 -0.2925  0.3278  0.1240
 2245TIP3    H128298   1.534   3.607   8.187 -0.8123  1.7900 -0.1882
 2245TIP3    H228299   1.439   3.518   8.266  1.5422 -0.6389  0.0570
 2246TIP3   OH228300   4.738   2.014   8.621  0.0152 -0.0825 -0.2879
 2246TIP3    H128301   4.807   1.977   8.677  0.6127 -0.4473 -1.2429
 2246TIP3    H228302   4.770   2.002   8.532  1.7576  5.3894 -0.7959
 2247TIP3   OH228303   2.204   1.215   1.228 -0.4255  0.4051 -0.0964
 2247TIP3    H128304   2.118   1.241   1.264 -0.3509 -0.3206  0.6219
 2247TIP3    H228305   2.183   1.168   1.148 -0.7899 -0.9116  0.7458
 2248TIP3   OH228306   0.077   0.606   1.718  0.7379 -0.3393  0.5198
 2248TIP3    H128307   0.060   0.612   1.624 -1.6373 -2.7159  0.7034
 2248TIP3    H228308   0.080   0.697   1.747 -0.3201  0.4239 -1.5447
 2249TIP3   OH228309   4.178   4.181   7.674  0.3135 -0.1439 -0.3956
 2249TIP3    H128310   4.254   4.191   7.617  0.0876 -0.3652 -0.7428
 2249TIP3    H228311   4.168   4.086   7.684  0.0076 -0.1196 -0.4612
 2250TIP3   OH228312   6.521   3.701   0.725 -0.2770  0.0518  0.0307
 2250TIP3    H128313   6.468   3.753   0.665 -2.2409 -0.8042  0.9657
 2250TIP3    H228314   6.532   3.757   0.802 -0.1704  0.0716  0.0013
 2251TIP3   OH228315   6.537   4.767   1.446  0.2164 -0.1582  0.3470
 2251TIP3    H128316   6.614   4.759   1.389  0.2344 -0.8700  0.4533
 2251TIP3    H228317   6.573   4.762   1.535  0.3252  2.1943  0.4882
 2252TIP3   OH228318   6.768   1.434   0.360  0.3524  0.5314 -0.2854
 2252TIP3    H128319   6.675   1.446   0.341 -0.2206 -0.0204  1.8881
 2252TIP3    H228320   6.786   1.495   0.431  1.2928 -0.3623  0.2700
 2253TIP3   OH228321   4.996   1.760   0.593 -0.0713  0.3560  0.1778
 2253TIP3    H128322   4.966   1.824   0.528  2.7096  1.2396 -0.3845
 2253TIP3    H228323   4.938   1.771   0.667 -1.1474  1.8386 -0.8415
 2254TIP3   OH228324   0.390   4.179   1.482 -0.5150 -0.0610  0.4876
 2254TIP3    H128325   0.347   4.158   1.565 -1.7326 -0.1008 -0.1311
 2254TIP3    H228326   0.394   4.274   1.480  1.5400 -0.0690  1.5648
 2255TIP3   OH228327   4.321   3.749   8.587  0.0308  0.1944  0.3654
 2255TIP3    H128328   4.387   3.803   8.630 -0.5930  0.8087  0.5780
 2255TIP3    H228329   4.366   3.710   8.512  0.8169  0.0408  0.9016
 2256TIP3   OH228330   1.701   0.986   7.344 -0.2445  0.5742  0.5408
 2256TIP3    H128331   1.772   1.033   7.387  1.6363 -0.4136 -1.3250
 2256TIP3    H228332   1.716   0.894   7.365 -1.3864  0.3945  0.6471
 2257TIP3   OH228333   0.874   4.071   0.332  0.2100 -0.4325 -0.0297
 2257TIP3    H128334   0.928   4.020   0.394 -0.7665  0.4017  1.5784
 2257TIP3    H228335   0.937   4.123   0.283  0.9556 -0.1834  1.1521
 2258TIP3   OH228336   1.461   2.828   0.126 -0.4805 -0.0003  0.7312
 2258TIP3    H128337   1.535   2.799   0.180 -0.3975  0.6501  0.9782
 2258TIP3    H228338   1.416   2.747   0.102  1.9723 -0.7510 -1.8941
 2259TIP3   OH228339   4.624   1.174   0.781  0.2383  0.2523 -0.1868
 2259TIP3    H128340   4.675   1.124   0.717 -1.2526 -0.9331 -0.4976
 2259TIP3    H228341   4.683   1.184   0.856  0.7825 -1.5237 -0.3221
 2260TIP3   OH228342   6.516   4.289   8.366  0.3507 -0.4665  0.2715
 2260TIP3    H128343   6.450   4.226   8.395 -0.0019 -1.1655 -1.9160
 2260TIP3    H228344   6.592   4.235   8.342  0.2588 -0.0480 -1.0405
 2261TIP3   OH228345   3.079   0.259   1.140 -0.2650  0.4973  0.1072
 2261TIP3    H128346   2.985   0.250   1.122 -0.4778  0.9724  0.9333
 2261TIP3    H228347   3.110   0.319   1.072 -0.2667 -0.7233 -1.0106
 2262TIP3   OH228348   5.099   2.904   2.293  0.4742 -0.4836 -0.2637
 2262TIP3    H128349   5.150   2.898   2.212  1.4731  1.4443  0.1668
 2262TIP3    H228350   5.159   2.943   2.357 -0.6553 -0.8775  1.0969
 2263TIP3   OH228351   1.390   2.406   8.731  0.0698 -0.2131  0.4497
 2263TIP3    H128352   1.308   2.410   8.780 -1.0072 -2.2180 -1.0215
 2263TIP3    H228353   1.364   2.398   8.640  1.9025 -0.5609 -0.0985
 2264TIP3   OH228354   4.296   6.460   1.769 -0.0737  0.7396  0.3387
 2264TIP3    H128355   4.231   6.470   1.838 -0.6632  1.2223 -0.2716
 2264TIP3    H228356   4.370   6.417   1.811 -0.6428  0.5263  1.1310
 2265TIP3   OH228357   6.363   5.252   1.357  0.3096  0.1362 -0.3867
 2265TIP3    H128358   6.330   5.332   1.317  0.3562 -0.0294 -0.7594
 2265TIP3    H228359   6.289   5.192   1.355  0.2487  0.1985 -0.0259
 2266TIP3   OH228360   3.645   3.113   7.746 -0.0155 -0.0557 -0.0888
 2266TIP3    H128361   3.614   3.179   7.685 -1.1626  0.0458  0.5756
 2266TIP3    H228362   3.577   3.046   7.745 -1.4886  1.1838  3.0283
 2267TIP3   OH228363   3.372   6.723   7.807 -0.1044  0.3387  0.5797
 2267TIP3    H128364   3.461   6.691   7.817  0.6426  2.1849  0.2165
 2267TIP3    H228365   3.375   6.781   7.731 -2.1016 -1.1260 -0.7268
 2268TIP3   OH228366   6.056   1.797   7.167 -0.2601  0.2079 -0.1291
 2268TIP3    H128367   5.999   1.870   7.194  0.4441  1.1296 -1.0841
 2268TIP3    H228368   6.110   1.833   7.097  0.3005 -1.1665 -0.4303
 2269TIP3   OH228369   1.110   5.229   1.120  0.7389 -0.5743 -0.1690
 2269TIP3    H128370   1.120   5.324   1.114 -1.7771 -0.1500  1.0890
 2269TIP3    H228371   1.185   5.194   1.071  2.2170  2.0166  0.0588
 2270TIP3   OH228372   6.071   0.525   2.143 -0.2309 -0.1114 -0.6664
 2270TIP3    H128373   6.139   0.487   2.199 -1.1735  0.0470  0.6168
 2270TIP3    H228374   6.112   0.603   2.105  0.1642  0.2326  0.4451
 2271TIP3   OH228375   0.896   6.228   6.858  0.0754  0.1014 -0.5685
 2271TIP3    H128376   0.918   6.318   6.831  0.8008 -0.3511 -1.5691
 2271TIP3    H228377   0.903   6.177   6.777 -2.1980 -0.5534 -0.4017
 2272TIP3   OH228378   1.061   2.150   8.152  0.2741  0.2586  0.2494
 2272TIP3    H128379   0.989   2.093   8.126  0.5370 -0.7531  1.6237
 2272TIP3    H228380   1.022   2.237   8.157  0.2955  0.6665 -3.7521
 2273TIP3   OH228381   3.652   4.153   1.063  0.0260 -0.1321 -0.3579
 2273TIP3    H128382   3.626   4.245   1.076  0.7735  0.0059  0.2311
 2273TIP3    H228383   3.695   4.129   1.145  0.3978 -0.8176 -0.7500
 2274TIP3   OH228384   1.370   3.512   7.963  0.3894 -0.0835  0.5503
 2274TIP3    H128385   1.449   3.549   7.925  0.6307 -0.1508  0.9762
 2274TIP3    H228386   1.394   3.422   7.985 -0.0604 -0.3645 -0.0827
 2275TIP3   OH228387   6.259   4.203   7.804 -0.1396  0.1185 -0.5095
 2275TIP3    H128388   6.252   4.115   7.766  0.2230  0.5277 -1.5523
 2275TIP3    H228389   6.272   4.188   7.897 -1.6853 -0.9091 -0.4264
 2276TIP3   OH228390   3.729   3.476   6.944  0.3483 -0.0408 -0.2553
 2276TIP3    H128391   3.651   3.494   6.891  1.5306  2.7311 -1.2519
 2276TIP3    H228392   3.695   3.462   7.032 -1.2606  3.5929 -0.1083
 2277TIP3   OH228393   0.420   2.493   1.034  0.3050  0.1465 -0.2685
 2277TIP3    H128394   0.377   2.439   1.101  0.8283  0.3224  0.2102
 2277TIP3    H228395   0.352   2.554   1.006 -0.1154 -0.3644 -0.3836
 2278TIP3   OH228396   2.929   2.625   0.029  0.4246 -0.0667 -0.0030
 2278TIP3    H128397   2.900   2.613   0.119  1.8991 -1.7350  0.3186
 2278TIP3    H228398   3.025   2.630   0.035  0.5761 -0.5381 -1.4831
 2279TIP3   OH228399   6.812   4.373   6.930 -0.6463 -0.0969  0.6923
 2279TIP3    H128400   6.725   4.357   6.894 -0.5094 -1.4698  0.9462
 2279TIP3    H228401   6.867   4.304   6.893  0.7894  1.8110 -0.9376
 2280TIP3   OH228402   5.635   2.027   7.534  0.2415 -0.0589  0.6286
 2280TIP3    H128403   5.660   1.956   7.593 -1.6650 -0.8729  0.5525
 2280TIP3    H228404   5.581   2.085   7.588  0.2639  0.3476  0.2200
 2281TIP3   OH228405   2.175   0.277   7.454  0.1220 -0.3774 -0.9867
 2281TIP3    H128406   2.079   0.281   7.452  0.1662  1.1796 -2.3440
 2281TIP3    H228407   2.202   0.334   7.382  2.0549 -1.7142 -1.3874
 2282TIP3   OH228408   0.456   2.811   1.013 -0.2108 -0.2656 -0.5048
 2282TIP3    H128409   0.467   2.864   1.092  0.3634 -0.1824 -0.6334
 2282TIP3    H228410   0.411   2.868   0.951  1.8106  0.6623 -1.2029
 2283TIP3   OH228411   3.498   1.467   6.749  0.5506  0.2056  0.1835
 2283TIP3    H128412   3.547   1.459   6.830 -0.5938  0.2825  0.9082
 2283TIP3    H228413   3.491   1.562   6.734  1.4155  0.1843 -0.4331
 2284TIP3   OH228414   4.831   3.069   0.130 -0.7460 -0.1579 -0.7682
 2284TIP3    H128415   4.803   3.048   0.219  0.2332 -1.6510 -0.7783
 2284TIP3    H228416   4.788   3.153   0.111 -0.4971  0.5027  1.3008
 2285TIP3   OH228417   1.420   2.345   1.305 -0.6775 -0.3209 -0.1789
 2285TIP3    H128418   1.450   2.286   1.236  1.4928  1.1372 -0.5781
 2285TIP3    H228419   1.456   2.431   1.281 -1.3376  0.5973  1.8454
 2286TIP3   OH228420   5.073   5.079   0.601  0.7543 -0.0778 -0.1831
 2286TIP3    H128421   5.130   5.120   0.537  0.1977  0.0920 -0.5816
 2286TIP3    H228422   5.039   5.151   0.654  1.4163 -0.2426  0.4854
 2287TIP3   OH228423   2.562   0.953   1.096 -0.4522 -0.3745  0.0737
 2287TIP3    H128424   2.583   1.038   1.134  1.2661 -1.3580  1.4514
 2287TIP3    H228425   2.520   0.975   1.013 -0.7836  1.8132  0.7397
 2288TIP3   OH228426   0.225   0.033   7.531  0.2832 -0.3011  0.4024
 2288TIP3    H128427   0.144   0.083   7.517  0.2807 -0.5897 -0.7115
 2288TIP3    H228428   0.268   0.078   7.603 -0.7814 -0.0301  0.8976
 2289TIP3   OH228429   3.575   3.652   1.808 -0.0014  0.2591  0.3088
 2289TIP3    H128430   3.669   3.659   1.819 -0.1129  0.7243  0.9626
 2289TIP3    H228431   3.558   3.557   1.811 -0.0167  0.2309  4.3531
 2290TIP3   OH228432   4.798   6.691   0.697  0.2019  0.2296  0.3024
 2290TIP3    H128433   4.763   6.759   0.755 -1.3632 -0.2057 -0.0612
 2290TIP3    H228434   4.886   6.673   0.730  1.1896  3.3060 -0.3792
 2291TIP3   OH228435   5.357   6.773   1.912  0.0962  0.3451 -0.6385
 2291TIP3    H128436   5.337   6.684   1.885  1.9641  0.5606 -3.0917
 2291TIP3    H228437   5.420   6.763   1.984 -2.1345 -0.2240  1.3729
 2292TIP3   OH228438   2.603   3.053   7.660 -0.4298 -0.3404 -0.1712
 2292TIP3    H128439   2.559   3.019   7.737 -0.0830  1.2555  0.7671
 2292TIP3    H228440   2.647   2.977   7.622 -1.5786 -1.3732  0.5131
 2293TIP3   OH228441   5.226   4.931   8.679  0.2595  0.1676 -0.3115
 2293TIP3    H128442   5.283   4.917   8.603  0.7371  1.1973 -0.1690
 2293TIP3    H228443   5.280   4.981   8.740 -0.7348  0.9988 -0.0870
 2294TIP3   OH228444   6.155   3.265   7.544 -0.4324  0.2751  0.1795
 2294TIP3    H128445   6.103   3.307   7.476  0.6173 -0.5733 -1.2045
 2294TIP3    H228446   6.190   3.186   7.503  2.4678  1.1219  0.7813
 2295TIP3   OH228447   5.720   2.821   8.749  0.0621  0.3324  0.0523
 2295TIP3    H128448   5.727   2.793   8.840  0.3310 -0.5761 -0.2398
 2295TIP3    H228449   5.791   2.776   8.704 -0.6008  0.0716 -0.7733
 2296TIP3   OH228450   5.285   6.515   7.414  0.1180 -1.1045  0.3384
 2296TIP3    H128451   5.345   6.586   7.436  1.4010 -1.9038 -0.4214
 2296TIP3    H228452   5.272   6.523   7.319 -1.2281 -0.7732  0.5330
 2297TIP3   OH228453   0.504   0.167   1.332 -0.1301  0.8310  0.3434
 2297TIP3    H128454   0.558   0.242   1.308 -0.7205  0.9194 -0.7632
 2297TIP3    H228455   0.561   0.114   1.388  1.3801  0.5620 -1.3585
 2298TIP3   OH228456   3.978   5.034   1.173  0.0916 -0.5233 -0.5635
 2298TIP3    H128457   4.008   5.035   1.264  0.1549  2.9501 -0.4624
 2298TIP3    H228458   4.040   4.979   1.127  0.9797 -1.0988  1.2387
 2299TIP3   OH228459   5.994   4.023   8.384  0.1741  0.6385 -0.2111
 2299TIP3    H128460   6.082   3.986   8.389 -0.4528 -1.0078 -0.5203
 2299TIP3    H228461   5.954   3.980   8.309 -0.8799  1.3931 -0.1113
 2300TIP3   OH228462   4.204   1.552   1.902 -0.3445 -0.1270 -0.4298
 2300TIP3    H128463   4.122   1.513   1.932 -0.2710 -0.8899 -1.1787
 2300TIP3    H228464   4.185   1.645   1.893 -0.6788 -0.0453  0.8854
 2301TIP3   OH228465   3.297   5.628   1.675 -0.2581 -0.5158  0.9231
 2301TIP3    H128466   3.211   5.639   1.716  0.0158  1.9631  0.9463
 2301TIP3    H228467   3.356   5.606   1.747 -0.6153 -0.8532  1.1142
 2302TIP3   OH228468   2.850   6.741   0.669  0.0148 -0.4563  1.1270
 2302TIP3    H128469   2.828   6.654   0.702 -0.2092 -1.2065 -0.8879
 2302TIP3    H228470   2.826   6.739   0.577  0.6939  1.5115  0.8585
 2303TIP3   OH228471   2.299   6.635   6.780  0.1691  0.3200 -0.3344
 2303TIP3    H128472   2.290   6.548   6.742 -0.5956 -0.7098  2.0658
 2303TIP3    H228473   2.272   6.625   6.871  1.6484  2.7250  0.4521
 2304TIP3   OH228474   3.159   2.274   2.061 -0.5871 -0.4189  0.1469
 2304TIP3    H128475   3.101   2.247   1.989 -0.4170 -0.1446 -0.0923
 2304TIP3    H228476   3.247   2.272   2.023 -0.5999  0.7892  0.0299
 2305TIP3   OH228477   5.735   3.500   1.148  0.2812 -0.1220 -0.0779
 2305TIP3    H128478   5.756   3.483   1.240 -1.5051 -1.3804  0.1498
 2305TIP3    H228479   5.804   3.558   1.118  1.6782 -0.7827  1.6861
 2306TIP3   OH228480   1.911   1.598   7.781  0.1028 -0.7445 -0.2354
 2306TIP3    H128481   1.913   1.554   7.867 -0.5332 -3.1442 -1.3503
 2306TIP3    H228482   2.003   1.606   7.756  0.2993  0.0813  0.6997
 2307TIP3   OH228483   5.708   2.859   1.335 -0.3161 -0.3166  0.8482
 2307TIP3    H128484   5.722   2.766   1.317 -1.5650 -0.0325 -2.0133
 2307TIP3    H228485   5.653   2.859   1.414  0.2265 -1.9508  1.2705
 2308TIP3   OH228486   4.801   4.714   6.588 -0.0254 -0.5287  0.0052
 2308TIP3    H128487   4.781   4.750   6.502 -1.8371 -0.8460  0.2607
 2308TIP3    H228488   4.788   4.787   6.648 -0.5097 -0.7579  0.1838
 2309TIP3   OH228489   3.662   6.516   8.371 -0.2246 -0.1112  0.0204
 2309TIP3    H128490   3.569   6.535   8.380 -0.3350  0.2460 -1.6560
 2309TIP3    H228491   3.696   6.588   8.318  0.9804 -0.3234  0.4762
 2310TIP3   OH228492   2.093   3.365   7.935  0.0713 -0.2160 -0.5281
 2310TIP3    H128493   2.079   3.335   8.024  0.4185  1.3803  0.1048
 2310TIP3    H228494   2.027   3.319   7.883  1.2655 -2.8620  0.1288
 2311TIP3   OH228495   0.595   5.076   2.443 -0.6597  0.1385 -0.0742
 2311TIP3    H128496   0.630   5.066   2.531  0.0986  2.1322 -0.0982
 2311TIP3    H228497   0.595   4.987   2.407 -1.0636 -0.7384  1.9244
 2312TIP3   OH228498   5.380   4.445   8.590 -0.1851  0.1170  0.7050
 2312TIP3    H128499   5.324   4.400   8.528  1.4120  0.0347 -0.7700
 2312TIP3    H228500   5.450   4.382   8.609  0.6762  1.0261  0.6410
 2313TIP3   OH228501   4.361   0.380   2.088  0.8315 -0.2754  0.4673
 2313TIP3    H128502   4.345   0.472   2.069 -0.6882 -1.0414 -2.5509
 2313TIP3    H228503   4.420   0.381   2.163 -0.3230  3.0967  1.5080
 2314TIP3   OH228504   2.135   1.651   1.336 -0.1646  0.5161  0.2891
 2314TIP3    H128505   2.063   1.714   1.340  0.1031  0.7711  1.5182
 2314TIP3    H228506   2.109   1.582   1.397 -0.2690 -0.3850 -0.7464
 2315TIP3   OH228507   1.701   6.289   2.001 -0.1342 -0.3051 -0.1998
 2315TIP3    H128508   1.608   6.271   2.012  0.1292 -1.5018  0.2998
 2315TIP3    H228509   1.723   6.248   1.917 -0.2283  0.7603 -0.7619
 2316TIP3   OH228510   1.328   0.129   8.613 -0.3315 -0.1272 -0.2747
 2316TIP3    H128511   1.278   0.056   8.575 -0.0918 -0.4848  0.0797
 2316TIP3    H228512   1.264   0.199   8.625 -0.9326 -0.8339  0.8869
 2317TIP3   OH228513   2.720   5.699   8.255  0.0734  0.5509  0.0894
 2317TIP3    H128514   2.784   5.763   8.284  0.5185 -0.4070  1.3358
 2317TIP3    H228515   2.758   5.614   8.278 -1.2380 -0.0905  0.0434
 2318TIP3   OH228516   5.109   5.697   1.812 -0.0684  0.7783 -0.0410
 2318TIP3    H128517   5.037   5.753   1.840  0.5631  1.9154 -0.5968
 2318TIP3    H228518   5.170   5.699   1.886 -0.6677 -0.3333  0.5041
 2319TIP3   OH228519   4.410   5.695   1.408  0.7381  0.2427 -0.0249
 2319TIP3    H128520   4.430   5.669   1.498 -0.2995 -1.6263 -0.2906
 2319TIP3    H228521   4.338   5.757   1.416  1.3542  0.9235  0.4626
 2320TIP3   OH228522   0.357   3.643   2.359  0.4428 -0.0495  0.0179
 2320TIP3    H128523   0.355   3.571   2.296 -1.3611  0.2265 -0.3120
 2320TIP3    H228524   0.273   3.637   2.405  0.1264  1.9459 -0.1897
 2321TIP3   OH228525   6.744   4.040   8.764 -0.2680  0.3047  0.2714
 2321TIP3    H128526   6.816   4.103   8.762 -0.2367  0.2460 -0.3787
 2321TIP3    H228527   6.665   4.095   8.765 -0.2283  0.3608  0.3588
 2322TIP3   OH228528   1.081   0.888   2.059  0.3868 -0.0596 -0.2336
 2322TIP3    H128529   1.003   0.851   2.099  1.5769 -0.9913  1.3261
 2322TIP3    H228530   1.124   0.936   2.130  1.8284 -0.5640 -0.7257
 2323TIP3   OH228531   0.542   0.705   8.641 -0.1475 -0.3089  0.2864
 2323TIP3    H128532   0.447   0.709   8.632 -0.1440 -2.0030 -0.9545
 2323TIP3    H228533   0.565   0.787   8.685 -2.0377  0.7326 -0.5292
 2324TIP3   OH228534   2.240   1.389   7.168 -0.1026 -0.0049 -0.3936
 2324TIP3    H128535   2.274   1.300   7.160 -2.7666 -1.1932  0.2797
 2324TIP3    H228536   2.204   1.408   7.081  2.1184  1.2667 -1.1222
 2325TIP3   OH228537   2.667   4.187   1.367 -1.0189  0.0904 -0.5429
 2325TIP3    H128538   2.623   4.270   1.350  2.0320  2.7018  2.7661
 2325TIP3    H228539   2.636   4.161   1.454 -1.4768 -2.0286 -1.2868
 2326TIP3   OH228540   5.348   5.784   7.264  0.5183  0.1279  0.0455
 2326TIP3    H128541   5.277   5.846   7.247 -0.0636 -0.8129 -1.1914
 2326TIP3    H228542   5.425   5.838   7.277  0.0190  1.1285 -0.9405
 2327TIP3   OH228543   5.721   6.804   0.979  0.3570  0.4042 -0.7336
 2327TIP3    H128544   5.686   6.828   0.894 -0.7959  0.1286 -0.3512
 2327TIP3    H228545   5.704   6.710   0.987  0.6410  0.3863 -0.2850
 2328TIP3   OH228546   5.988   5.339   8.402 -0.3070  0.3796 -0.0842
 2328TIP3    H128547   6.064   5.308   8.352  0.0843  1.6902 -0.3318
 2328TIP3    H228548   5.938   5.392   8.339 -0.2554  1.3483  0.6745
 2329TIP3   OH228549   2.214   3.431   6.634 -0.3994  0.3053 -0.1468
 2329TIP3    H128550   2.261   3.449   6.553  1.6635 -0.3103  0.8601
 2329TIP3    H228551   2.262   3.479   6.701 -0.5437 -1.2109  1.0978
 2330TIP3   OH228552   6.164   3.400   8.644 -0.1394  0.0214  0.5402
 2330TIP3    H128553   6.187   3.487   8.675 -0.4893  2.0678 -4.0517
 2330TIP3    H228554   6.236   3.375   8.587 -1.8737 -0.7109 -1.4607
 2331TIP3   OH228555   1.516   2.556   1.165 -0.8203 -0.6130 -0.2266
 2331TIP3    H128556   1.529   2.490   1.097 -0.1376 -0.2502 -0.4617
 2331TIP3    H228557   1.485   2.634   1.119 -2.2437 -0.9391  0.1288
 2332TIP3   OH228558   1.019   3.881   2.203  0.0038  0.7861 -0.0500
 2332TIP3    H128559   1.105   3.903   2.167  0.5091  0.1518  0.7183
 2332TIP3    H228560   1.038   3.813   2.268 -0.8135  2.0586  1.5928
 2333TIP3   OH228561   5.983   3.712   8.670  0.6659 -0.3427 -0.3936
 2333TIP3    H128562   5.891   3.719   8.647  0.4197 -1.8153  0.0095
 2333TIP3    H228563   6.027   3.696   8.587  0.6512  0.9365 -0.6632
 2334TIP3   OH228564   2.142   3.931   0.595 -0.1918  0.3052  0.3601
 2334TIP3    H128565   2.057   3.905   0.632 -0.5691  1.9215  0.7215
 2334TIP3    H228566   2.131   3.921   0.500 -0.8108  0.5496  0.4007
 2335TIP3   OH228567   1.558   0.126   0.531 -0.1062 -0.6334  0.1741
 2335TIP3    H128568   1.541   0.045   0.578  1.9530 -1.4600 -0.3833
 2335TIP3    H228569   1.475   0.174   0.535 -0.9431 -2.0865  1.7925
 2336TIP3   OH228570   0.171   2.710   1.358  0.1475 -0.0517  0.4124
 2336TIP3    H128571   0.116   2.680   1.430 -0.3943  0.8559  0.3938
 2336TIP3    H228572   0.198   2.630   1.313 -0.4907 -0.5558  0.9137
 2337TIP3   OH228573   4.621   3.424   8.797 -0.4285 -0.1938 -0.1319
 2337TIP3    H128574   4.534   3.407   8.761  0.2620 -0.7966 -1.6378
 2337TIP3    H228575   4.626   3.519   8.804 -1.1711 -0.1502 -0.1156
 2338TIP3   OH228576   1.052   3.934   0.481  0.5397  0.3513 -0.3897
 2338TIP3    H128577   1.071   3.995   0.553  0.5348  1.2009 -1.0993
 2338TIP3    H228578   1.137   3.897   0.459  0.4892 -0.2021  0.2957
 2339TIP3   OH228579   3.548   1.337   7.635 -0.3992  0.1298  0.0464
 2339TIP3    H128580   3.514   1.299   7.716 -0.9008  2.0761  0.8204
 2339TIP3    H228581   3.528   1.273   7.567 -1.2409 -0.9261  1.2512
 2340TIP3   OH228582   3.070   3.573   0.154 -0.0895 -0.7197  0.2574
 2340TIP3    H128583   3.125   3.651   0.147 -0.1274 -0.7875 -1.0620
 2340TIP3    H228584   3.085   3.541   0.243  1.2247 -0.1672  0.2596
 2341TIP3   OH228585   3.964   2.399   7.082 -0.1394 -0.1104  0.6109
 2341TIP3    H128586   4.013   2.445   7.013  1.1460  0.8882  2.1199
 2341TIP3    H228587   4.032   2.357   7.134 -1.2115 -2.5609  0.1467
 2342TIP3   OH228588   1.356   6.350   7.663 -0.5254  0.0086  0.5866
 2342TIP3    H128589   1.285   6.316   7.717  0.2058  0.5002  1.8862
 2342TIP3    H228590   1.405   6.273   7.635 -0.7439 -0.2245  0.8487
 2343TIP3   OH228591   3.956   2.975   7.709  0.3500 -0.0913 -0.1331
 2343TIP3    H128592   3.897   2.991   7.635  0.1722  0.2837  0.0881
 2343TIP3    H228593   3.934   2.886   7.737 -0.4718  0.2236  0.2639
 2344TIP3   OH228594   5.148   5.304   7.861  0.3288  0.2199 -0.2163
 2344TIP3    H128595   5.200   5.333   7.786  1.4575  0.2516  0.5510
 2344TIP3    H228596   5.078   5.369   7.869  1.9096  1.9323  0.5336
 2345TIP3   OH228597   6.027   1.114   0.001  0.4291  0.4593  0.0537
 2345TIP3    H128598   6.038   1.060  -0.077 -1.6604  0.5142 -0.3379
 2345TIP3    H228599   5.938   1.097   0.029  1.0364  0.6921  2.2717
 2346TIP3   OH228600   5.090   4.408   1.813 -0.8024 -0.2784 -0.4389
 2346TIP3    H128601   5.111   4.463   1.889 -0.7686  3.4618 -2.8861
 2346TIP3    H228602   5.007   4.442   1.781 -1.6744 -2.8936 -1.2112
 2347TIP3   OH228603   3.736   4.803   8.068 -0.0525  0.2468  0.2955
 2347TIP3    H128604   3.641   4.810   8.081 -0.1795 -1.6595  0.7471
 2347TIP3    H228605   3.772   4.883   8.106 -1.4532  0.8962  0.3176
 2348TIP3   OH228606   3.754   0.495   1.422 -0.1803  0.5612  0.2384
 2348TIP3    H128607   3.669   0.519   1.458 -0.9749 -1.2583 -0.2976
 2348TIP3    H228608   3.761   0.544   1.341 -0.5463  1.0089  0.4732
 2349TIP3   OH228609   5.181   3.761   0.353  0.0005  0.1248  0.5001
 2349TIP3    H128610   5.195   3.855   0.340 -1.8022  0.2291 -1.3372
 2349TIP3    H228611   5.239   3.737   0.424  0.2727  2.7023  1.2410
 2350TIP3   OH228612   6.188   1.960   6.983  0.2065  0.2712 -0.1595
 2350TIP3    H128613   6.269   1.997   6.948 -1.3077  2.9266 -1.1965
 2350TIP3    H228614   6.120   2.023   6.956 -1.9935 -1.0474  1.9450
 2351TIP3   OH228615   0.620   5.801   1.565  0.0067 -0.1178 -0.3660
 2351TIP3    H128616   0.714   5.801   1.581  0.0446  0.0883 -0.5910
 2351TIP3    H228617   0.598   5.708   1.552  0.2263 -0.1381 -0.5924
 2352TIP3   OH228618   5.746   5.044   7.897  0.2462 -0.1466  0.5441
 2352TIP3    H128619   5.812   5.016   7.960  0.5911  0.5447  0.5001
 2352TIP3    H228620   5.796   5.084   7.825 -0.1931 -0.0032  0.3129
 2353TIP3   OH228621   4.643   4.700   6.948  0.1979  0.1375  0.4491
 2353TIP3    H128622   4.605   4.692   7.035  1.4843  1.7615  1.2135
 2353TIP3    H228623   4.667   4.792   6.940  0.4439 -0.0480 -1.4940
 2354TIP3   OH228624   0.684   5.041   8.494  0.0023  0.0434 -0.3345
 2354TIP3    H128625   0.719   5.090   8.419 -0.3100  0.6030 -0.1164
 2354TIP3    H228626   0.590   5.058   8.492 -0.0194 -0.0192  0.1331
 2355TIP3   OH228627   6.233   1.651   0.551 -0.0108  0.7773  0.2416
 2355TIP3    H128628   6.267   1.738   0.573 -0.8067  0.5960  2.4724
 2355TIP3    H228629   6.309   1.593   0.556  0.5597  1.3289 -1.4342
 2356TIP3   OH228630   2.420   1.634   0.815  0.1924  0.3071 -0.2122
 2356TIP3    H128631   2.437   1.619   0.908 -0.6896  1.1281  0.0985
 2356TIP3    H228632   2.404   1.547   0.779 -1.8611  0.1621  0.9194
 2357TIP3   OH228633   5.882   6.577   0.377  0.3381 -0.2207 -0.2198
 2357TIP3    H128634   5.830   6.513   0.426 -1.4180  0.6117 -0.9195
 2357TIP3    H228635   5.885   6.654   0.433  0.0558  0.0389 -0.5570
 2358TIP3   OH228636   1.109   5.663   0.723 -0.2021 -0.6666  0.4602
 2358TIP3    H128637   1.138   5.628   0.639  0.8139  1.1716 -0.0269
 2358TIP3    H228638   1.066   5.590   0.766 -1.8747 -1.3612 -2.1465
 2359TIP3   OH228639   4.758   1.670   7.459 -0.3558 -0.7359 -0.0402
 2359TIP3    H128640   4.792   1.757   7.437 -0.8372 -0.6190 -0.3489
 2359TIP3    H228641   4.663   1.682   7.463 -0.4107 -1.2039  0.1185
 2360TIP3   OH228642   4.748   5.972   7.277  0.2319  0.4048 -0.0552
 2360TIP3    H128643   4.739   5.880   7.251 -1.8865  0.9833 -1.6601
 2360TIP3    H228644   4.707   5.976   7.364 -0.0714 -0.0971 -0.1692
 2361TIP3   OH228645   5.414   3.955   1.713  0.2352  0.1993  0.6700
 2361TIP3    H128646   5.399   4.044   1.746 -1.7443 -0.0423  0.5454
 2361TIP3    H228647   5.459   3.968   1.629  1.7473  0.9666  1.5540
 2362TIP3   OH228648   0.476   0.085   8.002  0.0931  0.2668  0.0048
 2362TIP3    H128649   0.471   0.051   8.091  0.4798  0.1947 -0.0016
 2362TIP3    H228650   0.540   0.029   7.958 -1.7297 -1.1469 -0.9608
 2363TIP3   OH228651   1.799   3.322   1.380  0.2022 -0.2168 -0.0447
 2363TIP3    H128652   1.789   3.270   1.460  3.4762 -2.4416 -0.9235
 2363TIP3    H228653   1.860   3.392   1.404  1.8267 -1.3633 -0.7423
 2364TIP3   OH228654   5.749   3.145   7.911 -1.0094  0.5211  0.4449
 2364TIP3    H128655   5.770   3.097   7.991 -1.0887  0.1360  0.2361
 2364TIP3    H228656   5.804   3.223   7.915 -0.5976  0.2243  0.5985
 2365TIP3   OH228657   4.614   6.175   1.119  0.2928 -0.3741  0.1894
 2365TIP3    H128658   4.694   6.141   1.158  0.4263  0.3500  0.5791
 2365TIP3    H228659   4.599   6.121   1.042  1.7344  0.1263 -0.4701
 2366TIP3   OH228660   0.320   5.457   0.978 -0.3375 -0.7028  0.3759
 2366TIP3    H128661   0.265   5.535   0.982  0.2724 -0.2881  1.2115
 2366TIP3    H228662   0.356   5.457   0.890  0.5578  0.6224  0.7096
 2367TIP3   OH228663   0.393   6.424   7.444  0.1921  0.5784  0.3863
 2367TIP3    H128664   0.379   6.379   7.360  0.9479  2.5055 -0.8445
 2367TIP3    H228665   0.305   6.437   7.478 -0.1103 -0.5426  0.0899
 2368TIP3   OH228666   4.781   5.825   7.841 -0.4175  0.4893 -0.4926
 2368TIP3    H128667   4.798   5.910   7.881 -2.5561  1.0793 -0.7364
 2368TIP3    H228668   4.832   5.827   7.760  3.4515 -0.4722  1.6527
 2369TIP3   OH228669   5.494   3.421   0.620 -0.1082  0.0477  0.4472
 2369TIP3    H128670   5.586   3.426   0.594 -0.0950  0.4776  0.5688
 2369TIP3    H228671   5.493   3.449   0.711 -0.2528 -0.7715  0.7087
 2370TIP3   OH228672   0.835   2.567   1.513  0.0036 -0.3601  0.0091
 2370TIP3    H128673   0.782   2.492   1.486 -1.9144  0.5914  0.8933
 2370TIP3    H228674   0.842   2.559   1.608  2.1223 -0.8379 -0.1442
 2371TIP3   OH228675   1.276   1.738   7.705 -0.2054  0.2598 -0.2213
 2371TIP3    H128676   1.267   1.833   7.712  0.1856  0.4314 -1.6839
 2371TIP3    H228677   1.365   1.720   7.735 -0.5406  0.2450  0.8023
 2372TIP3   OH228678   1.140   3.961   7.895  0.1086  0.4862 -0.3792
 2372TIP3    H128679   1.101   3.874   7.907 -0.7833  0.6415 -1.9630
 2372TIP3    H228680   1.228   3.942   7.860  0.5894  0.2001  0.9320
 2373TIP3   OH228681   5.264   0.223   8.595 -0.0682  0.2537 -0.5129
 2373TIP3    H128682   5.259   0.187   8.507 -0.6964  1.9910 -1.2347
 2373TIP3    H228683   5.194   0.288   8.598  1.6308  2.1442  0.3404
 2374TIP3   OH228684   0.826   4.969   1.616 -0.2178  0.3387 -0.0094
 2374TIP3    H128685   0.842   4.875   1.610 -0.8276  0.1891  0.5789
 2374TIP3    H228686   0.913   5.008   1.617  0.1044 -0.3385  1.3519
 2375TIP3   OH228687   0.962   5.347   1.346  0.3799  0.1894  0.0797
 2375TIP3    H128688   1.019   5.342   1.269 -0.2956 -0.0083 -0.4166
 2375TIP3    H228689   1.020   5.375   1.417  0.7270  1.8284 -0.7962
 2376TIP3   OH228690   0.227   3.891   0.158 -0.2507  0.5249  0.3533
 2376TIP3    H128691   0.219   3.829   0.086  1.2252 -1.6484  1.9249
 2376TIP3    H228692   0.153   3.870   0.216 -0.3284  0.9515  0.4133
 2377TIP3   OH228693   5.523   0.407   6.834 -0.2650 -0.5012  0.3436
 2377TIP3    H128694   5.600   0.350   6.823  0.8701  1.0934 -0.3553
 2377TIP3    H228695   5.498   0.395   6.926  1.5809 -0.2032  0.9381
 2378TIP3   OH228696   4.972   0.544   0.257  0.5225  0.4389 -0.0901
 2378TIP3    H128697   5.040   0.530   0.191  1.5962 -1.0875  1.2398
 2378TIP3    H228698   4.939   0.457   0.277  0.1728  0.8582  1.2940
 2379TIP3   OH228699   5.584   2.582   0.029  0.2690  0.0355 -0.2147
 2379TIP3    H128700   5.509   2.641   0.026 -1.3006 -1.8097  0.6328
 2379TIP3    H228701   5.594   2.552  -0.061 -0.4042 -0.1660 -0.2283
 2380TIP3   OH228702   2.544   0.989   7.890 -0.1960 -0.9761  0.1144
 2380TIP3    H128703   2.629   0.961   7.924 -0.5547 -3.0788 -0.5621
 2380TIP3    H228704   2.485   0.984   7.965  0.5114  2.2174  1.0526
 2381TIP3   OH228705   1.824   0.273   8.772 -0.6253 -0.3771 -0.5023
 2381TIP3    H128706   1.731   0.279   8.750 -0.5946  1.4204 -0.2213
 2381TIP3    H228707   1.841   0.348   8.829  1.0375 -0.6036 -0.6452
 2382TIP3   OH228708   5.363   1.834   8.791  0.0727  0.2416  0.0988
 2382TIP3    H128709   5.366   1.795   8.703  0.2116 -0.1674  0.2798
 2382TIP3    H228710   5.379   1.760   8.850 -2.3564  0.0330  0.5981
 2383TIP3   OH228711   2.012   1.513   7.292  0.3629 -0.0944 -0.0579
 2383TIP3    H128712   2.093   1.466   7.273 -0.2584 -0.5046 -1.8657
 2383TIP3    H228713   1.970   1.524   7.207 -1.4835  0.1250  0.8393
 2384TIP3   OH228714   2.324   2.730   1.863  0.0834 -0.0471  0.0695
 2384TIP3    H128715   2.336   2.749   1.770  0.6665  0.2532  0.1990
 2384TIP3    H228716   2.376   2.650   1.877  3.3344  2.0294  0.9337
 2385TIP3   OH228717   5.455   0.384   0.928  0.0287 -0.7768 -0.2797
 2385TIP3    H128718   5.405   0.303   0.930  0.2163 -0.8964 -0.4261
 2385TIP3    H228719   5.452   0.413   0.837 -0.4163 -0.3814 -0.1439
 2386TIP3   OH228720   1.087   1.060   8.659  0.5642  0.0268  0.0540
 2386TIP3    H128721   1.018   1.025   8.717  0.7496 -1.2000 -0.4377
 2386TIP3    H228722   1.043   1.129   8.610 -0.0269 -0.0038  0.5198
 2387TIP3   OH228723   5.107   6.630   2.562 -0.1207  0.2021  0.2549
 2387TIP3    H128724   5.190   6.626   2.514  0.3396  0.3389  1.0135
 2387TIP3    H228725   5.102   6.720   2.595 -0.9492  0.4138 -0.4285
 2388TIP3   OH228726   5.975   2.028   6.089 -0.4837 -0.2053  0.5954
 2388TIP3    H128727   5.983   2.109   6.038  2.2861  0.0616  1.3079
 2388TIP3    H228728   5.883   2.025   6.115 -1.1818  1.4479 -1.4621
 2389TIP3   OH228729   4.549   2.358   1.421 -0.3387 -0.0061 -0.1494
 2389TIP3    H128730   4.613   2.309   1.472 -1.3344 -0.6073  0.5629
 2389TIP3    H228731   4.581   2.353   1.331 -0.6027 -2.3380 -0.1645
 2390TIP3   OH228732   5.611   4.554   8.128 -0.0949 -0.2128 -0.2368
 2390TIP3    H128733   5.622   4.483   8.191  1.3094 -0.8692 -1.1866
 2390TIP3    H228734   5.631   4.634   8.178 -0.7161 -0.5454  0.5734
 2391TIP3   OH228735   6.066   5.688   0.008 -0.0908 -0.2413 -0.1678
 2391TIP3    H128736   6.074   5.640  -0.074 -0.9479 -0.9483  0.1409
 2391TIP3    H228737   6.082   5.779  -0.015  2.1566 -0.7033 -0.6745
 2392TIP3   OH228738   4.565   2.100   6.920  0.1810 -0.1075 -0.4524
 2392TIP3    H128739   4.482   2.078   6.878  0.2505 -2.0248  0.2841
 2392TIP3    H228740   4.566   2.048   7.001  1.1374  1.5585  0.6855
 2393TIP3   OH228741   6.287   5.530   7.346  0.2023  0.5670 -0.0888
 2393TIP3    H128742   6.301   5.459   7.409 -0.5283 -0.1974 -0.7574
 2393TIP3    H228743   6.374   5.551   7.312  0.4819  0.3456  0.4788
 2394TIP3   OH228744   0.263   0.964   7.181 -0.2170  0.3423 -0.2898
 2394TIP3    H128745   0.253   0.884   7.234 -2.3412  1.0102  0.4136
 2394TIP3    H228746   0.178   0.975   7.138  0.8746  0.8443 -2.4429
 2395TIP3   OH228747   5.371   2.646   0.639  0.0515  0.1588 -0.6898
 2395TIP3    H128748   5.400   2.671   0.727 -0.1899 -0.0350 -0.5535
 2395TIP3    H228749   5.393   2.553   0.633  1.0302  0.4062 -1.2279
 2396TIP3   OH228750   1.777   1.349   8.574  0.6641 -0.1666  0.1057
 2396TIP3    H128751   1.717   1.419   8.601  1.2396  0.4034 -0.0561
 2396TIP3    H228752   1.746   1.323   8.487  0.4862 -0.0667  0.1386
 2397TIP3   OH228753   5.893   1.310   2.737 -0.1479 -0.2841  0.4711
 2397TIP3    H128754   5.809   1.289   2.696 -0.2648 -1.7326  1.3943
 2397TIP3    H228755   5.912   1.235   2.793  2.9013 -1.1547 -1.4641
 2398TIP3   OH228756   0.376   2.204   7.501  0.3374  0.1657  0.2361
 2398TIP3    H128757   0.389   2.172   7.411  0.2007 -0.3403  0.3955
 2398TIP3    H228758   0.282   2.197   7.516  0.5706 -1.7162  1.1298
 2399TIP3   OH228759   2.646   4.088   7.666 -0.2279 -0.4232 -0.2032
 2399TIP3    H128760   2.741   4.104   7.663 -0.5180  1.3632 -2.4058
 2399TIP3    H228761   2.624   4.095   7.759  1.7269 -0.4399  0.3148
 2400TIP3   OH228762   5.178   4.509   2.059 -0.4415 -0.0512  0.5611
 2400TIP3    H128763   5.238   4.546   2.124  0.9682 -0.1582 -0.6313
 2400TIP3    H228764   5.100   4.565   2.063  0.5607  1.3799  0.6867
 2401TIP3   OH228765   6.216   5.794   7.469 -0.3498  0.0858  0.1181
 2401TIP3    H128766   6.285   5.833   7.416 -1.0218  0.3939 -0.5655
 2401TIP3    H228767   6.215   5.702   7.444 -1.4181  0.4419 -1.3139
 2402TIP3   OH228768   3.784   1.130   1.441 -0.2163 -0.3186  0.5192
 2402TIP3    H128769   3.743   1.139   1.527  0.9012 -1.6580  1.2376
 2402TIP3    H228770   3.801   1.036   1.432  1.2214 -0.0092 -0.4156
 2403TIP3   OH228771   5.937   4.461   7.112 -0.1663  0.0350 -0.0924
 2403TIP3    H128772   6.008   4.488   7.170  0.2371  0.7609 -0.9057
 2403TIP3    H228773   5.940   4.524   7.040 -0.6153 -0.8950 -0.9335
 2404TIP3   OH228774   0.513   2.407   1.704  0.4348  0.0494  0.1999
 2404TIP3    H128775   0.585   2.441   1.756 -0.1105 -0.1232  1.0882
 2404TIP3    H228776   0.486   2.481   1.649  1.5704 -0.0182 -0.4783
 2405TIP3   OH228777   2.849   3.899   0.519 -0.4303  0.6587 -0.0649
 2405TIP3    H128778   2.893   3.910   0.604  0.0860 -0.3812 -0.1787
 2405TIP3    H228779   2.778   3.962   0.521  0.9490  2.2850  0.2061
 2406TIP3   OH228780   0.277   5.117   0.595  0.0436 -0.5070  0.3314
 2406TIP3    H128781   0.296   5.201   0.553 -1.0513  0.2794  1.3603
 2406TIP3    H228782   0.322   5.121   0.679  0.3979 -1.1743  0.1887
 2407TIP3   OH228783   1.098   4.571   0.854 -0.1384  0.0016 -0.3908
 2407TIP3    H128784   1.165   4.601   0.916  0.5346 -0.3407 -0.9334
 2407TIP3    H228785   1.124   4.609   0.771  0.7479 -2.0255 -1.1076
 2408TIP3   OH228786   0.325   6.086   8.439  0.1283  0.9207  0.0191
 2408TIP3    H128787   0.256   6.146   8.466  0.9059  2.5499 -1.4655
 2408TIP3    H228788   0.358   6.049   8.522  0.0191  2.9997  1.0600
 2409TIP3   OH228789   0.294   6.673   1.054 -0.0080 -0.0295 -0.6917
 2409TIP3    H128790   0.270   6.666   0.962 -0.2125 -2.1526 -0.5288
 2409TIP3    H228791   0.211   6.671   1.102  0.0333  2.0801 -0.4646
 2410TIP3   OH228792   5.490   2.526   6.781 -0.0585  0.9394  0.2033
 2410TIP3    H128793   5.476   2.614   6.817  1.7046  0.9183  1.0537
 2410TIP3    H228794   5.403   2.496   6.756 -0.6383  3.1897 -0.7522
 2411TIP3   OH228795   2.007   4.599   7.326  0.0256  0.3301  0.5404
 2411TIP3    H128796   2.019   4.684   7.369  1.0805  1.2895 -1.4786
 2411TIP3    H228797   2.063   4.604   7.249  0.6401 -2.4962  0.7010
 2412TIP3   OH228798   3.820   3.917   6.286 -0.3902  0.3537  0.3443
 2412TIP3    H128799   3.806   3.845   6.347  0.2524 -1.9955 -2.0908
 2412TIP3    H228800   3.732   3.948   6.265 -0.6254  1.0819  2.2267
 2413TIP3   OH228801   1.760   2.106   2.138 -0.2892 -0.1138  0.0157
 2413TIP3    H128802   1.768   2.087   2.231  0.8528 -0.3558 -0.1114
 2413TIP3    H228803   1.688   2.051   2.108 -0.5456 -0.1689  0.7122
 2414TIP3   OH228804   5.800   4.643   7.464 -0.7291 -0.0590 -0.4845
 2414TIP3    H128805   5.747   4.588   7.406  2.0632 -3.3019 -0.2847
 2414TIP3    H228806   5.890   4.633   7.431  0.2071  3.0673  0.7212
 2415TIP3   OH228807   4.814   2.722   0.351 -0.1025  1.0908 -0.8107
 2415TIP3    H128808   4.808   2.816   0.364 -1.0615  1.0330 -0.7793
 2415TIP3    H228809   4.745   2.702   0.287 -0.9742  0.1969  0.3666
 2416TIP3   OH228810   5.919   5.223   1.220 -0.2489  0.1354 -0.2336
 2416TIP3    H128811   5.838   5.254   1.260  0.1427  1.0350 -0.1195
 2416TIP3    H228812   5.950   5.297   1.167  1.9196  0.8622  1.8676
 2417TIP3   OH228813   0.314   3.503   6.711  0.4198  0.7382 -0.0894
 2417TIP3    H128814   0.409   3.504   6.698  0.5434  0.8578  0.7615
 2417TIP3    H228815   0.303   3.512   6.806 -0.4504  1.0944 -0.2145
 2418TIP3   OH228816   4.102   4.787   1.291  0.1164  0.5501 -0.2617
 2418TIP3    H128817   4.120   4.854   1.357 -0.2368  1.6795 -1.2764
 2418TIP3    H228818   4.155   4.813   1.216 -0.9525  0.3953 -1.0946
 2419TIP3   OH228819   4.943   5.969   8.368 -0.8857 -0.5156 -0.3478
 2419TIP3    H128820   4.917   5.877   8.365 -0.5180 -0.6039 -1.3759
 2419TIP3    H228821   4.863   6.017   8.391 -0.8146 -1.1720  1.4004
 2420TIP3   OH228822   5.731   1.485   7.352  0.2241  0.1621  0.0989
 2420TIP3    H128823   5.730   1.451   7.441  0.1220 -1.2327 -0.4099
 2420TIP3    H228824   5.810   1.539   7.347 -0.4279  1.2916  1.3818
 2421TIP3   OH228825   6.502   1.837   0.020  0.2300  0.9693 -0.5398
 2421TIP3    H128826   6.557   1.759   0.011 -1.4572 -0.4745  0.7146
 2421TIP3    H228827   6.548   1.892   0.083  0.1697 -0.3658  0.7436
 2422TIP3   OH228828   1.513   0.300   1.189  0.0620 -0.2876 -0.4884
 2422TIP3    H128829   1.505   0.312   1.283  1.1553 -1.4696 -0.2014
 2422TIP3    H228830   1.560   0.216   1.180  0.0296 -0.1671 -2.0734
 2423TIP3   OH228831   4.634   3.202   1.599  0.1542  0.0464  0.1742
 2423TIP3    H128832   4.650   3.270   1.663  1.5781 -0.5244  0.4727
 2423TIP3    H228833   4.693   3.222   1.526 -1.0022  0.3469 -0.7149
 2424TIP3   OH228834   2.716   0.514   1.235 -0.4253  0.2316 -0.2391
 2424TIP3    H128835   2.701   0.609   1.235 -1.2151  0.1147  0.4109
 2424TIP3    H228836   2.648   0.479   1.293  0.7568 -0.6003  0.6765
 2425TIP3   OH228837   5.366   2.241   0.182  0.6124 -0.4278  0.0575
 2425TIP3    H128838   5.423   2.313   0.157  2.7565 -1.9149  0.4377
 2425TIP3    H228839   5.309   2.278   0.249 -0.1000  1.5577 -1.5463
 2426TIP3   OH228840   6.247   2.518   1.340  0.5784 -0.4295  0.1085
 2426TIP3    H128841   6.228   2.610   1.322  0.1377 -0.7606 -1.2878
 2426TIP3    H228842   6.182   2.492   1.405  0.3704  0.1002  0.1150
 2427TIP3   OH228843   1.133   6.121   6.395  0.3589 -0.7498 -0.3375
 2427TIP3    H128844   1.122   6.197   6.339 -1.2497 -1.3404 -0.8809
 2427TIP3    H228845   1.214   6.080   6.365  0.8553  0.3339 -0.5121
 2428TIP3   OH228846   5.590   5.044   0.432  0.4410 -0.0196  0.2509
 2428TIP3    H128847   5.510   4.998   0.409  1.7586 -2.3298 -0.0178
 2428TIP3    H228848   5.637   5.054   0.349  0.1746  2.0103  0.2721
 2429TIP3   OH228849   0.599   0.843   7.054 -0.5366 -0.0745 -0.0828
 2429TIP3    H128850   0.579   0.915   6.994  0.3834  1.1973  1.1018
 2429TIP3    H228851   0.593   0.882   7.141 -0.3878 -1.5293  0.6000
 2430TIP3   OH228852   2.059   3.110   8.372 -0.1870  0.0406 -0.1880
 2430TIP3    H128853   2.071   3.056   8.449 -1.6955  1.9926  1.5609
 2430TIP3    H228854   1.964   3.119   8.363 -0.0148  1.7690 -0.8134
 2431TIP3   OH228855   4.040   3.938   6.778  0.2968 -0.0837 -0.0183
 2431TIP3    H128856   4.134   3.919   6.774  0.7605  1.2344  2.2592
 2431TIP3    H228857   4.000   3.857   6.809  0.4086 -1.1255 -2.3998
 2432TIP3   OH228858   1.528   0.189   8.796  0.1185 -0.6383 -0.1099
 2432TIP3    H128859   1.518   0.112   8.852  0.3313 -1.6746 -1.4233
 2432TIP3    H228860   1.504   0.157   8.709 -2.2916  1.4467 -0.3249
 2433TIP3   OH228861   0.364   6.403   0.732  0.2043  0.4837  0.1685
 2433TIP3    H128862   0.438   6.357   0.693 -0.1196  0.9518 -1.0512
 2433TIP3    H228863   0.329   6.457   0.661 -1.8200 -0.3376  0.4790
 2434TIP3   OH228864   3.927   4.054   8.567 -0.7145  0.0942 -0.1747
 2434TIP3    H128865   3.850   4.006   8.536 -1.2261  0.6932  0.1460
 2434TIP3    H228866   3.994   3.987   8.578 -1.2371 -0.4621 -0.3173
 2435TIP3   OH228867   0.951   4.885   8.672  0.2869  0.0805  0.0783
 2435TIP3    H128868   0.925   4.866   8.582  3.9797 -0.0746 -1.1063
 2435TIP3    H228869   0.940   4.802   8.718 -2.1830  0.3072  0.0002
 2436TIP3   OH228870   4.286   0.975   0.315 -0.1124 -0.8136  0.2946
 2436TIP3    H128871   4.285   1.052   0.258  0.6495  0.2892  1.7071
 2436TIP3    H228872   4.217   0.993   0.379  0.9831 -0.6244  1.4580
 2437TIP3   OH228873   3.402   5.011   6.690 -0.5480 -0.5129 -0.4031
 2437TIP3    H128874   3.429   4.931   6.646 -0.2990 -1.1102  0.7893
 2437TIP3    H228875   3.335   4.983   6.753  0.1499  0.0610  0.6264
 2438TIP3   OH228876   2.433   2.479   1.736  0.1607 -0.0189  0.0633
 2438TIP3    H128877   2.513   2.530   1.726 -0.1373  0.4444  0.0244
 2438TIP3    H228878   2.463   2.389   1.744  0.6346  0.0441 -0.8801
 2439TIP3   OH228879   1.192   1.796   0.065 -0.3317  0.0086 -0.0896
 2439TIP3    H128880   1.275   1.832   0.096  0.2248 -0.3595 -1.1113
 2439TIP3    H228881   1.207   1.777  -0.028 -1.1417 -1.2936  0.0281
 2440TIP3   OH228882   5.187   4.310   0.176 -0.1212  0.3571  0.1195
 2440TIP3    H128883   5.156   4.348   0.094 -0.3247 -0.2554 -0.0999
 2440TIP3    H228884   5.122   4.338   0.241  1.2254  2.7090  0.5524
 2441TIP3   OH228885   1.515   6.683   7.552 -0.2757  0.0134 -0.4669
 2441TIP3    H128886   1.474   6.658   7.469 -2.2459 -1.5951  0.8892
 2441TIP3    H228887   1.443   6.682   7.615  0.9559  2.2365  1.1178
 2442TIP3   OH228888   6.476   2.141   1.075  0.2111  0.1794 -0.0190
 2442TIP3    H128889   6.411   2.211   1.082 -0.3833 -0.3451 -0.2068
 2442TIP3    H228890   6.527   2.163   0.998 -1.2634 -0.6397 -1.2731
 2443TIP3   OH228891   3.142   1.955   0.644  0.4363 -0.0089  0.3701
 2443TIP3    H128892   3.119   1.931   0.734  0.1373  1.0840  0.6085
 2443TIP3    H228893   3.079   1.909   0.589  0.2575 -0.2304  0.7564
 2444TIP3   OH228894   4.675   5.830   6.514 -0.1398 -0.0241 -0.0825
 2444TIP3    H128895   4.594   5.877   6.491 -0.3703 -0.7874 -0.8813
 2444TIP3    H228896   4.718   5.815   6.430  0.7121  0.1413  0.3149
 2445TIP3   OH228897   1.356   1.471   7.097  0.1018  0.5551 -0.2602
 2445TIP3    H128898   1.333   1.506   7.010 -0.6077  1.8024  0.4055
 2445TIP3    H228899   1.274   1.476   7.146  0.4241 -0.4599  0.3869
 2446TIP3   OH228900   6.813   2.683   1.182 -0.6166  0.4367 -0.0110
 2446TIP3    H128901   6.877   2.721   1.243 -0.3735  0.6294 -0.3813
 2446TIP3    H228902   6.768   2.759   1.144 -0.3032  0.3459 -0.5661
 2447TIP3   OH228903   3.732   4.323   0.149  0.1231 -0.4829 -0.1668
 2447TIP3    H128904   3.766   4.412   0.145 -0.8640 -0.0097  1.0799
 2447TIP3    H228905   3.757   4.283   0.065  2.6095  0.1843  0.1947
 2448TIP3   OH228906   4.458   2.929   0.467  0.4690 -1.0353 -0.9831
 2448TIP3    H128907   4.527   2.924   0.533  0.0545  0.1590 -0.4251
 2448TIP3    H228908   4.449   3.023   0.450 -0.8850 -1.1846 -1.1771
 2449TIP3   OH228909   3.016   3.296   0.811 -0.0761 -0.3814 -0.0887
 2449TIP3    H128910   3.054   3.232   0.872  0.9162 -0.7014 -1.0137
 2449TIP3    H228911   2.985   3.243   0.737  1.5751  0.2260 -1.2886
 2450TIP3   OH228912   3.612   3.824   1.419 -0.0126 -0.3998 -0.1074
 2450TIP3    H128913   3.615   3.845   1.326  0.9656  0.4274  0.0971
 2450TIP3    H228914   3.606   3.909   1.463 -0.3273 -0.7749  0.5957
 2451TIP3   OH228915   0.350   1.403   1.914 -0.3451 -0.5224 -0.2876
 2451TIP3    H128916   0.379   1.494   1.904  2.9361 -1.3337  0.8503
 2451TIP3    H228917   0.269   1.410   1.965  0.8665  1.6840  1.4991
 2452TIP3   OH228918   3.284   3.574   1.140  0.3515 -0.1868 -0.1722
 2452TIP3    H128919   3.285   3.496   1.195  1.8687 -1.0312 -1.2921
 2452TIP3    H228920   3.376   3.601   1.136 -0.0838  1.3663 -0.2151
 2453TIP3   OH228921   5.606   3.549   1.491 -0.1650  0.1138 -0.1514
 2453TIP3    H128922   5.577   3.458   1.495  1.0777 -0.2517  1.3113
 2453TIP3    H228923   5.692   3.545   1.449  1.0327  0.2541  2.1363
 2454TIP3   OH228924   2.464   6.824   1.750  0.2554  0.2418 -0.2740
 2454TIP3    H128925   2.427   6.813   1.838  3.0946 -1.4245  0.8233
 2454TIP3    H228926   2.481   6.918   1.744 -1.8231  0.7071  0.0728
 2455TIP3   OH228927   5.722   0.818   0.569  0.2862 -0.3457  0.5472
 2455TIP3    H128928   5.759   0.906   0.572 -0.4198  0.0507 -1.1441
 2455TIP3    H228929   5.687   0.804   0.657 -1.4519  1.9333  0.3302
 2456TIP3   OH228930   4.788   3.037   8.510  0.9291 -0.7235 -0.2929
 2456TIP3    H128931   4.842   3.098   8.459  2.5767 -0.5037  1.5972
 2456TIP3    H228932   4.709   3.086   8.530  1.6118  0.3010 -0.0281
 2457TIP3   OH228933   5.995   2.905   7.527  0.2537 -0.3858  0.0734
 2457TIP3    H128934   5.932   2.940   7.590 -1.6134 -0.6319 -1.5548
 2457TIP3    H228935   5.997   2.969   7.456  0.3398 -1.3084 -0.7921
 2458TIP3   OH228936   0.807   3.035   8.799 -0.1292  0.0714  0.2548
 2458TIP3    H128937   0.790   2.946   8.830 -0.5704 -0.1142 -0.5030
 2458TIP3    H228938   0.831   3.025   8.707  3.3924  0.3950  1.0296
 2459TIP3   OH228939   5.437   2.358   8.475 -0.4480 -0.0599 -0.4186
 2459TIP3    H128940   5.364   2.394   8.527  0.1610 -0.6594  0.9039
 2459TIP3    H228941   5.480   2.296   8.534  1.7447  0.9877 -0.8111
 2460TIP3   OH228942   2.487   2.982   7.266 -0.5482  0.4347 -0.2300
 2460TIP3    H128943   2.528   3.046   7.209  3.6460 -1.3820  0.4267
 2460TIP3    H228944   2.475   3.027   7.350 -1.0832  1.3358 -0.7783
 2461TIP3   OH228945   4.268   4.709   2.320  0.1176 -0.3321 -0.1042
 2461TIP3    H128946   4.318   4.777   2.276 -1.5077  1.4798  0.7098
 2461TIP3    H228947   4.319   4.629   2.307  2.5658  1.1863 -0.3061
 2462TIP3   OH228948   2.532   0.160   2.325 -0.1453 -0.1249 -0.4320
 2462TIP3    H128949   2.456   0.139   2.270 -0.2767  0.5729 -0.5285
 2462TIP3    H228950   2.527   0.098   2.398 -2.3601  1.5845  1.0235
 2463TIP3   OH228951   3.934   0.354   0.613 -0.1087 -0.0739 -0.0552
 2463TIP3    H128952   3.863   0.338   0.551 -0.6730 -3.1881  1.2032
 2463TIP3    H228953   3.993   0.280   0.601  2.2888  1.7515 -0.1154
 2464TIP3   OH228954   4.856   1.121   6.493 -0.6351 -0.2911 -0.3880
 2464TIP3    H128955   4.850   1.152   6.403  0.8100 -0.1861 -0.4788
 2464TIP3    H228956   4.839   1.199   6.546 -1.8512 -0.4322 -0.5496
 2465TIP3   OH228957   1.822   0.120   8.151 -0.2354 -0.1509  0.5787
 2465TIP3    H128958   1.769   0.041   8.161 -1.6706  0.6890 -0.1090
 2465TIP3    H228959   1.779   0.169   8.081  1.8230  0.2772 -0.4684
 2466TIP3   OH228960   0.360   1.694   0.566  0.0427 -0.2172 -0.1700
 2466TIP3    H128961   0.433   1.747   0.598  0.6634 -1.7942  1.2374
 2466TIP3    H228962   0.400   1.635   0.502 -0.0462 -0.8291  0.3255
 2467TIP3   OH228963   4.149   4.043   7.299  0.4326  0.4768  0.0915
 2467TIP3    H128964   4.123   4.104   7.230 -1.8384 -0.9169 -0.3672
 2467TIP3    H228965   4.072   3.989   7.314  1.0569  0.2954  3.3064
 2468TIP3   OH228966   1.254   3.317   7.548 -0.1366 -0.5876 -0.0275
 2468TIP3    H128967   1.292   3.271   7.473  1.6669 -0.4396  0.7667
 2468TIP3    H228968   1.174   3.267   7.568 -1.0886 -0.2035 -2.4585
 2469TIP3   OH228969   2.515   3.311   6.769 -0.3172  0.0163 -0.0347
 2469TIP3    H128970   2.514   3.310   6.674 -1.5678 -1.1010 -0.0444
 2469TIP3    H228971   2.502   3.219   6.794 -2.2379  0.5423  1.1672
 2470TIP3   OH228972   3.070   3.117   7.635 -0.0376  0.0895 -0.4728
 2470TIP3    H128973   3.069   3.115   7.731 -1.1731 -0.4643 -0.4754
 2470TIP3    H228974   2.990   3.164   7.611  0.4981  0.6657 -1.1473
 2471TIP3   OH228975   1.511   4.347   7.975 -0.4725  0.1006 -0.4643
 2471TIP3    H128976   1.498   4.374   8.066 -2.6188 -1.9933 -0.0435
 2471TIP3    H228977   1.432   4.298   7.953  1.4149 -2.3776 -2.3483
 2472TIP3   OH228978   3.780   2.983   6.686 -0.3448  0.3812  0.6324
 2472TIP3    H128979   3.708   3.002   6.745 -0.3611  0.8199  0.4761
 2472TIP3    H228980   3.745   2.917   6.625  0.0185 -0.9120  1.7766
 2473TIP3   OH228981   0.120   4.151   7.056 -0.0315 -0.2812 -0.0915
 2473TIP3    H128982   0.037   4.153   7.104 -1.9607  1.0850 -3.1309
 2473TIP3    H228983   0.107   4.084   6.989  1.3186 -0.0415 -0.6235
 2474TIP3   OH228984   4.149   1.174   0.119 -0.3367 -0.0524 -0.8163
 2474TIP3    H128985   4.139   1.259   0.162  0.3062  1.2512 -3.1085
 2474TIP3    H228986   4.062   1.152   0.087 -1.2497 -1.9100  2.4595
 2475TIP3   OH228987   5.225   1.489   1.258  0.4333  0.4035  0.2145
 2475TIP3    H128988   5.224   1.430   1.183  1.1832 -0.9922  1.2489
 2475TIP3    H228989   5.170   1.445   1.323 -0.6939  1.8751  0.3228
 2476TIP3   OH228990   5.542   4.024   0.941  0.1255  0.5992  0.0327
 2476TIP3    H128991   5.600   3.948   0.934 -0.1658  0.1698  1.7424
 2476TIP3    H228992   5.591   4.096   0.903  1.7822  0.2258  1.3450
 2477TIP3   OH228993   2.492   0.331   0.945 -0.3193 -0.1720 -0.1047
 2477TIP3    H128994   2.474   0.280   0.866 -0.3414 -1.6657  0.8316
 2477TIP3    H228995   2.587   0.344   0.944 -0.1480 -1.3166  0.2715
 2478TIP3   OH228996   5.861   3.014   6.969  0.0772 -0.3141 -0.4776
 2478TIP3    H128997   5.879   2.923   6.993 -0.3805 -0.2908 -0.0126
 2478TIP3    H228998   5.792   3.041   7.030  0.3572  0.4112 -0.4806
 2479TIP3   OH228999   5.760   2.583   1.291 -0.9381 -0.4655 -0.0493
 2479TIP3    H129000   5.696   2.538   1.237  0.1387  0.0845 -1.8654
 2479TIP3    H229001   5.841   2.582   1.240 -0.7388  3.0958 -0.0421
 2480TIP3   OH229002   3.402   6.137   7.536 -0.8519 -0.2661 -0.4738
 2480TIP3    H129003   3.408   6.187   7.454  1.0747  0.0217 -0.2205
 2480TIP3    H229004   3.309   6.127   7.552 -1.2997 -0.8762 -3.0399
 2481TIP3   OH229005   0.314   0.958   1.725 -0.6521 -0.0625  0.4940
 2481TIP3    H129006   0.348   1.028   1.781  3.3397  0.4875 -2.2047
 2481TIP3    H229007   0.380   0.889   1.731 -0.0173  0.0209 -3.2988
 2482TIP3   OH229008   1.783   3.839   1.028 -0.5478  0.7575 -0.0205
 2482TIP3    H129009   1.709   3.865   1.083  0.2185  0.9415  0.9576
 2482TIP3    H229010   1.858   3.885   1.066  0.1152  0.3829 -0.8417
 2483TIP3   OH229011   1.601   3.918   8.107 -0.3191  0.7531 -1.0395
 2483TIP3    H129012   1.536   3.889   8.043 -2.0927  0.2003  0.8808
 2483TIP3    H229013   1.661   3.844   8.116 -1.8806 -0.4585  0.1209
 2484TIP3   OH229014   2.536   3.158   0.992 -0.5640 -0.1862  0.7436
 2484TIP3    H129015   2.559   3.250   1.003  1.5015 -0.6992  1.0362
 2484TIP3    H229016   2.530   3.124   1.081  1.0655 -0.8672  0.6064
 2485TIP3   OH229017   4.703   0.674   0.802  0.4316  0.0565  0.1512
 2485TIP3    H129018   4.782   0.645   0.755  1.0054  0.1729  1.0121
 2485TIP3    H229019   4.634   0.616   0.770  0.6672  0.5273 -1.2766
 2486TIP3   OH229020   4.605   2.316   7.780 -0.4938  0.6132  0.2988
 2486TIP3    H129021   4.559   2.331   7.698 -0.3557  0.7173  0.2402
 2486TIP3    H229022   4.698   2.321   7.757 -0.2985 -2.9218 -0.2864
 2487TIP3   OH229023   0.465   6.669   0.162  0.3794  0.2262  0.3439
 2487TIP3    H129024   0.490   6.679   0.254  0.1191  1.3476  0.3107
 2487TIP3    H229025   0.376   6.704   0.158  0.5393  0.5470 -0.4110
 2488TIP3   OH229026   5.867   0.734   7.121 -0.2287 -0.3816  0.6226
 2488TIP3    H129027   5.798   0.787   7.161  0.6371  0.7121  0.7138
 2488TIP3    H229028   5.941   0.794   7.112  0.8750 -1.6597  0.9729
 2489TIP3   OH229029   0.666   4.736   1.047  0.1168  0.3756 -0.2616
 2489TIP3    H129030   0.748   4.723   1.000  0.8996 -1.5210  1.4836
 2489TIP3    H229031   0.653   4.831   1.048  1.0801  0.5751 -2.4888
 2490TIP3   OH229032   6.355   1.863   1.484  0.0041 -0.5200  0.5659
 2490TIP3    H129033   6.345   1.865   1.388  0.9755 -2.0326  0.3972
 2490TIP3    H229034   6.282   1.809   1.514  0.6686 -1.4959  0.4847
 2491TIP3   OH229035   4.071   6.781   7.573  0.6192  0.2235  0.3506
 2491TIP3    H129036   4.041   6.714   7.512  0.9941 -0.8534  1.3143
 2491TIP3    H229037   4.163   6.759   7.589  1.1029  1.7025 -0.2552
 2492TIP3   OH229038   6.015   3.172   0.782  0.3595 -0.0565  0.3414
 2492TIP3    H129039   5.993   3.209   0.868 -0.0481 -0.2170  0.3092
 2492TIP3    H229040   6.100   3.210   0.761 -0.0834  0.9209  0.2692
 2493TIP3   OH229041   1.470   5.818   7.844  0.2169 -0.3551  0.2947
 2493TIP3    H129042   1.522   5.880   7.894  0.6216 -0.5878  0.1703
 2493TIP3    H229043   1.382   5.827   7.878  0.5799 -0.8954  1.4278
 2494TIP3   OH229044   0.780   3.435   7.006 -0.3195 -0.0165  0.4706
 2494TIP3    H129045   0.788   3.342   7.029 -0.0987  0.0313  0.5932
 2494TIP3    H229046   0.774   3.436   6.911 -4.0470 -0.4329  0.5472
 2495TIP3   OH229047   4.292   2.743   1.006 -0.0940  0.0138  0.1361
 2495TIP3    H129048   4.324   2.823   0.963  0.3079 -1.1418 -1.8105
 2495TIP3    H229049   4.207   2.769   1.043  0.1412  1.4105 -0.2301
 2496TIP3   OH229050   6.152   2.356   7.602  0.0985  0.3799  0.2901
 2496TIP3    H129051   6.145   2.451   7.611 -1.1599  0.4492 -1.0324
 2496TIP3    H229052   6.102   2.336   7.523 -0.5013 -1.4981  1.0956
 2497TIP3   OH229053   2.693   6.003   1.175  0.5648 -0.1813 -0.4067
 2497TIP3    H129054   2.704   5.916   1.137  0.3591 -0.0859 -0.6882
 2497TIP3    H229055   2.603   6.027   1.154  0.5218 -0.0316 -0.0540
 2498TIP3   OH229056   3.277   2.464   7.079  0.3800  0.1666 -0.0358
 2498TIP3    H129057   3.186   2.484   7.058  0.6047  1.0541 -0.2232
 2498TIP3    H229058   3.286   2.370   7.064 -0.5627  0.0280  0.2140
 2499TIP3   OH229059   3.293   2.192   1.655  0.0500  0.1794 -0.0453
 2499TIP3    H129060   3.204   2.182   1.622  0.3372 -2.0762 -0.3133
 2499TIP3    H229061   3.349   2.170   1.580  0.7718 -0.7529  0.7333
 2500TIP3   OH229062   1.571   0.360   0.780  1.1412  0.3300 -0.4986
 2500TIP3    H129063   1.581   0.454   0.763  0.1007  0.8165  1.2878
 2500TIP3    H229064   1.514   0.329   0.711  2.1025  0.8345 -1.5467
 2501TIP3   OH229065   1.952   5.089   6.542 -0.3434 -0.6176 -0.4366
 2501TIP3    H129066   1.859   5.098   6.524 -0.2419  0.5378 -0.4979
 2501TIP3    H229067   1.994   5.094   6.455 -0.1527  0.2639 -0.3087
 2502TIP3   OH229068   1.171   4.235   0.255 -0.0302 -0.6930 -0.0021
 2502TIP3    H129069   1.159   4.171   0.185  3.2613 -0.9745 -0.4623
 2502TIP3    H229070   1.214   4.186   0.325 -1.3928  0.0880  1.4639
 2503TIP3   OH229071   2.107   2.022   8.345  0.3913  0.0996 -0.2227
 2503TIP3    H129072   2.058   2.085   8.292  1.5459 -0.5630 -2.1702
 2503TIP3    H229073   2.162   2.076   8.403 -1.3201  0.8325  0.7932
 2504TIP3   OH229074   4.434   3.419   7.463  0.4370 -0.5106 -0.1824
 2504TIP3    H129075   4.403   3.428   7.553 -2.6230 -0.1227 -1.1291
 2504TIP3    H229076   4.461   3.327   7.456 -0.3782 -0.8554  0.8677
 2505TIP3   OH229077   6.824   5.123   2.307 -0.3859 -0.1625 -0.5185
 2505TIP3    H129078   6.740   5.167   2.293 -0.2746 -0.2786 -1.6120
 2505TIP3    H229079   6.876   5.187   2.356 -1.0083  0.0137 -0.0637
 2506TIP3   OH229080   4.709   4.603   0.003  0.2118  0.2608 -0.1897
 2506TIP3    H129081   4.796   4.643   0.011 -0.2463  1.6218 -1.6796
 2506TIP3    H229082   4.656   4.669  -0.040 -1.5959 -0.5617  0.6905
 2507TIP3   OH229083   4.960   1.804   7.764 -0.8118 -0.4923 -0.5135
 2507TIP3    H129084   5.014   1.727   7.746  1.7136  1.0672 -0.0706
 2507TIP3    H229085   4.910   1.780   7.842  0.2042 -1.5846 -0.1621
 2508TIP3   OH229086   1.077   0.759   6.895  0.3366 -0.2616 -0.5443
 2508TIP3    H129087   1.068   0.807   6.977 -0.0284 -1.9210  0.4252
 2508TIP3    H229088   1.019   0.805   6.834  1.1825  1.4480 -0.1376
 2509TIP3   OH229089   6.763   6.497   1.413 -0.1928  0.4219 -0.6891
 2509TIP3    H129090   6.731   6.418   1.369 -2.0079  1.3209 -1.0852
 2509TIP3    H229091   6.693   6.561   1.401  0.6632  1.6989  0.7529
 2510TIP3   OH229092   6.100   3.329   1.458 -0.3362  0.5846  0.1534
 2510TIP3    H129093   6.135   3.242   1.439 -0.1687  0.7971 -0.5499
 2510TIP3    H229094   6.178   3.384   1.469 -0.4443  0.7505  0.0912
 2511TIP3   OH229095   2.662   0.160   1.448  0.6840  0.5797 -0.2043
 2511TIP3    H129096   2.626   0.077   1.416  0.1759  0.6149  0.2729
 2511TIP3    H229097   2.586   0.212   1.471  1.0261  0.3551  1.5935
 2512TIP3   OH229098   1.081   5.568   7.476  0.1699  0.1413  0.4432
 2512TIP3    H129099   1.098   5.475   7.464 -0.8692 -0.0225  0.1607
 2512TIP3    H229100   1.124   5.590   7.559  1.2976 -0.3452  0.0026
 2513TIP3   OH229101   5.440   6.317   7.873 -0.2495 -0.1596  0.7750
 2513TIP3    H129102   5.530   6.309   7.842 -1.3593  0.0908 -3.1121
 2513TIP3    H229103   5.431   6.409   7.897 -0.0198  0.4285 -1.1943
 2514TIP3   OH229104   4.707   1.762   1.729  0.3806 -0.5665  0.2583
 2514TIP3    H129105   4.708   1.832   1.795 -0.0824  0.6121 -0.9466
 2514TIP3    H229106   4.618   1.761   1.696  0.9325 -0.1732 -1.3260
 2515TIP3   OH229107   0.741   5.970   0.453 -0.5577  0.0455 -0.5396
 2515TIP3    H129108   0.777   5.953   0.540  0.8906  0.7196 -0.9752
 2515TIP3    H229109   0.689   6.049   0.464 -0.7079 -0.0937 -0.2159
 2516TIP3   OH229110   2.483   0.630   8.410 -0.5394 -0.0941  0.4908
 2516TIP3    H129111   2.526   0.631   8.495  0.1671 -0.2057  0.1387
 2516TIP3    H229112   2.436   0.546   8.408 -0.0833 -0.3518  0.5375
 2517TIP3   OH229113   1.679   6.772   1.422 -0.5556 -0.7057 -0.4163
 2517TIP3    H129114   1.627   6.721   1.484 -0.3850 -1.8215 -1.1586
 2517TIP3    H229115   1.767   6.773   1.461 -0.3952 -1.5955 -0.7301
 2518TIP3   OH229116   0.419   1.570   8.118 -0.4346  0.1911 -0.4228
 2518TIP3    H129117   0.387   1.581   8.028  2.4694 -2.3175 -1.9294
 2518TIP3    H229118   0.512   1.552   8.108 -0.5624 -3.3937  2.8270
 2519TIP3   OH229119   3.578   6.800   1.571  0.1379  0.3467  0.3208
 2519TIP3    H129120   3.659   6.850   1.581  0.3023  0.3227 -0.8500
 2519TIP3    H229121   3.591   6.724   1.628  1.9295 -0.8593 -1.5509
 2520TIP3   OH229122   0.463   5.743   8.727 -0.4402  0.2182  0.3603
 2520TIP3    H129123   0.544   5.747   8.676 -1.0359 -0.2248 -0.6414
 2520TIP3    H229124   0.473   5.665   8.783 -1.4122 -1.7059 -1.9838
 2521TIP3   OH229125   3.556   3.588   7.841  0.1204 -0.0168 -0.1748
 2521TIP3    H129126   3.517   3.506   7.874  0.6377  0.2957  1.3000
 2521TIP3    H229127   3.638   3.596   7.890 -0.0820  1.5499 -0.0519
 2522TIP3   OH229128   1.402   1.922   1.409  0.1149  0.5518 -0.5344
 2522TIP3    H129129   1.475   1.912   1.348  1.9673 -0.1286  1.6238
 2522TIP3    H229130   1.349   1.844   1.396 -0.5685  1.2713 -2.4538
 2523TIP3   OH229131   1.785   4.895   8.321  0.5907  0.1593 -0.4057
 2523TIP3    H129132   1.852   4.827   8.329  0.9861  0.4477 -1.2398
 2523TIP3    H229133   1.735   4.871   8.243 -0.8022 -0.4938  0.6322
 2524TIP3   OH229134   1.751   5.183   0.849  0.6044 -0.3352  0.4430
 2524TIP3    H129135   1.836   5.223   0.865  0.6120  0.8534 -2.1166
 2524TIP3    H229136   1.764   5.128   0.771 -1.0113  0.1104 -0.1889
 2525TIP3   OH229137   0.915   3.447   0.117 -0.0890  0.1176 -0.0410
 2525TIP3    H129138   0.889   3.436   0.025 -0.8218 -1.3959  0.3100
 2525TIP3    H229139   0.846   3.502   0.155  0.1693  0.6720 -0.3557
 2526TIP3   OH229140   1.556   2.710   7.458 -0.5266 -0.0846 -0.0524
 2526TIP3    H129141   1.531   2.626   7.496  2.6137 -1.2675 -0.2710
 2526TIP3    H229142   1.513   2.712   7.373  0.3237 -2.1417 -0.5976
 2527TIP3   OH229143   3.935   6.005   6.652 -0.0806  0.0080 -0.3991
 2527TIP3    H129144   4.014   5.952   6.642  0.2715  0.1507  1.2718
 2527TIP3    H229145   3.961   6.093   6.626  0.2210 -0.0083 -0.1548
 2528TIP3   OH229146   0.187   3.411   0.562 -0.0899 -0.3278  0.0964
 2528TIP3    H129147   0.269   3.450   0.592 -0.2946 -0.6947  1.1555
 2528TIP3    H229148   0.133   3.486   0.536 -0.9137  0.2705  3.1840
 2529TIP3   OH229149   1.725   3.897   7.708  0.0611  0.3054  0.1369
 2529TIP3    H129150   1.685   3.984   7.718  0.4345  0.5396 -0.3344
 2529TIP3    H229151   1.805   3.902   7.761 -0.1829  0.0760  0.5222
 2530TIP3   OH229152   2.280   5.939   0.049  0.6411 -0.0546 -1.1709
 2530TIP3    H129153   2.305   5.847   0.063  0.2949 -0.0547 -0.5179
 2530TIP3    H229154   2.364   5.985   0.043  0.9002  0.0281  1.6079
 2531TIP3   OH229155   6.708   2.443   1.226  0.4960  0.3951 -0.0558
 2531TIP3    H129156   6.623   2.466   1.187  0.9670 -1.1300 -2.1549
 2531TIP3    H229157   6.763   2.519   1.210 -0.3561  1.3163  1.1321
 2532TIP3   OH229158   4.587   5.064   0.710 -0.1164  0.4530  0.7201
 2532TIP3    H129159   4.629   4.982   0.734 -1.6870 -1.1196 -1.4819
 2532TIP3    H229160   4.648   5.132   0.738  2.2331 -1.5430  0.7241
 2533TIP3   OH229161   4.817   5.547   1.202 -0.3193 -0.1471 -0.4879
 2533TIP3    H129162   4.798   5.556   1.108 -0.8264  1.7915 -0.2534
 2533TIP3    H229163   4.912   5.551   1.208  0.0810 -4.3555 -1.1935
 2534TIP3   OH229164   1.607   2.247   1.040  0.3029  0.3486 -0.0046
 2534TIP3    H129165   1.657   2.189   1.098 -1.1602 -0.6022  0.3849
 2534TIP3    H229166   1.538   2.191   1.005  0.5661  1.1559 -1.9398
 2535TIP3   OH229167   1.172   1.042   0.445  0.0658  0.0994  0.0586
 2535TIP3    H129168   1.164   0.948   0.462  1.4201 -0.0985 -0.2751
 2535TIP3    H229169   1.144   1.083   0.526 -3.2735 -0.4341 -0.6532
 2536TIP3   OH229170   6.413   6.113   7.969  0.3439 -0.1612 -0.2022
 2536TIP3    H129171   6.323   6.140   7.986  0.4137  0.1044 -0.2515
 2536TIP3    H229172   6.456   6.118   8.055  0.4176  0.1131 -0.2564
 2537TIP3   OH229173   2.165   6.779   1.657 -0.1730  0.1055  0.0458
 2537TIP3    H129174   2.245   6.831   1.667 -0.0759  0.9440 -3.5601
 2537TIP3    H229175   2.196   6.690   1.644  0.1974  0.3618 -0.9299
 2538TIP3   OH229176   3.202   1.093   0.668 -0.5538  0.1434 -0.4681
 2538TIP3    H129177   3.297   1.104   0.669 -0.6388  0.9322 -0.3371
 2538TIP3    H229178   3.172   1.135   0.749 -1.1316  1.2206 -1.2028
 2539TIP3   OH229179   2.031   5.755   6.373 -0.2762  0.2430 -0.1568
 2539TIP3    H129180   1.946   5.734   6.335 -1.0456  2.4447  0.2397
 2539TIP3    H229181   2.022   5.734   6.466  0.0369 -0.6249 -0.3078
 2540TIP3   OH229182   2.503   1.883   1.496  0.5167  0.3166 -0.1419
 2540TIP3    H129183   2.439   1.953   1.483  1.0763  1.3336  2.1145
 2540TIP3    H229184   2.493   1.857   1.587  1.9548 -0.9093 -0.2864
 2541TIP3   OH229185   3.510   5.621   8.046 -0.0354  0.2007 -0.1778
 2541TIP3    H129186   3.440   5.680   8.019  1.9933  1.4680 -3.1931
 2541TIP3    H229187   3.561   5.672   8.109 -0.1202  0.4252 -0.2902
 2542TIP3   OH229188   0.522   3.834   0.934  0.1073  0.2567  0.1655
 2542TIP3    H129189   0.537   3.885   0.854  1.5498 -2.2138 -1.2606
 2542TIP3    H229190   0.428   3.845   0.952 -0.2618  0.8878 -1.8525
 2543TIP3   OH229191   2.066   4.269   2.138  0.2423  0.0423  0.8127
 2543TIP3    H129192   2.019   4.249   2.058  1.2802  0.2469  0.1366
 2543TIP3    H229193   2.105   4.186   2.165  2.1910  0.4921 -0.4404
 2544TIP3   OH229194   6.080   4.877   8.670  0.0227 -0.2175 -0.2028
 2544TIP3    H129195   6.083   4.971   8.655 -1.0325 -0.2108 -0.4586
 2544TIP3    H229196   6.087   4.839   8.582  0.8751 -0.4034 -0.0665
 2545TIP3   OH229197   2.891   1.223   2.249 -0.0086 -0.6978 -1.0281
 2545TIP3    H129198   2.924   1.278   2.178 -0.1804 -1.6958 -1.9121
 2545TIP3    H229199   2.919   1.134   2.226 -0.0206 -1.0305  0.1898
 2546TIP3   OH229200   4.303   4.472   8.461  0.1028  0.0146 -0.2820
 2546TIP3    H129201   4.297   4.535   8.389 -0.1502 -1.3481 -1.5034
 2546TIP3    H229202   4.213   4.441   8.474  0.5205 -1.8909 -1.4323
 2547TIP3   OH229203   5.099   4.231   0.596  0.1036 -0.3215  0.1241
 2547TIP3    H129204   5.101   4.309   0.540  1.5778 -0.4448 -0.0318
 2547TIP3    H229205   5.007   4.220   0.618 -0.2642  0.8444 -0.7250
 2548TIP3   OH229206   1.833   6.534   8.353 -0.1059  0.1100 -0.3327
 2548TIP3    H129207   1.883   6.512   8.274  0.6321 -1.3917  0.5015
 2548TIP3    H229208   1.893   6.516   8.425 -1.0730  0.5638  0.6148
 2549TIP3   OH229209   5.732   0.721   0.006 -0.1844 -0.3923  0.0690
 2549TIP3    H129210   5.730   0.769  -0.077 -0.7604  0.8795  0.8062
 2549TIP3    H229211   5.679   0.643  -0.011 -1.6594  0.6431 -0.3028
 2550TIP3   OH229212   0.081   0.483   6.972 -0.5819  0.1931  0.0070
 2550TIP3    H129213   0.023   0.474   6.897 -0.1334  0.4835 -0.3810
 2550TIP3    H229214   0.169   0.465   6.937 -0.2907  0.9821  0.3147
 2551TIP3   OH229215   1.735   6.196   7.513 -0.0888 -0.0780 -0.6354
 2551TIP3    H129216   1.817   6.200   7.561 -0.7872  0.9746  0.5262
 2551TIP3    H229217   1.677   6.145   7.570 -0.9544  1.2640 -0.2739
 2552TIP3   OH229218   5.941   5.624   2.055  0.3579  0.7205  0.4501
 2552TIP3    H129219   6.004   5.621   2.127  1.2282  0.3590 -0.3003
 2552TIP3    H229220   5.976   5.692   1.997  1.5855 -1.2810 -1.2978
 2553TIP3   OH229221   5.920   6.271   1.136  0.3606 -0.2876 -0.1954
 2553TIP3    H129222   6.004   6.297   1.099  0.8393 -0.4687  0.7196
 2553TIP3    H229223   5.888   6.203   1.077  1.3100 -0.8763 -0.0627
 2554TIP3   OH229224   1.884   6.255   1.226  0.0254  0.6298  0.0809
 2554TIP3    H129225   1.957   6.236   1.167 -0.2613  2.4669 -0.9349
 2554TIP3    H229226   1.839   6.171   1.237  2.6033 -0.7274  1.2742
 2555TIP3   OH229227   3.471   0.630   1.770  0.3219  0.1855  0.2119
 2555TIP3    H129228   3.536   0.568   1.737  0.3527  1.0350 -1.4367
 2555TIP3    H229229   3.492   0.640   1.863  1.5437 -0.7454  0.0672
 2556TIP3   OH229230   5.936   2.943   0.195 -0.1881 -0.0745  0.4671
 2556TIP3    H129231   5.876   2.997   0.144  0.0742  0.3875  0.6374
 2556TIP3    H229232   5.979   3.005   0.254  1.0392 -0.2615 -0.1972
 2557TIP3   OH229233   0.274   5.868   2.373  0.4802  0.2690 -0.4944
 2557TIP3    H129234   0.303   5.914   2.452  0.5406 -0.7185  0.0747
 2557TIP3    H229235   0.353   5.861   2.320  0.6327  0.1942 -0.2618
 2558TIP3   OH229236   2.601   3.813   7.095 -0.2236 -0.3497 -0.2383
 2558TIP3    H129237   2.619   3.905   7.076  0.5039  0.0840  2.1823
 2558TIP3    H229238   2.687   3.776   7.117 -0.7259 -1.1657  0.4316
 2559TIP3   OH229239   2.803   0.166   2.078  0.0424  0.1506 -0.2881
 2559TIP3    H129240   2.802   0.101   2.008 -3.3342 -1.8776  1.4046
 2559TIP3    H229241   2.827   0.116   2.157 -2.8912  0.7326  1.1043
 2560TIP3   OH229242   0.481   1.292   2.141  0.8429  0.0803  0.6605
 2560TIP3    H129243   0.462   1.346   2.064  1.4047 -0.4643  0.1313
 2560TIP3    H229244   0.412   1.315   2.204 -0.8992 -0.9469 -0.7599
 2561TIP3   OH229245   3.979   0.220   0.277 -0.0371  0.2208  0.1366
 2561TIP3    H129246   3.933   0.177   0.206  0.6954 -2.2784  1.0731
 2561TIP3    H229247   3.910   0.264   0.327 -0.7508  0.5927 -1.1254
 2562TIP3   OH229248   5.958   5.117   7.378  0.3646 -0.1323  0.1192
 2562TIP3    H129249   5.897   5.045   7.394 -0.0604  0.7601  3.1382
 2562TIP3    H229250   5.903   5.190   7.351  0.4324 -0.1233  0.0057
 2563TIP3   OH229251   3.438   6.429   1.750  0.4295  0.1916  0.0718
 2563TIP3    H129252   3.413   6.367   1.681  1.0012 -0.2094  0.2266
 2563TIP3    H229253   3.448   6.376   1.828 -2.5109  0.9183  1.0821
 2564TIP3   OH229254   4.197   1.817   1.598 -0.1544 -0.0389  0.4996
 2564TIP3    H129255   4.241   1.894   1.561  0.5127 -1.4772 -1.9510
 2564TIP3    H229256   4.134   1.792   1.530  0.1165 -2.0181  0.9475
 2565TIP3   OH229257   2.192   4.224   7.503  0.3453  0.2267 -0.0775
 2565TIP3    H129258   2.117   4.235   7.562  0.1804  1.8799 -0.5234
 2565TIP3    H229259   2.230   4.312   7.497 -0.0444  0.2974 -2.9138
 2566TIP3   OH229260   2.876   1.322   1.437  0.0505 -0.1499  0.8323
 2566TIP3    H129261   2.960   1.344   1.397 -0.7884  1.6781 -0.0472
 2566TIP3    H229262   2.899   1.289   1.524  1.7287 -0.8604  0.1599
 2567TIP3   OH229263   1.469   5.294   8.096 -0.1551  0.7323  0.0118
 2567TIP3    H129264   1.530   5.280   8.023  1.2174  0.4418  1.1856
 2567TIP3    H229265   1.517   5.268   8.174 -1.8240  0.3921  0.9917
 2568TIP3   OH229266   0.326   4.718   1.251 -0.3221  0.0521 -0.6450
 2568TIP3    H129267   0.342   4.812   1.263  1.2626 -0.2829  0.1696
 2568TIP3    H229268   0.413   4.678   1.258 -0.6546 -1.2848 -3.0328
 2569TIP3   OH229269   4.657   3.897   1.745  0.3774  0.3481  0.2930
 2569TIP3    H129270   4.678   3.832   1.812  1.7466  0.1351 -0.2915
 2569TIP3    H229271   4.625   3.973   1.793  1.5285  0.2706  1.2266
 2570TIP3   OH229272   2.578   5.741   6.685  0.2955 -0.0586  0.4930
 2570TIP3    H129273   2.644   5.810   6.695 -1.0552  1.4150 -0.2190
 2570TIP3    H229274   2.616   5.680   6.622  0.5236  1.4083 -0.8448
 2571TIP3   OH229275   3.012   2.597   8.279  0.0856  0.2366 -0.3541
 2571TIP3    H129276   3.048   2.554   8.201 -1.5102  0.5143 -1.3033
 2571TIP3    H229277   2.959   2.528   8.321  0.4892  0.2500  0.1863
 2572TIP3   OH229278   3.423   6.330   8.570  0.0477 -0.1179  0.7640
 2572TIP3    H129279   3.415   6.419   8.537 -0.4437  0.0992  1.4409
 2572TIP3    H229280   3.391   6.335   8.660  0.8269 -0.8006  1.0920
 2573TIP3   OH229281   1.682   1.100   2.076  0.0748 -0.0072  0.0669
 2573TIP3    H129282   1.771   1.129   2.094 -0.3121  0.5647  1.1459
 2573TIP3    H229283   1.626   1.164   2.120 -0.9895  1.4018 -2.9956
 2574TIP3   OH229284   0.728   2.377   2.155 -0.0126  0.1829 -0.1227
 2574TIP3    H129285   0.748   2.467   2.179 -0.1302  0.4090 -0.8283
 2574TIP3    H229286   0.729   2.328   2.237 -2.4281  1.2653  0.6322
 2575TIP3   OH229287   5.169   5.169   1.439  0.4419 -0.0105 -0.6280
 2575TIP3    H129288   5.078   5.142   1.432 -0.2303  2.3784 -2.2168
 2575TIP3    H229289   5.215   5.121   1.370  0.6511 -1.9521  0.7921
 2576TIP3   OH229290   5.409   6.237   2.411  0.1012 -0.0776 -0.3028
 2576TIP3    H129291   5.463   6.295   2.463  1.3065 -1.8257  0.4854
 2576TIP3    H229292   5.356   6.189   2.475 -1.0456  0.2594 -0.9519
 2577TIP3   OH229293   4.673   6.702   7.842  0.3571 -0.0237  0.4972
 2577TIP3    H129294   4.740   6.710   7.774  0.6114  4.1796  1.0390
 2577TIP3    H229295   4.664   6.789   7.879 -2.8924 -1.1785  2.9689
 2578TIP3   OH229296   3.316   4.158   8.145 -0.4166  0.1674  0.2317
 2578TIP3    H129297   3.246   4.224   8.151 -0.2855  0.4325 -0.8757
 2578TIP3    H229298   3.395   4.209   8.126  0.3422 -0.0127  2.6224
 2579TIP3   OH229299   5.705   4.095   8.388  0.3323  0.1795  0.4216
 2579TIP3    H129300   5.679   4.152   8.316 -1.2180 -0.2209  0.6399
 2579TIP3    H229301   5.798   4.076   8.372  0.9294  2.7900  0.3749
 2580TIP3   OH229302   6.399   0.399   6.650  0.0254  0.4358  0.6537
 2580TIP3    H129303   6.398   0.489   6.617  1.5853  0.4905  0.6801
 2580TIP3    H229304   6.492   0.378   6.660 -0.3405 -0.5860  2.3062
 2581TIP3   OH229305   2.572   5.702   8.698 -0.0269  0.2039 -0.4705
 2581TIP3    H129306   2.630   5.721   8.772  1.4650 -2.0847 -0.9628
 2581TIP3    H229307   2.603   5.760   8.628  0.3427  0.4207 -0.1348
 2582TIP3   OH229308   6.142   1.640   6.811 -0.2912 -0.0395 -0.2230
 2582TIP3    H129309   6.120   1.732   6.796 -0.4982 -0.3299 -1.9524
 2582TIP3    H229310   6.061   1.593   6.792  0.1779 -0.6773 -0.6799
 2583TIP3   OH229311   3.402   0.758   8.640  0.0807 -0.4733  0.3427
 2583TIP3    H129312   3.317   0.787   8.607 -1.7612 -3.7689  1.7468
 2583TIP3    H229313   3.422   0.679   8.590  1.9148 -0.2532  0.6624
 2584TIP3   OH229314   1.324   5.641   7.619  0.2693 -0.0670 -0.5447
 2584TIP3    H129315   1.381   5.693   7.563  2.4304 -1.3709  0.2912
 2584TIP3    H229316   1.341   5.673   7.708 -1.4364  0.4813 -0.3714
 2585TIP3   OH229317   3.423   1.045   8.618  0.1278 -0.3737 -0.0163
 2585TIP3    H129318   3.504   1.039   8.568  0.1555 -1.7465  0.1641
 2585TIP3    H229319   3.395   0.954   8.630 -0.3247 -0.0304  1.7397
 2586TIP3   OH229320   6.347   2.460   8.131  0.3391 -0.7748 -0.1978
 2586TIP3    H129321   6.351   2.529   8.197 -0.4275  0.1036 -1.0407
 2586TIP3    H229322   6.266   2.412   8.152  0.9411 -1.5367  0.4708
 2587TIP3   OH229323   1.670   6.065   1.137 -0.8456  0.7282  0.3533
 2587TIP3    H129324   1.659   5.975   1.108 -0.4770  0.7539  0.1283
 2587TIP3    H229325   1.611   6.074   1.212 -2.7802  1.0188 -1.1298
 2588TIP3   OH229326   3.434   1.830   0.595  0.0327  0.5034  0.4679
 2588TIP3    H129327   3.432   1.910   0.543  0.0971 -0.0680 -0.4326
 2588TIP3    H229328   3.418   1.760   0.532  2.5766 -0.4322  0.7405
 2589TIP3   OH229329   2.136   2.513   7.354 -0.0150  0.0539 -0.1594
 2589TIP3    H129330   2.084   2.563   7.290 -0.8861 -0.3127  0.2576
 2589TIP3    H229331   2.205   2.473   7.302  1.3975  2.5553 -0.3776
 2590TIP3   OH229332   0.684   4.134   1.477 -0.5308 -0.2193 -0.5111
 2590TIP3    H129333   0.599   4.165   1.446 -0.4248  0.4484 -0.1559
 2590TIP3    H229334   0.664   4.069   1.543 -0.9619  3.4380  3.3946
 2591TIP3   OH229335   5.113   2.002   6.515 -0.4295 -0.3758 -0.3056
 2591TIP3    H129336   5.112   1.920   6.465 -0.3660 -1.0097  0.7007
 2591TIP3    H229337   5.162   2.063   6.459  0.3911 -1.3097 -0.6498
 2592TIP3   OH229338   3.223   3.083   6.723  0.6366 -0.2296 -0.2676
 2592TIP3    H129339   3.241   3.020   6.793  0.4899 -0.6291 -0.5819
 2592TIP3    H229340   3.245   3.036   6.643 -1.6382 -0.7315 -0.6823
 2593TIP3   OH229341   5.069   1.817   1.097 -0.0616 -0.5983  0.1217
 2593TIP3    H129342   5.146   1.780   1.055 -0.0587  1.5700 -1.9709
 2593TIP3    H229343   4.995   1.769   1.060  0.1049 -0.6354 -0.1600
 2594TIP3   OH229344   2.558   3.968   0.050  0.6046  0.4227  0.1472
 2594TIP3    H129345   2.512   3.944   0.130 -1.3156  0.3180 -0.9202
 2594TIP3    H229346   2.621   3.897   0.035  1.3679  0.7108  1.7928
 2595TIP3   OH229347   3.393   2.564   6.278  0.3884 -0.2281  0.3629
 2595TIP3    H129348   3.464   2.500   6.273 -0.7079 -1.3894 -0.9361
 2595TIP3    H229349   3.436   2.644   6.308  2.5178 -0.5248 -1.6336
 2596TIP3   OH229350   1.503   6.656   8.470  0.0898  0.3023 -0.0538
 2596TIP3    H129351   1.580   6.676   8.523 -0.3637  2.6096 -0.1653
 2596TIP3    H229352   1.532   6.669   8.380  0.3704 -1.8874 -0.3421
 2597TIP3   OH229353   0.386   3.950   7.376 -0.2085 -0.0693  0.3184
 2597TIP3    H129354   0.317   4.012   7.355 -0.3128 -0.3902 -0.2951
 2597TIP3    H229355   0.462   3.981   7.327  0.6965  1.4251  2.4755
 2598TIP3   OH229356   5.670   4.549   7.130  0.1642 -0.1799  0.8361
 2598TIP3    H129357   5.638   4.489   7.197 -0.7867  0.5207  1.0295
 2598TIP3    H229358   5.765   4.543   7.135  0.1419 -2.6673 -0.0380
 2599TIP3   OH229359   3.739   2.804   8.285 -0.0787 -0.1713  0.4011
 2599TIP3    H129360   3.785   2.768   8.360  0.8472  0.8299  0.3458
 2599TIP3    H229361   3.651   2.823   8.317 -0.4354 -1.9147  0.5714
 2600TIP3   OH229362   1.014   6.476   7.865 -0.4204 -0.1684  0.1343
 2600TIP3    H129363   0.923   6.470   7.896 -0.5257 -1.8140 -0.3896
 2600TIP3    H229364   1.008   6.516   7.779 -0.7417 -0.9642 -0.2208
 2601TIP3   OH229365   2.203   2.737   1.485 -0.4021  0.3800 -0.0163
 2601TIP3    H129366   2.296   2.714   1.491  0.0502  1.0127 -2.8478
 2601TIP3    H229367   2.183   2.781   1.568  2.2708  1.5979  0.0865
 2602TIP3   OH229368   6.304   5.733   0.310  0.0747  0.3631  0.2840
 2602TIP3    H129369   6.272   5.809   0.359  1.5415  0.7086  0.7744
 2602TIP3    H229370   6.398   5.731   0.328  0.4983 -0.0924 -1.7499
 2603TIP3   OH229371   3.776   2.189   7.861 -0.1337  0.2172 -0.0086
 2603TIP3    H129372   3.863   2.152   7.845  0.0265  0.7326 -0.3111
 2603TIP3    H229373   3.749   2.148   7.943  0.6931  0.5837  0.4648
 2604TIP3   OH229374   6.598   5.635   6.330  0.8253  0.2748  0.4186
 2604TIP3    H129375   6.587   5.640   6.425 -0.5856 -0.3271  0.3018
 2604TIP3    H229376   6.592   5.725   6.301  1.0537  0.4420  0.8677
 2605TIP3   OH229377   2.270   3.980   8.267 -0.4119 -0.5988  0.1659
 2605TIP3    H129378   2.255   4.027   8.349  1.7008 -0.3404  0.4531
 2605TIP3    H229379   2.194   4.001   8.213 -0.9008  0.8256  1.3446
 2606TIP3   OH229380   5.584   0.637   7.118 -0.1071 -1.2483  0.5295
 2606TIP3    H129381   5.623   0.720   7.146  0.1736 -1.2151  0.0478
 2606TIP3    H229382   5.491   0.647   7.136 -0.2354 -0.4203 -0.4775
 2607TIP3   OH229383   2.284   5.074   6.437  0.2412 -0.2985 -0.2438
 2607TIP3    H129384   2.373   5.049   6.412  0.9439  0.3240  1.4945
 2607TIP3    H229385   2.295   5.123   6.519 -1.8277 -1.7611  1.0056
 2608TIP3   OH229386   5.342   6.666   2.423 -0.3095  0.5544  0.4324
 2608TIP3    H129387   5.371   6.628   2.340 -1.2593  0.4420  0.1317
 2608TIP3    H229388   5.358   6.760   2.413  1.6688  0.3147  1.0182
 2609TIP3   OH229389   5.437   1.205   7.723  0.0703  0.1754 -0.4476
 2609TIP3    H129390   5.398   1.251   7.797 -0.4158 -1.5978  0.4377
 2609TIP3    H229391   5.531   1.218   7.733  0.0499 -0.5756  0.8619
 2610TIP3   OH229392   3.937   4.988   8.126  0.8533  0.2307  0.2037
 2610TIP3    H129393   3.949   5.082   8.136  0.0969  0.4332 -0.7670
 2610TIP3    H229394   3.920   4.975   8.033  0.5191 -0.8186  0.3984
 2611TIP3   OH229395   0.936   0.020   1.403  0.1094  0.6766  0.6345
 2611TIP3    H129396   1.022   0.009   1.443  0.5031  1.3101 -0.0135
 2611TIP3    H229397   0.933  -0.044   1.332  0.1439  0.8105  0.5105
 2612TIP3   OH229398   5.000   0.413   8.730 -0.7368  0.1730  0.1210
 2612TIP3    H129399   4.958   0.347   8.785  0.6711 -1.3628 -0.5505
 2612TIP3    H229400   5.061   0.458   8.789  0.9547 -1.6373 -0.1351
 2613TIP3   OH229401   0.726   0.700   7.823 -0.0578  0.5447 -0.0726
 2613TIP3    H129402   0.722   0.776   7.766 -3.0749 -0.9575 -2.1711
 2613TIP3    H229403   0.763   0.631   7.768 -2.4117 -0.7734 -0.1496
 2614TIP3   OH229404   2.452   2.138   8.023 -0.0564  0.1407 -0.5550
 2614TIP3    H129405   2.469   2.121   8.116 -0.5297  0.7638 -0.3437
 2614TIP3    H229406   2.358   2.125   8.014  0.0623 -0.3926 -1.0609
 2615TIP3   OH229407   2.768   2.254   1.602 -0.2149 -0.0093  0.0853
 2615TIP3    H129408   2.733   2.271   1.514 -2.0058  0.8355  0.9140
 2615TIP3    H229409   2.854   2.215   1.586 -0.3838  0.3562 -2.0362
 2616TIP3   OH229410   6.554   4.914   7.945 -0.1429  0.0213  0.5520
 2616TIP3    H129411   6.476   4.913   7.888 -0.1331  0.5770  0.5264
 2616TIP3    H229412   6.618   4.966   7.897 -0.0788  0.3621  1.0057
 2617TIP3   OH229413   4.710   5.624   2.020 -0.3161 -0.4812 -0.1275
 2617TIP3    H129414   4.639   5.659   1.965  0.5764  1.9484  0.1471
 2617TIP3    H229415   4.677   5.632   2.109  0.0782  0.1972 -0.0324
 2618TIP3   OH229416   1.359   3.771   0.998  0.1106  0.2619 -0.4648
 2618TIP3    H129417   1.291   3.742   1.058 -1.4160 -0.1774 -2.2934
 2618TIP3    H229418   1.432   3.796   1.054  0.4090 -4.0718  1.4891
 2619TIP3   OH229419   1.120   1.534   7.219  0.1350  0.4607  0.2825
 2619TIP3    H129420   1.059   1.466   7.246 -0.0701  0.4280 -0.2655
 2619TIP3    H229421   1.107   1.605   7.282 -0.9853  0.7510 -0.2460
 2620TIP3   OH229422   1.723   0.327   7.347 -0.3331 -0.7344 -0.0122
 2620TIP3    H129423   1.691   0.375   7.271 -0.5110  0.4973  0.8244
 2620TIP3    H229424   1.645   0.282   7.381 -0.5334 -0.2193  0.2164
 2621TIP3   OH229425   1.936   1.195   1.479  0.1832  0.1345  0.2292
 2621TIP3    H129426   1.947   1.144   1.399  1.1665  0.7709 -0.0618
 2621TIP3    H229427   2.013   1.173   1.533 -1.1405 -1.3348  1.6167
 2622TIP3   OH229428   5.843   5.869   8.017  0.0747  0.3478  0.0524
 2622TIP3    H129429   5.884   5.870   7.930 -1.4962 -1.0393 -0.7568
 2622TIP3    H229430   5.905   5.821   8.072 -0.2370 -1.4226 -1.0646
 2623TIP3   OH229431   4.055   6.026   7.177 -0.0221 -0.2460 -0.4373
 2623TIP3    H129432   3.991   6.073   7.230 -1.8641 -1.2571 -1.6352
 2623TIP3    H229433   4.058   6.074   7.094  0.5678 -0.3773 -0.4989
 2624TIP3   OH229434   4.289   2.635   5.847  0.0556  0.1033  0.2433
 2624TIP3    H129435   4.256   2.545   5.846  0.7569 -0.1624 -0.7213
 2624TIP3    H229436   4.384   2.625   5.855  0.0745  0.7882  0.9149
 2625TIP3   OH229437   4.126   5.860   0.635 -0.2297 -0.3247  0.6001
 2625TIP3    H129438   4.169   5.943   0.612 -0.0324 -0.6755 -0.3546
 2625TIP3    H229439   4.114   5.816   0.551  0.1457 -1.4974  1.1470
 2626TIP3   OH229440   0.763   4.388   2.159 -0.2116  0.4735 -0.2650
 2626TIP3    H129441   0.673   4.357   2.167 -0.0520  0.3693  1.5526
 2626TIP3    H229442   0.816   4.314   2.190  0.6272  0.0609 -2.4473
 2627TIP3   OH229443   2.458   4.173   8.165  0.2645  0.2288  0.3351
 2627TIP3    H129444   2.404   4.094   8.157  0.5304  0.1330 -0.6258
 2627TIP3    H229445   2.509   4.159   8.245  0.5301 -0.7131  0.0094
 2628TIP3   OH229446   5.327   3.555   2.303  0.4017  0.4557 -0.2945
 2628TIP3    H129447   5.418   3.533   2.281  0.0060  0.6002 -2.3208
 2628TIP3    H229448   5.304   3.496   2.374  1.1803 -1.6920 -1.7277
 2629TIP3   OH229449   0.911   4.167   7.544  0.0429  0.3159  0.3565
 2629TIP3    H129450   0.875   4.237   7.598  0.0437 -0.2275  1.0823
 2629TIP3    H229451   0.979   4.209   7.492  0.0891  0.8355  0.8265
 2630TIP3   OH229452   1.013   2.737   7.457 -0.0530  0.2290 -0.2891
 2630TIP3    H129453   1.096   2.728   7.503 -1.5686 -1.9773  2.3754
 2630TIP3    H229454   1.006   2.657   7.405 -1.9030 -1.5054  2.3349
 2631TIP3   OH229455   3.115   2.065   7.523 -0.0299  0.3986  0.6689
 2631TIP3    H129456   3.032   2.025   7.497  0.1666  1.1414 -1.2890
 2631TIP3    H229457   3.177   2.039   7.454  0.6999  2.0184  0.6583
 2632TIP3   OH229458   5.065   0.267   7.481 -0.0381  0.1808  0.0383
 2632TIP3    H129459   4.976   0.265   7.517  0.7171 -1.1068  2.0067
 2632TIP3    H229460   5.066   0.198   7.415 -0.2847 -0.3802  0.6100
 2633TIP3   OH229461   1.052   0.853   7.557  0.3724  0.5295 -0.3513
 2633TIP3    H129462   1.018   0.942   7.553 -2.4094 -0.4566 -0.4233
 2633TIP3    H229463   1.074   0.840   7.649 -1.3893  0.5744  0.0982
 2634TIP3   OH229464   3.611   3.315   7.963 -0.0067 -0.5184 -0.2641
 2634TIP3    H129465   3.676   3.327   8.032 -1.7656 -1.2834  1.6381
 2634TIP3    H229466   3.610   3.220   7.948  0.2468 -0.3719 -1.2611
 2635TIP3   OH229467   4.014   0.879   7.905 -0.2825 -0.1778 -0.1086
 2635TIP3    H129468   4.057   0.879   7.990  0.3733 -1.8444 -0.3962
 2635TIP3    H229469   3.931   0.834   7.920 -0.3821 -0.0395 -0.2445
 2636TIP3   OH229470   6.616   0.846   7.878  0.1975  0.1319 -0.0351
 2636TIP3    H129471   6.607   0.839   7.973 -0.9854 -2.2514 -0.2473
 2636TIP3    H229472   6.669   0.925   7.865  0.2818  0.6047  2.5728
 2637TIP3   OH229473   2.657   2.514   1.112 -0.5990  0.2881  0.2648
 2637TIP3    H129474   2.625   2.600   1.138 -1.5482 -0.7221  2.7059
 2637TIP3    H229475   2.583   2.455   1.127  0.3084 -1.1183 -0.4901
 2638TIP3   OH229476   1.630   3.987   8.707 -0.2974 -0.0275  0.2055
 2638TIP3    H129477   1.627   3.897   8.673 -0.1190 -0.1037  0.3896
 2638TIP3    H229478   1.589   4.040   8.638  2.9652  0.2896 -1.7295
 2639TIP3   OH229479   5.778   6.196   1.368  0.6183  0.1767  0.1472
 2639TIP3    H129480   5.847   6.238   1.318 -0.3312  1.0061 -0.5070
 2639TIP3    H229481   5.785   6.103   1.347  2.2261  0.0839  0.9685
 2640TIP3   OH229482   3.947   0.324   6.801 -0.0542 -0.5801 -0.4745
 2640TIP3    H129483   3.854   0.349   6.797  0.5014  1.6208 -1.6866
 2640TIP3    H229484   3.953   0.245   6.748 -1.6854 -2.7074  2.2357
 2641TIP3   OH229485   0.586   4.089   8.755  0.5609  0.1304  0.4462
 2641TIP3    H129486   0.575   4.110   8.662 -0.0453 -1.3055  0.1608
 2641TIP3    H229487   0.496   4.085   8.788  0.7600  0.1925  0.9949
 2642TIP3   OH229488   3.006   3.601   0.654  0.1779 -0.6236 -0.2279
 2642TIP3    H129489   2.976   3.519   0.614 -1.3457 -0.0595 -0.3327
 2642TIP3    H229490   2.963   3.602   0.739 -1.4787  0.9403 -0.9963
 2643TIP3   OH229491   0.785   5.216   2.295 -0.4952 -0.3527 -0.2514
 2643TIP3    H129492   0.711   5.168   2.333 -0.7164  0.5090  0.4546
 2643TIP3    H229493   0.854   5.211   2.361 -0.3842 -0.0431 -0.3414
 2644TIP3   OH229494   5.818   4.155   7.394 -0.3531  0.1367  0.1514
 2644TIP3    H129495   5.856   4.099   7.461  0.3212 -0.6144 -0.8179
 2644TIP3    H229496   5.882   4.224   7.380  0.0722 -0.3824 -0.5432
 2645TIP3   OH229497   0.235   1.925   1.665 -0.1910  0.4274 -0.2012
 2645TIP3    H129498   0.208   1.833   1.656 -1.1230  0.6253  0.4792
 2645TIP3    H229499   0.154   1.974   1.674  0.3035  1.3255 -0.4799
 2646TIP3   OH229500   6.097   2.899   2.658 -0.3616 -0.2499  0.0125
 2646TIP3    H129501   6.096   2.994   2.673  1.8620 -0.3394  1.1277
 2646TIP3    H229502   6.154   2.864   2.726 -0.9676 -2.3882 -0.5000
 2647TIP3   OH229503   6.300   5.886   0.556 -0.8496 -0.6096 -0.2125
 2647TIP3    H129504   6.222   5.832   0.563 -1.4559  0.2649 -0.1212
 2647TIP3    H229505   6.373   5.823   0.560 -1.4528 -1.2563  1.9395
 2648TIP3   OH229506   0.053   4.982   7.917  0.0309 -0.4829  0.3249
 2648TIP3    H129507   0.106   4.989   7.838 -0.6451  0.0286 -0.0981
 2648TIP3    H229508   0.115   4.960   7.986  0.7616 -0.0674 -0.1889
 2649TIP3   OH229509   0.787   0.718   0.433 -0.1886 -0.7415 -0.1136
 2649TIP3    H129510   0.703   0.694   0.472 -0.7016 -2.2776 -1.9997
 2649TIP3    H229511   0.793   0.666   0.354  1.2700  1.4313 -1.5689
 2650TIP3   OH229512   1.460   6.284   1.131 -0.1337 -0.5329 -0.2233
 2650TIP3    H129513   1.397   6.232   1.081  1.0309  0.6001 -3.0998
 2650TIP3    H229514   1.537   6.228   1.138 -0.5549 -0.9896  1.1187
 2651TIP3   OH229515   6.697   3.407   0.910 -0.2488  0.2236 -0.4455
 2651TIP3    H129516   6.683   3.425   1.002 -0.7776 -0.9045 -0.2872
 2651TIP3    H229517   6.610   3.389   0.875  0.1092 -0.9553 -0.7845
 2652TIP3   OH229518   0.623   0.522   1.563  0.2962  0.2726 -0.4028
 2652TIP3    H129519   0.545   0.558   1.521  0.2262  2.5035  1.4726
 2652TIP3    H229520   0.599   0.511   1.655  2.0559  0.6415  0.1392
 2653TIP3   OH229521   2.165   5.533   0.349 -0.5890  0.1986 -0.0169
 2653TIP3    H129522   2.092   5.596   0.355  1.1890  2.5883 -1.6636
 2653TIP3    H229523   2.232   5.568   0.407  0.3931 -0.2417 -0.8490
 2654TIP3   OH229524   5.002   5.605   1.584 -0.3357  0.6710 -0.0857
 2654TIP3    H129525   4.925   5.661   1.575  0.0162  1.6018  2.0254
 2654TIP3    H229526   5.043   5.633   1.666 -0.1580 -2.7324  1.1637
 2655TIP3   OH229527   6.566   2.429   8.415  0.8397 -0.4197  0.7517
 2655TIP3    H129528   6.497   2.390   8.469  1.0097 -1.4061  0.2868
 2655TIP3    H229529   6.527   2.508   8.379 -0.6386 -1.7465 -0.7575
 2656TIP3   OH229530   3.764   4.372   1.263  0.6216 -0.2726 -0.2950
 2656TIP3    H129531   3.818   4.450   1.277  0.3697 -0.3275  1.0832
 2656TIP3    H229532   3.691   4.403   1.209 -0.2909  0.8460  1.4629
 2657TIP3   OH229533   2.223   5.674   2.193 -0.0831  0.3385 -0.0064
 2657TIP3    H129534   2.211   5.597   2.248 -0.4596  0.2365 -0.2277
 2657TIP3    H229535   2.150   5.731   2.216  0.5034  0.8725  0.5590
 2658TIP3   OH229536   4.246   5.072   7.200 -0.0712  0.1359  0.3588
 2658TIP3    H129537   4.335   5.104   7.216  0.3026 -1.3606  1.4604
 2658TIP3    H229538   4.224   5.023   7.279 -1.9479  0.5969  0.1493
 2659TIP3   OH229539   3.654   0.360   6.880  0.1525 -0.2138  0.3416
 2659TIP3    H129540   3.694   0.446   6.895  1.0650 -0.4596 -0.5646
 2659TIP3    H229541   3.560   0.378   6.874  0.3775  0.8106 -0.3728
 2660TIP3   OH229542   6.706   3.086   7.587  0.0843  0.3814 -0.1526
 2660TIP3    H129543   6.692   3.167   7.538  0.0377  0.4778  0.0203
 2660TIP3    H229544   6.792   3.054   7.557  0.0716  0.4588 -0.2702
 2661TIP3   OH229545   5.631   1.591   8.664  0.1122  0.0143 -0.1071
 2661TIP3    H129546   5.665   1.604   8.753  2.3342  0.4363 -0.9601
 2661TIP3    H229547   5.692   1.529   8.624 -0.7484 -0.0186 -1.3992
 2662TIP3   OH229548   5.727   2.823   8.447 -0.0001  0.3339  0.1965
 2662TIP3    H129549   5.650   2.866   8.483 -1.2016 -1.8710  0.3810
 2662TIP3    H229550   5.749   2.874   8.369 -1.2534  1.3574  0.4837
 2663TIP3   OH229551   3.844   5.306   6.889 -0.3598  0.0769 -0.5312
 2663TIP3    H129552   3.906   5.244   6.926 -1.5696 -1.1272 -0.4849
 2663TIP3    H229553   3.848   5.382   6.948 -0.4986 -0.8411  0.6905
 2664TIP3   OH229554   1.686   3.706   7.285 -0.3111  0.2000  0.3092
 2664TIP3    H129555   1.663   3.616   7.262  1.2167  0.0039 -0.5580
 2664TIP3    H229556   1.642   3.721   7.369 -1.3852 -1.0082 -0.0039
 2665TIP3   OH229557   2.254   3.689   7.833  0.1597 -0.0323 -0.4294
 2665TIP3    H129558   2.215   3.663   7.916  1.1038  0.2677  0.1272
 2665TIP3    H229559   2.341   3.721   7.857  0.2349  0.5829 -1.4689
 2666TIP3   OH229560   4.722   6.741   2.085  0.1521  0.0202 -0.3173
 2666TIP3    H129561   4.739   6.648   2.098 -3.5403 -1.1948 -2.6600
 2666TIP3    H229562   4.703   6.774   2.173  0.4875 -1.6948  0.4455
 2667TIP3   OH229563   2.509   5.509   7.656  0.0710  0.5497  0.0948
 2667TIP3    H129564   2.426   5.555   7.660  0.2857  0.8429  1.9826
 2667TIP3    H229565   2.521   5.473   7.744  2.0272  0.7076 -0.0615
 2668TIP3   OH229566   2.110   0.301   0.868  0.2291  0.1677  0.4435
 2668TIP3    H129567   2.125   0.362   0.941  0.2199  1.1235 -0.3359
 2668TIP3    H229568   2.015   0.290   0.866  0.2276  0.1561  0.5623
 2669TIP3   OH229569   0.451   4.105   1.789  0.5361  0.5088  0.5996
 2669TIP3    H129570   0.362   4.128   1.817  0.5029  1.8315 -0.4697
 2669TIP3    H229571   0.508   4.149   1.853  0.4366  0.8123  0.4797
 2670TIP3   OH229572   4.401   5.447   8.365  0.3846  0.1295 -0.1601
 2670TIP3    H129573   4.349   5.459   8.285  1.3861 -0.1956 -0.8713
 2670TIP3    H229574   4.341   5.403   8.425 -0.8705  1.6926 -0.1834
 2671TIP3   OH229575   6.761   1.824   0.917 -0.3705  0.7623  0.0588
 2671TIP3    H129576   6.797   1.870   0.841  0.0104  0.3219 -0.0336
 2671TIP3    H229577   6.667   1.842   0.913 -0.1258  2.2615  0.5295
 2672TIP3   OH229578   0.895   2.086   2.111 -0.0634  0.0637 -0.1802
 2672TIP3    H129579   0.953   2.012   2.125 -0.8679 -0.6699 -0.6787
 2672TIP3    H229580   0.815   2.064   2.160  0.4298  1.5484  1.4210
 2673TIP3   OH229581   3.716   5.800   6.942  0.0524 -0.2078  0.1513
 2673TIP3    H129582   3.689   5.892   6.946  1.6283  0.2780  0.3795
 2673TIP3    H229583   3.683   5.761   7.023 -2.1379 -0.3237 -0.7244
 2674TIP3   OH229584   2.655   6.292   6.832  0.0849 -0.2378 -0.0367
 2674TIP3    H129585   2.601   6.354   6.783 -1.0469 -0.0832  1.3412
 2674TIP3    H229586   2.705   6.245   6.765 -0.9039  0.4210 -1.2733
 2675TIP3   OH229587   6.134   4.003   1.242 -0.0336 -0.0466  0.1181
 2675TIP3    H129588   6.050   4.028   1.204 -0.5156 -1.2764  0.3206
 2675TIP3    H229589   6.122   4.014   1.336  0.0240 -0.2508  0.1492
 2676TIP3   OH229590   4.695   3.608   1.075 -0.0799  0.8888 -0.4792
 2676TIP3    H129591   4.672   3.699   1.089 -1.7204  0.5460 -0.7364
 2676TIP3    H229592   4.679   3.593   0.982 -1.4923 -0.0901 -0.0993
 2677TIP3   OH229593   4.141   4.849   2.508  0.4838  0.0399 -0.3150
 2677TIP3    H129594   4.173   4.810   2.427  0.5665  1.2208 -0.8652
 2677TIP3    H229595   4.173   4.791   2.577  0.1984 -1.1172 -1.1311
 2678TIP3   OH229596   3.905   4.203   0.924 -0.4569  0.0508  0.1491
 2678TIP3    H129597   3.818   4.180   0.956  0.6295 -2.0679  1.9812
 2678TIP3    H229598   3.898   4.201   0.829 -2.2052 -1.0441  0.2594
 2679TIP3   OH229599   0.885   5.502   7.669  0.2728  0.2362  0.2195
 2679TIP3    H129600   0.920   5.437   7.608 -1.3870  0.6155 -1.2336
 2679TIP3    H229601   0.895   5.463   7.755  0.4054 -1.4301 -0.5171
 2680TIP3   OH229602   0.946   5.316   7.469 -0.3788 -0.4475  0.2081
 2680TIP3    H129603   1.010   5.271   7.414  0.2048 -0.0447  0.5545
 2680TIP3    H229604   0.873   5.335   7.410  0.8474  1.3030 -0.8209
 2681TIP3   OH229605   3.726   5.177   7.295 -0.3325 -0.0901 -0.3742
 2681TIP3    H129606   3.724   5.089   7.259  0.5553 -0.1805 -0.2281
 2681TIP3    H229607   3.643   5.216   7.268 -0.3583 -0.6742 -1.1785
 2682TIP3   OH229608   4.723   2.752   7.213 -0.4056 -0.3171  0.1143
 2682TIP3    H129609   4.785   2.749   7.287  0.3706  0.0637 -0.5080
 2682TIP3    H229610   4.727   2.664   7.176 -0.9765 -0.5794  0.6678
 2683TIP3   OH229611   5.691   0.988   1.328  0.2679  0.5362  0.4564
 2683TIP3    H129612   5.710   0.896   1.345  1.7407  0.3697 -1.7222
 2683TIP3    H229613   5.596   0.991   1.313  0.1729 -0.5676  0.7994
 2684TIP3   OH229614   3.469   5.229   0.473 -0.5843  0.5750  0.3125
 2684TIP3    H129615   3.563   5.241   0.485 -0.8948  3.1957  0.9048
 2684TIP3    H229616   3.451   5.143   0.510  1.7246 -0.5352 -0.9502
 2685TIP3   OH229617   3.136   6.380   8.100 -0.6539  0.3623  0.1930
 2685TIP3    H129618   3.072   6.437   8.056  0.5303  0.5403 -1.4053
 2685TIP3    H229619   3.198   6.358   8.031  0.4921 -0.5622  1.4888
 2686TIP3   OH229620   0.759   6.441   0.140  0.4997  0.2421 -0.2834
 2686TIP3    H129621   0.688   6.450   0.205  0.9984 -0.4442  0.3769
 2686TIP3    H229622   0.718   6.396   0.066  0.2033 -0.0363  0.0419
 2687TIP3   OH229623   0.513   3.446   7.292  0.2037 -0.1296 -0.3079
 2687TIP3    H129624   0.554   3.381   7.349  1.2867  0.3427 -0.5283
 2687TIP3    H229625   0.510   3.404   7.206  1.0502  0.1567 -0.4857
 2688TIP3   OH229626   3.253   2.845   1.904  0.1563 -0.3434  0.9630
 2688TIP3    H129627   3.208   2.788   1.841  1.5005 -0.0455 -0.3425
 2688TIP3    H229628   3.343   2.812   1.906  0.4773  0.5253  1.6783
 2689TIP3   OH229629   1.628   2.291   7.689 -0.2562  0.0476  0.2772
 2689TIP3    H129630   1.584   2.349   7.625  0.5984  1.4412  0.9010
 2689TIP3    H229631   1.680   2.351   7.743  0.3719 -1.2946  1.2004
 2690TIP3   OH229632   5.981   1.619   7.439 -0.4422 -0.2744 -0.6265
 2690TIP3    H129633   5.975   1.703   7.483  3.1889 -0.0204 -0.2813
 2690TIP3    H229634   6.074   1.595   7.446 -0.7635 -2.9070 -3.2432
 2691TIP3   OH229635   1.585   3.634   7.817 -0.8228 -0.2745 -0.4076
 2691TIP3    H129636   1.581   3.577   7.740 -1.6478  0.9232 -1.2897
 2691TIP3    H229637   1.640   3.707   7.790 -0.3987 -0.2732  0.4507
 2692TIP3   OH229638   6.087   2.371   1.503  0.2429 -0.0337 -0.1409
 2692TIP3    H129639   6.145   2.347   1.576  0.7183  1.5028  0.0237
 2692TIP3    H229640   6.015   2.419   1.544  0.2644  0.4207 -0.6298
 2693TIP3   OH229641   2.045   0.507   0.585  0.4474 -0.0098 -0.3727
 2693TIP3    H129642   2.053   0.414   0.566  2.6070  0.2115 -0.7663
 2693TIP3    H229643   1.987   0.541   0.516 -2.9250 -1.4585  1.4651
 2694TIP3   OH229644   4.189   2.612   1.338 -0.3167 -0.2910  0.5127
 2694TIP3    H129645   4.100   2.630   1.310 -0.9403  2.1577  3.4353
 2694TIP3    H229646   4.180   2.548   1.409  0.2446 -0.1080  0.7564
 2695TIP3   OH229647   3.499   1.278   0.724  0.2346 -0.2104  0.0659
 2695TIP3    H129648   3.592   1.298   0.730  0.3829 -0.9253  0.2466
 2695TIP3    H229649   3.457   1.341   0.783  0.5179  0.6320 -0.6247
 2696TIP3   OH229650   6.428   6.435   0.473  0.0842 -0.5367 -0.1907
 2696TIP3    H129651   6.436   6.384   0.392 -0.9170 -0.9363 -0.0599
 2696TIP3    H229652   6.353   6.492   0.458 -0.3282 -0.8604  0.5753
 2697TIP3   OH229653   3.722   4.744   6.299 -0.1385 -0.0035  0.1532
 2697TIP3    H129654   3.752   4.826   6.338 -1.1427  0.4114  0.0953
 2697TIP3    H229655   3.760   4.745   6.211  1.7012 -0.6944  0.8921
 2698TIP3   OH229656   4.880   1.366   5.703  0.0384 -0.0363 -0.3464
 2698TIP3    H129657   4.787   1.379   5.685  0.0403 -1.6256 -1.6842
 2698TIP3    H229658   4.883   1.334   5.793 -0.7584 -0.4574 -0.4636
 2699TIP3   OH229659   3.424   6.616   7.465  0.2067 -0.1658  0.1629
 2699TIP3    H129660   3.411   6.529   7.430  0.5711 -0.1621  0.0107
 2699TIP3    H229661   3.516   6.617   7.493 -0.4448 -0.6882  2.5603
 2700TIP3   OH229662   6.520   1.034   8.181  0.3938  0.2590 -0.0625
 2700TIP3    H129663   6.526   1.034   8.086  0.0486 -0.0202 -0.0873
 2700TIP3    H229664   6.479   0.950   8.203 -0.1499  0.6020  0.2807
 2701TIP3   OH229665   0.927   6.789   8.140 -0.0985 -0.1901  0.1666
 2701TIP3    H129666   0.900   6.880   8.131 -1.0535 -0.6331 -2.0935
 2701TIP3    H229667   0.912   6.768   8.232 -0.3513  1.7571  0.6064
 2702TIP3   OH229668   3.841   4.198   7.274 -0.0751 -0.4760 -0.2485
 2702TIP3    H129669   3.908   4.208   7.341 -0.6559  0.4797  0.2252
 2702TIP3    H229670   3.834   4.104   7.260  1.4021 -0.5897 -0.3721
 2703TIP3   OH229671   4.343   2.018   6.774  0.4502 -0.0068  0.0385
 2703TIP3    H129672   4.377   2.005   6.685  0.2694 -1.1772  0.1278
 2703TIP3    H229673   4.321   2.111   6.778  1.5969  0.3210 -0.7379
 2704TIP3   OH229674   0.590   1.990   7.484 -0.1382  0.0609  0.2035
 2704TIP3    H129675   0.530   2.052   7.526  1.1723  1.1372  0.5678
 2704TIP3    H229676   0.646   2.045   7.429  1.1592 -0.7704  0.6576
 2705TIP3   OH229677   2.986   2.244   1.336 -0.2284  0.0498 -0.3940
 2705TIP3    H129678   3.006   2.181   1.404  0.2124  0.9167  0.3085
 2705TIP3    H229679   2.891   2.240   1.325 -0.1557 -1.0514 -0.6909
 2706TIP3   OH229680   2.791   6.348   7.273 -0.1038  0.3035 -0.0253
 2706TIP3    H129681   2.710   6.318   7.230 -0.8859  3.0647 -0.6817
 2706TIP3    H229682   2.808   6.281   7.340 -4.6890  0.9877  2.2644
 2707TIP3   OH229683   3.684   6.456   0.490 -0.2508  0.0500 -0.1656
 2707TIP3    H129684   3.608   6.458   0.432  0.4539  0.1011 -1.1217
 2707TIP3    H229685   3.739   6.528   0.458  0.3660 -0.2217  0.2771
 2708TIP3   OH229686   1.887   6.534   7.869 -0.0588 -0.0632  0.7168
 2708TIP3    H129687   1.820   6.485   7.821 -0.1176  0.6816  0.0287
 2708TIP3    H229688   1.904   6.611   7.815  1.8153 -0.5387  0.5552
 2709TIP3   OH229689   1.135   0.230   7.972 -0.1154  0.3213  0.2540
 2709TIP3    H129690   1.222   0.270   7.971  0.0108  0.0397 -0.1974
 2709TIP3    H229691   1.149   0.140   7.945 -0.7177  0.6350 -1.2160
 2710TIP3   OH229692   4.581   2.219   8.805 -0.0122 -0.4561  0.3043
 2710TIP3    H129693   4.606   2.293   8.859 -1.2615  0.2692 -0.0926
 2710TIP3    H229694   4.619   2.238   8.719 -0.2628 -0.3149  0.2246
 2711TIP3   OH229695   5.173   2.072   8.610  0.4880 -0.1304  0.4007
 2711TIP3    H129696   5.131   2.090   8.526 -0.7395  0.7676  1.1684
 2711TIP3    H229697   5.266   2.064   8.589  0.1744 -0.2357 -1.0741
 2712TIP3   OH229698   0.802   3.707   6.969 -1.0596  0.0181 -0.5636
 2712TIP3    H129699   0.790   3.614   6.987  1.9521 -0.1231  1.4807
 2712TIP3    H229700   0.895   3.723   6.985 -1.4681  3.4114 -0.7867
 2713TIP3   OH229701   6.223   2.235   0.169 -0.1640  0.0784 -0.5500
 2713TIP3    H129702   6.240   2.174   0.241 -0.3989  0.1147 -0.4626
 2713TIP3    H229703   6.188   2.314   0.212 -0.7392 -0.0675 -0.7397
 2714TIP3   OH229704   2.278   1.150   0.778  0.0521 -0.5462 -0.0218
 2714TIP3    H129705   2.324   1.201   0.845  0.5537 -1.7852  0.6077
 2714TIP3    H229706   2.189   1.186   0.779  0.4849  0.5858  0.1032
 2715TIP3   OH229707   1.025   5.102   0.342 -0.7312  0.8031  0.0759
 2715TIP3    H129708   1.093   5.041   0.371 -1.6778 -0.6386 -0.6025
 2715TIP3    H229709   1.053   5.129   0.254  0.1031  2.0198  0.6968
 2716TIP3   OH229710   3.694   6.586   7.569 -0.0205  1.0619 -0.2877
 2716TIP3    H129711   3.669   6.493   7.573  0.4746  0.8981 -0.9295
 2716TIP3    H229712   3.760   6.596   7.637 -1.5604  1.4273  1.2138
 2717TIP3   OH229713   5.552   6.800   0.767 -0.0361  0.0037  0.7234
 2717TIP3    H129714   5.475   6.784   0.821 -0.9459  1.4560 -0.0596
 2717TIP3    H229715   5.522   6.784   0.677  1.1831 -1.4584  0.5338
 2718TIP3   OH229716   1.449   1.655   1.858  0.5651 -0.6590  0.4315
 2718TIP3    H129717   1.407   1.709   1.791 -1.7603 -0.4086  1.9666
 2718TIP3    H229718   1.543   1.665   1.842  0.1204  0.6189 -1.7882
 2719TIP3   OH229719   6.253   1.081   1.304  0.1499  0.5110  0.2887
 2719TIP3    H129720   6.243   0.990   1.331 -0.8508  0.4320 -0.3157
 2719TIP3    H229721   6.210   1.087   1.219  1.8283  1.1419 -0.5553
 2720TIP3   OH229722   2.539   4.527   0.184 -0.2862 -0.1652  0.3062
 2720TIP3    H129723   2.536   4.596   0.117  0.1276 -0.0707  0.3858
 2720TIP3    H229724   2.615   4.547   0.237 -0.7378 -0.1179  0.9504
 2721TIP3   OH229725   3.358   0.079   0.493 -0.0407  0.1234  0.6547
 2721TIP3    H129726   3.279   0.057   0.542  1.1004 -1.7041  1.8066
 2721TIP3    H229727   3.423   0.100   0.560  0.1197  3.0729 -0.3133
 2722TIP3   OH229728   1.070   6.824   0.857  0.1453  0.2689  0.0285
 2722TIP3    H129729   1.029   6.739   0.868 -1.1183  0.8280 -0.1513
 2722TIP3    H229730   1.019   6.883   0.912  1.0079  0.9145  0.1642
 2723TIP3   OH229731   1.358   0.307   0.962  0.2296 -0.1587  0.0870
 2723TIP3    H129732   1.370   0.344   0.874 -1.2120 -2.5766 -1.2618
 2723TIP3    H229733   1.433   0.337   1.011  0.5384  2.1915 -1.6432
 2724TIP3   OH229734   2.174   0.893   7.178  0.2106 -0.2380 -0.7146
 2724TIP3    H129735   2.116   0.843   7.121 -0.2294  0.1167 -0.5844
 2724TIP3    H229736   2.206   0.829   7.242  0.6449 -0.6180 -1.2988
 2725TIP3   OH229737   6.232   6.288   8.792  0.4018  0.5910  0.2611
 2725TIP3    H129738   6.182   6.308   8.712  0.8652  1.4420  0.1718
 2725TIP3    H229739   6.234   6.370   8.840 -1.6461 -0.3955  2.1844
 2726TIP3   OH229740   6.535   3.189   1.528 -0.3589  0.0683 -0.1629
 2726TIP3    H129741   6.591   3.129   1.480  0.6959  0.9924 -0.1088
 2726TIP3    H229742   6.452   3.141   1.538  0.6786 -1.6720  0.5403
 2727TIP3   OH229743   2.800   5.341   1.847 -0.9730  0.3083 -0.0369
 2727TIP3    H129744   2.828   5.250   1.836  0.2072  0.7032 -0.4017
 2727TIP3    H229745   2.712   5.343   1.809 -0.6910 -0.5012 -0.7732
 2728TIP3   OH229746   3.686   4.651   0.387  0.7729  0.2279  0.3277
 2728TIP3    H129747   3.733   4.706   0.324  0.1258  0.2540 -0.1374
 2728TIP3    H229748   3.746   4.579   0.405  0.9127  0.1514 -0.4218
 2729TIP3   OH229749   4.791   2.878   8.297  0.8930  1.1223  0.7670
 2729TIP3    H129750   4.716   2.899   8.240  1.7321  0.4572 -0.6265
 2729TIP3    H229751   4.787   2.945   8.366 -0.5038  1.5963  0.2743
 2730TIP3   OH229752   1.485   1.496   0.192 -0.2216 -0.6552  0.6101
 2730TIP3    H129753   1.395   1.505   0.223 -0.8492 -2.8421 -0.3483
 2730TIP3    H229754   1.477   1.446   0.111  1.6901  1.1391 -0.8171
 2731TIP3   OH229755   6.708   3.504   6.388  0.2000  0.1488  0.4994
 2731TIP3    H129756   6.665   3.578   6.432 -2.7418 -0.6208 -0.8225
 2731TIP3    H229757   6.653   3.428   6.410 -0.8296 -0.4648 -3.3981
 2732TIP3   OH229758   5.559   1.359   0.799 -0.2028 -0.3077 -0.0829
 2732TIP3    H129759   5.580   1.414   0.724  0.0989  0.6322  0.6712
 2732TIP3    H229760   5.597   1.405   0.874 -1.1465 -0.8458  0.7480
 2733TIP3   OH229761   4.859   3.944   0.475 -0.5782  0.0861 -0.3203
 2733TIP3    H129762   4.771   3.980   0.481 -2.5348 -4.0896 -0.7493
 2733TIP3    H229763   4.877   3.940   0.381 -0.5511 -0.3495 -0.2993
 2734TIP3   OH229764   1.834   5.295   0.483 -0.5981  0.0216  0.1159
 2734TIP3    H129765   1.754   5.334   0.517 -0.1071  2.1199 -0.9106
 2734TIP3    H229766   1.898   5.367   0.486  0.9869 -1.3314  0.0773
 2735TIP3   OH229767   5.279   0.585   7.654  0.2863 -0.3385  0.6275
 2735TIP3    H129768   5.252   0.551   7.739 -2.5992 -0.0508 -0.0693
 2735TIP3    H229769   5.278   0.680   7.665 -0.9243 -0.2710  0.0978
 2736TIP3   OH229770   4.749   1.342   7.955 -0.0005 -0.2956 -0.4195
 2736TIP3    H129771   4.807   1.286   7.903  1.0588  0.8598 -0.5408
 2736TIP3    H229772   4.735   1.420   7.900 -0.0008  0.3317  0.4524
 2737TIP3   OH229773   2.258   6.443   2.242  0.1527 -0.3583  0.4146
 2737TIP3    H129774   2.296   6.357   2.252 -1.0590 -1.2761 -1.9513
 2737TIP3    H229775   2.169   6.426   2.209  0.3107  1.7578 -1.3490
 2738TIP3   OH229776   0.822   3.703   0.330 -0.4637 -0.0741  0.2717
 2738TIP3    H129777   0.766   3.753   0.389 -0.0494 -0.3458  0.9101
 2738TIP3    H229778   0.900   3.684   0.382  1.7353  3.0503 -1.5353
 2739TIP3   OH229779   2.012   2.685   1.776 -0.2899  0.1602 -0.0493
 2739TIP3    H129780   2.041   2.762   1.728  0.9552 -0.6056 -0.6105
 2739TIP3    H229781   1.968   2.631   1.710 -1.0736  0.3443  0.3187
 2740TIP3   OH229782   1.423   5.826   1.097 -0.0319  0.4656 -0.3965
 2740TIP3    H129783   1.356   5.767   1.061 -1.0123  0.5774  1.1462
 2740TIP3    H229784   1.504   5.775   1.092 -0.4740 -0.2110 -1.0093
 2741TIP3   OH229785   3.599   6.361   0.240 -0.1593 -0.4416 -0.2344
 2741TIP3    H129786   3.570   6.276   0.208  0.4881 -0.8711  0.2832
 2741TIP3    H229787   3.528   6.391   0.297  0.3963 -1.5255  1.1037
 2742TIP3   OH229788   0.190   1.817   7.815 -0.2763 -0.2319 -0.7695
 2742TIP3    H129789   0.190   1.841   7.723  1.5275 -2.1280 -1.3450
 2742TIP3    H229790   0.156   1.895   7.860 -1.8708  0.4882 -3.0371
 2743TIP3   OH229791   6.513   4.426   8.033 -0.1609 -0.5118  0.4248
 2743TIP3    H129792   6.565   4.501   8.005 -0.4776  0.2246  1.7631
 2743TIP3    H229793   6.549   4.402   8.118 -0.0043 -1.9663 -0.0136
 2744TIP3   OH229794   5.217   0.159   6.982 -0.2755  0.3826 -0.5360
 2744TIP3    H129795   5.307   0.143   6.956 -0.3509 -2.6418  0.6190
 2744TIP3    H229796   5.167   0.156   6.900  0.2807 -2.0248 -0.8761
 2745TIP3   OH229797   1.824   2.517   0.545  0.2566  0.8362  0.2602
 2745TIP3    H129798   1.912   2.554   0.542  0.6772 -0.0529  1.1569
 2745TIP3    H229799   1.790   2.529   0.456  2.0985 -0.7429 -0.7207
 2746TIP3   OH229800   4.007   6.482   0.567 -0.1191 -0.1342  0.1188
 2746TIP3    H129801   4.080   6.464   0.507  0.8428  0.6317  1.0139
 2746TIP3    H229802   3.946   6.536   0.515 -0.1513 -0.9272 -0.6918
 2747TIP3   OH229803   4.247   0.453   8.105 -0.6258  0.1085  0.0482
 2747TIP3    H129804   4.288   0.444   8.191 -0.9144  0.6188  0.2462
 2747TIP3    H229805   4.162   0.493   8.124 -0.4138  0.8477 -0.5413
 2748TIP3   OH229806   0.099   4.437   0.161 -0.3978  0.6541  0.3812
 2748TIP3    H129807   0.129   4.457   0.249 -1.8699 -0.1821  1.1245
 2748TIP3    H229808   0.071   4.521   0.125  1.1828  1.1702  0.2807
 2749TIP3   OH229809   4.468   2.535   1.651  0.4607  0.6960 -0.1294
 2749TIP3    H129810   4.557   2.519   1.681  0.0590 -0.4232  0.4989
 2749TIP3    H229811   4.460   2.482   1.572  0.7455  1.7883 -0.9131
 2750TIP3   OH229812   4.690   6.232   2.059  0.1247 -0.6925 -0.3568
 2750TIP3    H129813   4.725   6.254   1.972  0.0713 -1.3052 -0.5344
 2750TIP3    H229814   4.756   6.175   2.098  0.9230  0.8652  0.6629
 2751TIP3   OH229815   5.949   3.669   1.186 -0.4282  0.0784  0.0204
 2751TIP3    H129816   6.043   3.687   1.180 -0.2537 -1.1148 -1.5138
 2751TIP3    H229817   5.925   3.697   1.275  1.0586  1.7132 -0.0247
 2752TIP3   OH229818   3.599   3.079   0.811 -0.2035 -0.2426 -0.1643
 2752TIP3    H129819   3.650   3.157   0.833 -1.8254  0.8085  0.0410
 2752TIP3    H229820   3.582   3.086   0.717 -1.3431  0.3174  0.0585
 2753TIP3   OH229821   3.017   1.207   1.664 -0.1971  0.1272  0.1672
 2753TIP3    H129822   3.053   1.142   1.604 -0.3129 -1.1378  1.4089
 2753TIP3    H229823   3.089   1.226   1.725 -0.2020  1.0938 -0.1117
 2754TIP3   OH229824   4.976   3.596   8.028  0.3262  0.1528  0.2236
 2754TIP3    H129825   4.950   3.504   8.042  2.3214 -0.4948 -0.1057
 2754TIP3    H229826   4.924   3.644   8.093 -1.7238 -1.0182 -0.4474
 2755TIP3   OH229827   0.060   5.520   7.612  0.0545 -0.0922  0.0507
 2755TIP3    H129828   0.059   5.609   7.648 -3.1397  0.2993 -0.7049
 2755TIP3    H229829   0.139   5.518   7.557  1.4267  1.4698  1.8294
 2756TIP3   OH229830   3.247   1.261   8.514 -0.7223  0.2690  0.4616
 2756TIP3    H129831   3.286   1.346   8.495  0.2805 -0.8444 -3.4474
 2756TIP3    H229832   3.322   1.205   8.534 -0.9815 -0.3734 -0.3069
 2757TIP3   OH229833   6.687   2.404   7.681  0.1393  0.3288  0.1268
 2757TIP3    H129834   6.595   2.388   7.703 -0.2232  1.9386 -0.0669
 2757TIP3    H229835   6.697   2.369   7.592 -1.2101  2.9274 -1.1745
 2758TIP3   OH229836   6.316   5.815   8.647 -0.0793 -0.1410  0.4909
 2758TIP3    H129837   6.228   5.842   8.674 -0.8852 -2.3403  0.2816
 2758TIP3    H229838   6.305   5.785   8.557  1.2719  1.1182 -0.1403
 2759TIP3   OH229839   1.904   2.354   1.835  0.3315  0.1141 -0.0820
 2759TIP3    H129840   1.950   2.402   1.767 -0.8771 -0.0249 -1.0249
 2759TIP3    H229841   1.847   2.294   1.788 -1.3275  0.7662  1.0166
 2760TIP3   OH229842   0.176   0.328   0.528 -0.3052 -0.8029 -0.1626
 2760TIP3    H129843   0.264   0.310   0.562  1.0292  0.0427 -2.9246
 2760TIP3    H229844   0.119   0.318   0.605  2.0256 -2.3710  1.5214
 2761TIP3   OH229845   2.388   3.631   0.192 -0.2735  0.2700  0.1472
 2761TIP3    H129846   2.458   3.597   0.137 -0.7841 -0.0250 -0.3297
 2761TIP3    H229847   2.389   3.726   0.177  0.6162  0.3856  0.8528
 2762TIP3   OH229848   2.669   5.878   2.505  0.3615 -0.1901  0.2758
 2762TIP3    H129849   2.619   5.804   2.470 -0.5484  0.7556 -0.4907
 2762TIP3    H229850   2.633   5.954   2.460  0.7410  0.8120  1.6257
 2763TIP3   OH229851   1.897   5.344   7.340 -0.4053  0.4642  0.2568
 2763TIP3    H129852   1.984   5.382   7.356  0.7907 -1.1061 -1.9462
 2763TIP3    H229853   1.857   5.401   7.274  0.0715 -0.2367 -0.6651
 2764TIP3   OH229854   2.200   0.510   2.087  0.4432  0.0215 -0.6811
 2764TIP3    H129855   2.184   0.435   2.144  0.1469 -0.6574 -1.6413
 2764TIP3    H229856   2.177   0.586   2.140  0.6313 -0.5646  0.2619
 2765TIP3   OH229857   4.676   0.112   7.954  0.0511 -0.2935 -0.7329
 2765TIP3    H129858   4.767   0.141   7.951 -0.0377  0.0685 -0.0356
 2765TIP3    H229859   4.644   0.139   8.040 -0.5053 -1.0577 -0.6854
 2766TIP3   OH229860   1.002   4.026   0.870  0.0780 -0.3043 -0.3219
 2766TIP3    H129861   0.925   4.069   0.907  0.5092 -0.1968  0.4881
 2766TIP3    H229862   0.975   3.935   0.858 -0.5539 -0.0131 -1.2066
 2767TIP3   OH229863   6.274   4.570   8.294  0.3580  0.2855 -0.6933
 2767TIP3    H129864   6.209   4.505   8.270  0.3612  0.2937 -0.7239
 2767TIP3    H229865   6.357   4.523   8.292  0.5252  0.6150 -2.0285
 2768TIP3   OH229866   1.993   0.630   8.695 -0.3099  0.1039 -0.0660
 2768TIP3    H129867   2.075   0.672   8.722 -0.7276  0.6587  0.3664
 2768TIP3    H229868   1.937   0.703   8.669 -1.2714 -0.1210  1.2961
 2769TIP3   OH229869   6.336   5.976   6.809 -0.3635 -0.3331  0.5860
 2769TIP3    H129870   6.280   5.901   6.789  1.9606 -1.6250 -1.6086
 2769TIP3    H229871   6.291   6.051   6.768 -1.7994 -0.8174  1.2242
 2770TIP3   OH229872   1.033   3.774   1.575  0.3156 -0.0508 -0.3675
 2770TIP3    H129873   0.964   3.838   1.559 -0.8338 -1.3303 -0.6787
 2770TIP3    H229874   1.068   3.798   1.661 -0.6550  0.4884 -0.1082
 2771TIP3   OH229875   2.971   2.507   1.035 -0.3982 -0.1928 -0.2541
 2771TIP3    H129876   2.892   2.464   1.003 -0.2872  0.2231 -1.1174
 2771TIP3    H229877   2.939   2.584   1.082 -0.5244 -0.1815 -0.3556
 2772TIP3   OH229878   6.474   3.422   1.350  0.1480 -0.2392  0.5958
 2772TIP3    H129879   6.497   3.342   1.398 -2.8194 -2.0268 -0.6782
 2772TIP3    H229880   6.434   3.479   1.416 -1.0164 -1.3637  0.9060
 2773TIP3   OH229881   6.415   1.368   3.003  0.7621  0.0994  0.1213
 2773TIP3    H129882   6.449   1.279   3.016  4.2643  1.1232 -1.0092
 2773TIP3    H229883   6.459   1.399   2.924 -3.5617  1.4957 -2.0293
 2774TIP3   OH229884   5.452   4.307   1.328 -0.5807  0.1443  0.5528
 2774TIP3    H129885   5.535   4.288   1.370 -0.8820 -0.6250  0.8166
 2774TIP3    H229886   5.464   4.394   1.288 -0.2584  0.8524  2.1185
 2775TIP3   OH229887   0.853   3.861   1.981  0.0434  0.6428 -0.7766
 2775TIP3    H129888   0.758   3.850   1.974  0.0657  0.3346 -0.6099
 2775TIP3    H229889   0.865   3.904   2.066  0.1701 -0.9822  0.0645
 2776TIP3   OH229890   1.367   0.667   0.069 -0.2264 -0.3702 -0.1354
 2776TIP3    H129891   1.291   0.689   0.123  0.3781  1.4847  0.0558
 2776TIP3    H229892   1.370   0.572   0.068 -1.3723 -0.4625  1.5189
 2777TIP3   OH229893   6.303   3.131   1.791  0.1171 -0.3442  0.3284
 2777TIP3    H129894   6.241   3.185   1.840  0.9885  1.2438 -0.2503
 2777TIP3    H229895   6.378   3.121   1.849  1.4121  2.0623 -0.8116
 2778TIP3   OH229896   4.716   2.425   1.838 -0.2752 -0.4600 -0.4840
 2778TIP3    H129897   4.651   2.358   1.858 -0.5586  0.0643  0.4136
 2778TIP3    H229898   4.685   2.503   1.884  0.8943 -0.1638 -0.1659
 2779TIP3   OH229899   5.330   3.924   6.742 -0.1619 -0.0050 -0.0875
 2779TIP3    H129900   5.410   3.874   6.753 -0.5108 -0.5464  0.0214
 2779TIP3    H229901   5.278   3.904   6.820  0.0279  1.1645  0.3574
 2780TIP3   OH229902   5.412   6.678   1.315 -0.0069 -0.1277  0.0913
 2780TIP3    H129903   5.419   6.730   1.394  2.0570  0.6943 -0.5550
 2780TIP3    H229904   5.411   6.587   1.346  1.1115  0.1671  1.0585
 2781TIP3   OH229905   1.026   0.938   0.210  0.1650  0.1516 -0.0271
 2781TIP3    H129906   0.949   0.992   0.193 -0.6721 -0.5839  1.2889
 2781TIP3    H229907   1.058   0.968   0.296 -0.1724 -1.2479  0.6145
 2782TIP3   OH229908   2.733   4.897   0.372 -0.1317 -0.0677  0.0975
 2782TIP3    H129909   2.660   4.907   0.433 -1.6070 -1.2540 -1.3946
 2782TIP3    H229910   2.722   4.970   0.310  0.8272  0.6011  0.6899
 2783TIP3   OH229911   3.335   1.867   0.065  0.3018  0.2270 -0.1029
 2783TIP3    H129912   3.286   1.842   0.143  0.5155 -0.5092 -0.2008
 2783TIP3    H229913   3.313   1.800   0.000  0.4751  0.5804 -0.5369
 2784TIP3   OH229914   2.794   6.117   7.442 -0.1022 -0.0866 -0.2381
 2784TIP3    H129915   2.772   6.038   7.391  1.3906  0.0934 -1.2299
 2784TIP3    H229916   2.887   6.107   7.462 -0.6094 -0.1333  2.5052
 2785TIP3   OH229917   1.132   2.179   1.548  0.1600  0.1506 -0.5290
 2785TIP3    H129918   1.095   2.134   1.624 -2.1961 -0.3904 -1.9100
 2785TIP3    H229919   1.225   2.157   1.550 -0.2132 -1.4701  1.0797
 2786TIP3   OH229920   5.226   6.122   7.633 -0.4227  0.2782 -0.2512
 2786TIP3    H129921   5.207   6.198   7.578  0.7930  0.7119 -0.1008
 2786TIP3    H229922   5.220   6.155   7.723  0.8190  0.4093 -0.1926
 2787TIP3   OH229923   2.956   1.745   7.387  0.3345  0.6378  0.1346
 2787TIP3    H129924   3.006   1.773   7.310  0.3387  0.5717  0.1136
 2787TIP3    H229925   2.918   1.826   7.421  2.0878  1.0221  1.3111
 2788TIP3   OH229926   4.638   2.666   0.141 -0.0978  0.2329  0.2004
 2788TIP3    H129927   4.679   2.580   0.133  0.4040  0.3192  1.6513
 2788TIP3    H229928   4.678   2.718   0.072  0.1951 -0.4683 -0.1699
 2789TIP3   OH229929   5.574   6.374   0.887  0.0284  0.1450  0.4473
 2789TIP3    H129930   5.520   6.438   0.840 -0.5142 -0.7374 -0.1715
 2789TIP3    H229931   5.577   6.406   0.977  0.0432  1.2109  0.0721
 2790TIP3   OH229932   6.157   2.293   8.725 -0.2999  0.1931 -0.0594
 2790TIP3    H129933   6.074   2.292   8.772 -0.1105 -2.7226  0.3779
 2790TIP3    H229934   6.220   2.257   8.787 -0.0057 -3.7121 -2.3409
 2791TIP3   OH229935   4.805   1.358   6.661 -0.2286  0.4558  0.0279
 2791TIP3    H129936   4.844   1.407   6.589  0.2373 -0.4219 -0.3298
 2791TIP3    H229937   4.878   1.340   6.721 -0.3517  0.0192  0.0499
 2792TIP3   OH229938   3.652   2.519   7.526  0.3656 -0.0158  0.2337
 2792TIP3    H129939   3.643   2.443   7.583 -0.1890  0.2073  0.4490
 2792TIP3    H229940   3.743   2.517   7.498  2.0035  2.2449  4.4816
 2793TIP3   OH229941   0.915   6.306   0.309 -0.2471  0.6729  0.1164
 2793TIP3    H129942   0.842   6.284   0.251 -2.3311  0.4526  2.6337
 2793TIP3    H229943   0.982   6.240   0.290 -0.2867  1.3381 -2.8021
 2794TIP3   OH229944   1.589   4.986   1.643 -0.0846  0.2987  0.6392
 2794TIP3    H129945   1.510   4.951   1.683 -0.2408 -0.6993 -0.5140
 2794TIP3    H229946   1.567   5.076   1.620 -0.7141  0.1762  0.7627
 2795TIP3   OH229947   2.397   1.742   1.292  0.3420 -0.4133  0.0168
 2795TIP3    H129948   2.429   1.796   1.364 -2.9454  0.3913  1.0873
 2795TIP3    H229949   2.308   1.717   1.319  0.1668 -2.8223 -2.3695
 2796TIP3   OH229950   3.865   6.682   0.457  0.5344 -0.6960 -0.6852
 2796TIP3    H129951   3.930   6.752   0.451  0.6048 -0.8729 -2.9301
 2796TIP3    H229952   3.782   6.728   0.465  0.7582 -0.4250  0.2008
 2797TIP3   OH229953   0.231   1.116   0.089  0.6304  0.2559 -0.4757
 2797TIP3    H129954   0.220   1.022   0.076  0.1035  0.4133 -1.1857
 2797TIP3    H229955   0.162   1.156   0.036  0.5632  1.0298  0.1742
 2798TIP3   OH229956   5.452   5.372   0.659 -0.1872  0.3092  0.8892
 2798TIP3    H129957   5.450   5.371   0.563 -2.1332  4.0684  0.6633
 2798TIP3    H229958   5.544   5.359   0.682  0.1221 -2.1587 -1.3326
 2799TIP3   OH229959   5.243   4.307   7.737  0.2034 -0.3747 -0.0601
 2799TIP3    H129960   5.246   4.337   7.647  0.4764  1.5675  0.5536
 2799TIP3    H229961   5.312   4.355   7.782 -0.5414 -0.5751  1.3906
 2800TIP3   OH229962   2.055   4.051   1.478  0.6003 -0.6413  0.2555
 2800TIP3    H129963   1.969   4.060   1.518  0.8886 -0.1603  0.7849
 2800TIP3    H229964   2.109   4.116   1.522  0.4144  1.4985 -2.3785
 2801TIP3   OH229965   5.523   5.856   2.406 -0.5011  0.3125 -0.4484
 2801TIP3    H129966   5.567   5.772   2.396  0.2228  0.6830 -0.4091
 2801TIP3    H229967   5.464   5.861   2.330 -0.3240 -0.0928 -0.6166
 2802TIP3   OH229968   3.560   0.663   7.710 -0.5894 -0.2560 -0.0581
 2802TIP3    H129969   3.650   0.633   7.721 -0.9001 -1.5415 -0.8289
 2802TIP3    H229970   3.508   0.583   7.708 -2.0310  0.4975  2.4338
 2803TIP3   OH229971   3.740   2.340   0.135  0.1171  0.2911  0.3863
 2803TIP3    H129972   3.731   2.322   0.228  1.0709  1.4071  0.7188
 2803TIP3    H229973   3.775   2.429   0.131  0.3649  0.1570 -1.0289
 2804TIP3   OH229974   5.772   6.309   0.040  0.1834  0.9947 -0.3567
 2804TIP3    H129975   5.733   6.281   0.123 -0.4442 -0.5396 -1.1271
 2804TIP3    H229976   5.707   6.369   0.003  0.3859  1.5459  0.1559
 2805TIP3   OH229977   2.275   0.901   0.619 -1.1292 -0.2098 -0.1843
 2805TIP3    H129978   2.353   0.880   0.566  0.5416 -0.2277  2.1123
 2805TIP3    H229979   2.240   0.980   0.580  0.8547  0.5617 -0.5430
 2806TIP3   OH229980   4.325   2.964   0.023  0.1655  0.2942 -0.2460
 2806TIP3    H129981   4.336   2.901   0.094 -1.1552 -0.4109 -0.6346
 2806TIP3    H229982   4.362   2.920  -0.054  3.0396  1.6686  0.2286
 2807TIP3   OH229983   3.236   1.651   1.151  0.2926  0.0712  0.2789
 2807TIP3    H129984   3.240   1.666   1.057 -2.0033 -1.2495 -0.0825
 2807TIP3    H229985   3.328   1.640   1.177  0.9135 -0.7920 -2.0126
 2808TIP3   OH229986   2.241   1.420   1.822  0.0407  0.1635 -0.5636
 2808TIP3    H129987   2.242   1.462   1.736 -0.1813 -0.1153 -0.7037
 2808TIP3    H229988   2.333   1.417   1.848  0.1068  0.2713 -0.7801
 2809TIP3   OH229989   1.542   6.537   1.591  0.2283 -0.5029  0.8513
 2809TIP3    H129990   1.538   6.495   1.677 -0.4125 -0.1978  0.9836
 2809TIP3    H229991   1.451   6.563   1.574  0.7100  1.5737  1.1638
 2810TIP3   OH229992   1.862   5.992   7.720 -0.0244  0.4541  0.0089
 2810TIP3    H129993   1.957   5.991   7.733 -0.0985  1.0356  0.6988
 2810TIP3    H229994   1.831   6.059   7.781 -0.9910 -0.4965  0.5951
 2811TIP3   OH229995   3.255   3.725   8.048 -0.0727  0.2221  0.0620
 2811TIP3    H129996   3.335   3.673   8.052 -0.3617 -0.2363 -0.0413
 2811TIP3    H229997   3.185   3.663   8.072 -0.5336  0.2986 -1.0443
 2812TIP3   OH229998   2.935   6.758   7.087 -0.1217 -0.5178 -0.4418
 2812TIP3    H129999   2.931   6.720   7.175 -0.7591 -0.2220 -0.3337
 2812TIP3    H230000   2.865   6.824   7.087  0.3667  0.0064 -0.9240
 2813TIP3   OH230001   4.533   6.380   1.611 -0.6664 -0.2010  0.1436
 2813TIP3    H130002   4.579   6.394   1.528  0.2666 -1.6992  0.3900
 2813TIP3    H230003   4.440   6.380   1.586 -0.4655  0.6943 -0.6821
 2814TIP3   OH230004   6.802   5.965   6.442 -0.7907  0.5373  0.3654
 2814TIP3    H130005   6.783   6.058   6.437 -3.6628 -0.0191 -0.5662
 2814TIP3    H230006   6.719   5.922   6.422  0.1374 -2.2427  1.9337
 2815TIP3   OH230007   3.601   0.214   1.297  0.6484  0.1092  0.1246
 2815TIP3    H130008   3.599   0.165   1.214  1.5581  0.5680 -0.1780
 2815TIP3    H230009   3.513   0.252   1.304  0.2553 -0.7217 -0.1400
 2816TIP3   OH230010   3.398   0.235   0.911  0.2205 -1.0994 -0.1141
 2816TIP3    H130011   3.406   0.278   0.996 -0.4932 -1.3557  0.0846
 2816TIP3    H230012   3.370   0.146   0.931  0.4510 -1.2860 -0.5964
 2817TIP3   OH230013   1.627   4.161   7.779  0.2042  0.0792 -0.3841
 2817TIP3    H130014   1.551   4.213   7.752  1.4542  2.0786 -0.3041
 2817TIP3    H230015   1.646   4.190   7.868 -0.4187 -2.2862  0.6055
 2818TIP3   OH230016   3.569   3.255   7.343  0.7944 -0.4925 -0.1692
 2818TIP3    H130017   3.506   3.248   7.415 -0.8582 -2.0828 -1.6925
 2818TIP3    H230018   3.546   3.336   7.298 -0.5964 -1.3383 -1.0470
 2819TIP3   OH230019   0.073   0.417   1.263  0.2731  0.2762 -0.1368
 2819TIP3    H130020   0.156   0.390   1.302  0.4742  0.9008 -0.1190
 2819TIP3    H230021   0.098   0.462   1.182 -0.1299 -0.8564 -0.9096
 2820TIP3   OH230022   4.770   6.478   2.093  0.1833 -0.4162 -0.0819
 2820TIP3    H130023   4.840   6.421   2.124 -0.2718 -2.1676 -2.0532
 2820TIP3    H230024   4.701   6.419   2.064 -1.1913  1.2047 -0.3117
 2821TIP3   OH230025   3.690   0.119   1.020  0.6384  0.0079 -0.0988
 2821TIP3    H130026   3.731   0.186   0.965  1.1231 -1.4555 -1.5811
 2821TIP3    H230027   3.763   0.075   1.064  0.3854 -0.1626  0.1555
 2822TIP3   OH230028   5.051   3.691   1.866  0.0230 -0.2597  0.4943
 2822TIP3    H130029   5.035   3.610   1.818  2.3318  0.0509 -0.9663
 2822TIP3    H230030   5.079   3.754   1.799 -1.3219  1.6675  1.6368
 2823TIP3   OH230031   3.597   1.814   7.054  0.0209  0.1828 -1.0587
 2823TIP3    H130032   3.510   1.824   7.016 -0.1861 -0.0897 -0.6642
 2823TIP3    H230033   3.657   1.817   6.979 -0.4099 -0.7928 -1.4576
 2824TIP3   OH230034   4.546   0.452   7.686 -0.4005  0.0154 -0.0511
 2824TIP3    H130035   4.567   0.506   7.762 -1.5317  1.2026 -0.5473
 2824TIP3    H230036   4.632   0.429   7.649  0.1400  2.4120 -0.4511
 2825TIP3   OH230037   5.476   1.501   1.080 -0.0931  0.1846 -0.1266
 2825TIP3    H130038   5.490   1.412   1.113 -0.4982  0.2305  0.1773
 2825TIP3    H230039   5.381   1.512   1.079 -0.0410  0.7102  0.0983
 2826TIP3   OH230040   3.513   5.949   7.708  0.5439  0.0855 -0.2210
 2826TIP3    H130041   3.485   6.011   7.641  2.8280  1.3458 -0.1149
 2826TIP3    H230042   3.500   5.997   7.791  0.9540 -0.1354 -0.0274
 2827TIP3   OH230043   2.621   3.813   2.247  0.5859 -0.2596  0.4982
 2827TIP3    H130044   2.577   3.807   2.332  0.6876 -0.7323  0.5184
 2827TIP3    H230045   2.571   3.879   2.199  0.5905  0.0900  0.9585
 2828TIP3   OH230046   4.416   3.080   1.493  0.2164  0.1435  0.5306
 2828TIP3    H130047   4.400   2.987   1.509 -0.8062  0.3492  0.7268
 2828TIP3    H230048   4.491   3.101   1.549  0.1106 -0.4321  0.8975
 2829TIP3   OH230049   3.864   3.507   6.419  0.1732  0.5810 -0.2905
 2829TIP3    H130050   3.819   3.460   6.349 -1.7608  0.4765  0.9539
 2829TIP3    H230051   3.893   3.439   6.480  2.4960  0.6015 -1.2435
 2830TIP3   OH230052   3.278   0.665   0.590  0.1153 -1.2789  0.5235
 2830TIP3    H130053   3.243   0.708   0.668  0.2789 -0.9377  0.4081
 2830TIP3    H230054   3.355   0.617   0.621  2.3834  1.7285 -0.0117
 2831TIP3   OH230055   3.794   0.337   0.881  0.2123 -0.5089 -0.2311
 2831TIP3    H130056   3.741   0.416   0.881  1.6997  0.5183 -0.2309
 2831TIP3    H230057   3.825   0.329   0.790 -0.1183 -1.2299 -0.2871
 2832TIP3   OH230058   0.867   4.265   8.168  0.1790  0.6420 -0.1397
 2832TIP3    H130059   0.950   4.268   8.215 -0.5178 -1.0237  1.3073
 2832TIP3    H230060   0.889   4.233   8.081  1.0859  0.5174  0.1343
 2833TIP3   OH230061   0.411   3.326   7.907  0.4466 -0.3028 -0.5386
 2833TIP3    H130062   0.489   3.346   7.960  0.8122 -2.0612 -0.3617
 2833TIP3    H230063   0.356   3.274   7.965 -1.0019  1.0855 -0.5919
 2834TIP3   OH230064   0.193   0.062   1.776  0.4523 -0.5544  0.2485
 2834TIP3    H130065   0.114   0.106   1.746  1.1036  0.5923  0.1466
 2834TIP3    H230066   0.208   0.097   1.864  1.1356 -0.3567  0.0581
 2835TIP3   OH230067   1.914   0.635   0.346 -0.2646 -0.0641 -0.6165
 2835TIP3    H130068   1.824   0.666   0.354  0.2707  1.1177  1.2303
 2835TIP3    H230069   1.964   0.711   0.317  0.6090  0.1489  1.2997
 2836TIP3   OH230070   4.840   3.309   1.403 -0.1761  0.6590 -0.1188
 2836TIP3    H130071   4.856   3.402   1.385 -2.0422  1.4053  1.6805
 2836TIP3    H230072   4.869   3.297   1.494 -0.3019 -0.4527 -0.2061
 2837TIP3   OH230073   1.296   5.559   2.085 -0.2693  0.7022 -0.1379
 2837TIP3    H130074   1.332   5.532   2.169 -1.6401 -1.1100 -0.0552
 2837TIP3    H230075   1.371   5.566   2.027  0.5317  0.3826  0.8423
 2838TIP3   OH230076   6.112   5.582   0.428 -0.1415  0.1526 -0.0416
 2838TIP3    H130077   6.060   5.544   0.357  1.4903  1.2061 -1.9045
 2838TIP3    H230078   6.171   5.642   0.384  0.7570  1.0747  2.2900
 2839TIP3   OH230079   2.441   5.071   0.174  0.5896 -0.3345  0.2066
 2839TIP3    H130080   2.371   5.006   0.182  0.6215 -0.5511 -1.0568
 2839TIP3    H230081   2.435   5.102   0.084  2.0791 -0.3187  0.0820
 2840TIP3   OH230082   0.925   5.446   8.272 -0.4226 -0.1967 -0.0843
 2840TIP3    H130083   0.904   5.400   8.353  1.2035 -2.1608 -0.6665
 2840TIP3    H230084   1.004   5.495   8.292 -0.8119  0.4452 -0.1105
 2841TIP3   OH230085   4.456   0.015   8.728 -0.3879 -0.1708  0.1346
 2841TIP3    H130086   4.540  -0.030   8.725  0.6642  1.6723  0.0723
 2841TIP3    H230087   4.395  -0.049   8.766  0.7902 -1.8811 -0.7284
 2842TIP3   OH230088   6.185   0.660   0.657 -0.1288  0.2534  0.1426
 2842TIP3    H130089   6.256   0.655   0.592  0.2903  1.8086  0.4359
 2842TIP3    H230090   6.107   0.634   0.608  0.1069  1.8129 -1.1458
 2843TIP3   OH230091   6.042   0.967   0.577 -0.0691 -0.0409 -0.5247
 2843TIP3    H130092   5.998   0.953   0.660  0.2402 -2.7778 -0.7332
 2843TIP3    H230093   6.109   1.034   0.595 -0.1403 -0.4445  1.3497
 2844TIP3   OH230094   4.355   4.825   1.444  0.3007  0.2168  0.0052
 2844TIP3    H130095   4.409   4.885   1.393  0.1885 -0.3617 -0.8105
 2844TIP3    H230096   4.337   4.872   1.526  0.3855  1.2037 -0.5342
 2845TIP3   OH230097   6.306   5.245   0.772 -0.3047 -0.6800  0.1300
 2845TIP3    H130098   6.293   5.151   0.785  0.5420 -0.8024  0.1026
 2845TIP3    H230099   6.255   5.265   0.693  2.0705 -1.7600 -1.8236
 2846TIP3   OH230100   5.127   0.811   8.486 -1.0192  0.1971 -0.6658
 2846TIP3    H130101   5.153   0.895   8.448 -2.8805  1.1347  0.0057
 2846TIP3    H230102   5.137   0.823   8.580 -1.1184 -0.4052 -0.5756
 2847TIP3   OH230103   3.170   2.312   7.317  0.3496  0.3840  0.2009
 2847TIP3    H130104   3.204   2.224   7.302 -0.0742  0.1435  0.6557
 2847TIP3    H230105   3.078   2.300   7.338 -0.0626  1.0327 -1.0651
 2848TIP3   OH230106   5.448   3.846   8.645 -0.7206  0.7478  0.0471
 2848TIP3    H130107   5.359   3.875   8.628 -0.9603 -0.0891 -0.1965
 2848TIP3    H230108   5.441   3.795   8.726 -0.0714  2.4266  1.2155
 2849TIP3   OH230109   4.681   2.024   1.144 -0.0130 -0.2098 -0.2088
 2849TIP3    H130110   4.769   2.033   1.182 -0.6780 -0.9628  1.6546
 2849TIP3    H230111   4.646   2.113   1.144  0.3101 -0.0777  0.1951
 2850TIP3   OH230112   4.315   3.905   6.760  0.4320 -0.0618  0.4207
 2850TIP3    H130113   4.361   3.987   6.780  2.8289 -1.5412  1.4353
 2850TIP3    H230114   4.359   3.872   6.682  0.0444 -0.7780  0.4993
 2851TIP3   OH230115   0.242   5.252   8.781  0.0471  0.1080 -0.1331
 2851TIP3    H130116   0.163   5.290   8.742 -0.6618 -0.7612  0.4264
 2851TIP3    H230117   0.220   5.160   8.797  0.4333  0.3183  1.9187
 2852TIP3   OH230118   3.706   0.915   6.466 -0.4696  0.0651 -0.0421
 2852TIP3    H130119   3.663   0.843   6.513 -1.4179 -0.2828 -1.3715
 2852TIP3    H230120   3.772   0.948   6.527  0.2947 -2.2026  0.4517
 2853TIP3   OH230121   1.253   1.916   6.958  0.1777  0.4722 -0.2237
 2853TIP3    H130122   1.287   2.006   6.962  1.5639 -0.0081 -0.8389
 2853TIP3    H230123   1.291   1.879   6.879 -1.5333 -0.2277 -0.7670
 2854TIP3   OH230124   3.440   5.160   7.229 -0.6583 -0.1225  0.4190
 2854TIP3    H130125   3.495   5.148   7.152  0.3220  2.0566  0.6791
 2854TIP3    H230126   3.355   5.124   7.205  0.3874 -2.0128 -0.6251
 2855TIP3   OH230127   4.417   0.821   7.216  0.4703 -0.6511 -0.1828
 2855TIP3    H130128   4.441   0.863   7.133 -1.6303  1.8791  0.3710
 2855TIP3    H230129   4.341   0.767   7.195  0.2078 -0.3514 -0.0256
 2856TIP3   OH230130   3.998   4.662   7.996 -0.2436  0.1687  0.0377
 2856TIP3    H130131   3.972   4.628   7.911 -0.1458  0.0657  0.0494
 2856TIP3    H230132   3.924   4.717   8.023 -0.1351  0.4611 -0.2575
 2857TIP3   OH230133   1.947   5.921   8.584  0.8067  0.3108  0.7731
 2857TIP3    H130134   1.864   5.933   8.538  0.3535  0.2554  1.5567
 2857TIP3    H230135   2.000   5.866   8.526 -0.5242 -1.5309  1.2006
 2858TIP3   OH230136   3.069   5.105   7.798 -0.0241  0.6048 -0.2080
 2858TIP3    H130137   2.981   5.069   7.788  0.1698 -0.0896  0.5004
 2858TIP3    H230138   3.080   5.117   7.892  0.1155  2.0573 -0.3911
 2859TIP3   OH230139   3.987   5.202   8.477 -0.3118  0.3599  0.0531
 2859TIP3    H130140   4.081   5.218   8.471 -0.1380  0.1180  1.6497
 2859TIP3    H230141   3.980   5.106   8.483 -0.6616  0.3832 -0.0016
 2860TIP3   OH230142   3.851   2.466   7.867  0.4200  0.0792 -0.5825
 2860TIP3    H130143   3.777   2.521   7.894  1.7059  0.9962  1.3253
 2860TIP3    H230144   3.811   2.387   7.831 -1.5034  0.2644  1.0134
 2861TIP3   OH230145   3.115   1.575   6.541  0.2751  0.1174 -0.3132
 2861TIP3    H130146   3.053   1.502   6.545  0.3403  0.0532 -0.4621
 2861TIP3    H230147   3.167   1.558   6.463  1.6428 -0.7631  0.7597
 2862TIP3   OH230148   6.800   4.927   0.745  0.2190  0.4566 -0.3280
 2862TIP3    H130149   6.713   4.942   0.782  0.4809 -1.1001  1.0448
 2862TIP3    H230150   6.860   4.960   0.812  0.7166  2.2921 -1.6283
 2863TIP3   OH230151   0.086   4.780   7.672 -0.1299  0.4561 -0.2200
 2863TIP3    H130152   0.002   4.826   7.671 -0.0178  0.6692  0.3362
 2863TIP3    H230153   0.147   4.839   7.627  0.0180  0.8604  0.5081
 2864TIP3   OH230154   1.967   6.145   7.275 -0.1305  0.1657 -0.3031
 2864TIP3    H130155   1.928   6.230   7.257  0.6193  0.6438  0.2319
 2864TIP3    H230156   2.003   6.154   7.364  0.2434 -0.5944 -0.3698
 2865TIP3   OH230157   6.531   5.170   2.321 -0.3599  0.3440  0.0036
 2865TIP3    H130158   6.466   5.131   2.263 -0.4111  0.8086 -0.2517
 2865TIP3    H230159   6.480   5.212   2.390 -0.3068  0.0745  0.2110
 2866TIP3   OH230160   0.477   0.273   1.741  0.4918 -0.2680  0.2108
 2866TIP3    H130161   0.395   0.316   1.714 -0.5110 -2.5757 -0.7490
 2866TIP3    H230162   0.536   0.345   1.764 -0.4753  1.7174 -2.8783
 2867TIP3   OH230163   4.028   5.777   1.372  0.1056  0.1711 -0.1701
 2867TIP3    H130164   4.100   5.838   1.354 -0.1877  0.0708 -1.8298
 2867TIP3    H230165   3.960   5.831   1.411  0.7773  0.4068  0.7256
 2868TIP3   OH230166   1.208   4.093   0.709  0.0092 -0.0154  0.0025
 2868TIP3    H130167   1.291   4.072   0.752  0.0535  1.3916  0.6876
 2868TIP3    H230168   1.141   4.058   0.768  0.1098 -0.5755 -0.2162
 2869TIP3   OH230169   0.623   1.936   6.894  0.0158  0.2040 -0.4791
 2869TIP3    H130170   0.697   1.876   6.890 -0.2461 -0.1889  0.2591
 2869TIP3    H230171   0.627   1.986   6.812  0.3959 -0.6338 -0.9800
 2870TIP3   OH230172   3.126   3.471   0.408 -0.0897  0.0866  0.2795
 2870TIP3    H130173   3.147   3.381   0.383 -0.3075 -0.1397  0.8936
 2870TIP3    H230174   3.103   3.466   0.501 -1.3403  0.5539  0.0285
 2871TIP3   OH230175   6.507   2.216   0.296  0.1480 -0.3217 -0.4695
 2871TIP3    H130176   6.458   2.273   0.354  0.9194  1.0713 -1.1464
 2871TIP3    H230177   6.487   2.247   0.208  1.7579 -0.0899 -0.7873
 2872TIP3   OH230178   4.786   0.181   7.550  0.6665  0.0831 -0.1881
 2872TIP3    H130179   4.732   0.155   7.476  3.5115 -0.7465 -2.1592
 2872TIP3    H230180   4.793   0.102   7.604 -2.5024  1.0414  1.8790
 2873TIP3   OH230181   3.045   2.502   0.582 -0.0252 -0.8399  0.5362
 2873TIP3    H130182   3.105   2.513   0.656  0.1820 -0.6834  0.3468
 2873TIP3    H230183   3.066   2.415   0.548 -1.0896 -1.5017  1.5210
 2874TIP3   OH230184   0.228   2.446   1.307  0.0834 -0.1613  0.3745
 2874TIP3    H130185   0.189   2.399   1.382  2.7159 -1.4835  1.0540
 2874TIP3    H230186   0.262   2.376   1.251  0.0004  0.8828 -1.0071
 2875TIP3   OH230187   2.214   3.278   0.996 -0.0324 -0.4067  0.3670
 2875TIP3    H130188   2.159   3.336   0.943  1.4560  0.5150 -0.2272
 2875TIP3    H230189   2.288   3.332   1.022  0.8202 -1.7311  0.8029
 2876TIP3   OH230190   0.692   4.036   8.238  0.0849  0.1038  0.2623
 2876TIP3    H130191   0.650   4.019   8.154 -2.1010  1.6138  0.9725
 2876TIP3    H230192   0.742   4.116   8.224  2.4457 -1.3828 -0.4184
 2877TIP3   OH230193   6.437   0.904   7.209  0.3755 -0.1274 -0.5835
 2877TIP3    H130194   6.436   0.810   7.190 -0.3787 -0.6470  1.6622
 2877TIP3    H230195   6.530   0.925   7.221  0.6024 -0.4230 -1.7542
 2878TIP3   OH230196   4.309   2.042   1.514  0.1475 -0.3860 -0.3046
 2878TIP3    H130197   4.349   2.086   1.588  0.1391  0.5302 -0.8280
 2878TIP3    H230198   4.378   2.037   1.448 -0.1771 -0.0877 -0.6788
 2879TIP3   OH230199   0.413   2.062   1.408 -0.5608 -0.3210 -0.2711
 2879TIP3    H130200   0.475   2.101   1.470  1.3779  1.4887 -3.1043
 2879TIP3    H230201   0.385   1.981   1.450  3.0234 -0.7791  1.6172
 2880TIP3   OH230202   3.992   5.440   0.330  0.6702 -0.1118 -0.1825
 2880TIP3    H130203   4.056   5.434   0.401 -0.7226  1.2400  1.2784
 2880TIP3    H230204   4.044   5.456   0.252  2.1359  1.6218  1.0435
 2881TIP3   OH230205   4.543   5.833   7.725  0.1211  0.2522  0.3532
 2881TIP3    H130206   4.479   5.824   7.796 -0.6196 -1.6239 -0.4634
 2881TIP3    H230207   4.628   5.823   7.768 -0.1439  1.7389  1.3080
 2882TIP3   OH230208   6.557   4.420   6.770 -0.0372  0.2432  0.3631
 2882TIP3    H130209   6.609   4.402   6.692 -1.0570  0.2107 -0.3296
 2882TIP3    H230210   6.530   4.511   6.761 -0.7681  0.0291  0.2934
 2883TIP3   OH230211   0.580   4.519   0.548 -0.4954 -0.2818  0.0267
 2883TIP3    H130212   0.615   4.433   0.571  4.0440  1.0747 -0.8435
 2883TIP3    H230213   0.594   4.572   0.627 -2.8733 -0.1022  0.4113
 2884TIP3   OH230214   2.864   5.086   0.547 -0.5395  0.5669 -0.0092
 2884TIP3    H130215   2.894   5.095   0.457  0.2207  2.7525  0.3997
 2884TIP3    H230216   2.828   4.998   0.552  0.9581 -0.2176 -1.9872
 2885TIP3   OH230217   3.959   4.283   7.524  0.2396 -0.2625 -0.1359
 2885TIP3    H130218   4.036   4.261   7.576 -1.1507 -1.3218  1.5984
 2885TIP3    H230219   3.894   4.312   7.589 -1.2577 -0.7074 -1.3731
 2886TIP3   OH230220   4.051   3.802   8.622  0.2977 -0.2002  0.1781
 2886TIP3    H130221   4.048   3.796   8.527  2.0354  0.2875  0.0507
 2886TIP3    H230222   4.145   3.802   8.643 -0.0469 -0.8986  1.9299
 2887TIP3   OH230223   1.787   4.203   0.035 -0.7059  0.3789 -0.1466
 2887TIP3    H130224   1.778   4.180   0.127 -0.8142 -0.9740 -0.4696
 2887TIP3    H230225   1.727   4.142  -0.010 -0.0237  0.4500 -1.1733
 2888TIP3   OH230226   0.680   4.155   7.344 -0.0711 -0.2488  0.3210
 2888TIP3    H130227   0.713   4.152   7.433  1.7025  0.0974 -0.2825
 2888TIP3    H230228   0.623   4.232   7.342 -0.3013 -0.3824  1.1804
 2889TIP3   OH230229   4.526   6.682   7.498  0.4186  0.9192 -0.1084
 2889TIP3    H130230   4.586   6.617   7.534 -0.5230 -0.6934 -1.2768
 2889TIP3    H230231   4.507   6.650   7.409 -0.5971  2.4590 -0.4865
 2890TIP3   OH230232   5.285   2.049   7.926  0.7855  0.2605 -0.5908
 2890TIP3    H130233   5.334   1.970   7.901 -1.4121 -1.2965 -0.2480
 2890TIP3    H230234   5.221   2.060   7.856  0.6486  1.3683 -0.2991
 2891TIP3   OH230235   5.411   6.055   1.571 -0.0011 -0.1862 -0.3008
 2891TIP3    H130236   5.416   6.005   1.653  0.2977 -0.3935 -0.4414
 2891TIP3    H230237   5.335   6.020   1.526 -2.2566  2.2216  1.3708
 2892TIP3   OH230238   4.432   6.583   6.908  0.1257 -0.2804 -0.0485
 2892TIP3    H130239   4.452   6.669   6.871  1.1882  0.1764  1.5209
 2892TIP3    H230240   4.473   6.521   6.849 -0.5555  0.2708 -1.1362
 2893TIP3   OH230241   1.822   2.778   7.393  0.1130 -0.2180  0.2704
 2893TIP3    H130242   1.789   2.846   7.334  1.2718 -1.0210 -1.3784
 2893TIP3    H230243   1.743   2.739   7.431 -0.6734  0.2205 -0.8620
 2894TIP3   OH230244   3.942   4.746   0.526 -0.2243 -0.1650  0.7901
 2894TIP3    H130245   3.855   4.755   0.566  0.1374  0.8360  1.3954
 2894TIP3    H230246   3.991   4.821   0.559  0.7034 -0.4054 -0.0010
 2895TIP3   OH230247   3.698   6.598   6.468  0.4387  1.0776 -0.1833
 2895TIP3    H130248   3.693   6.504   6.454  1.7426  0.7550  1.2930
 2895TIP3    H230249   3.678   6.610   6.561  1.7101  2.0916 -0.0081
 2896TIP3   OH230250   3.664   5.358   0.072 -0.3125  0.0710 -0.2926
 2896TIP3    H130251   3.714   5.438   0.056  0.4731 -0.1897  0.7843
 2896TIP3    H230252   3.704   5.293   0.014  1.7239 -0.5523  1.6551
 2897TIP3   OH230253   4.854   1.866   0.805 -0.2006  0.4774 -0.1814
 2897TIP3    H130254   4.838   1.815   0.884  0.6113  1.8060  0.8953
 2897TIP3    H230255   4.858   1.956   0.835 -0.7957  1.1177 -1.9023
 2898TIP3   OH230256   3.078   4.101   0.290  0.9961  0.0332 -0.4276
 2898TIP3    H130257   3.110   4.175   0.238  1.7561 -0.5861 -0.8741
 2898TIP3    H230258   2.983   4.108   0.286  1.0478  1.3245  0.0333
 2899TIP3   OH230259   4.468   2.017   7.453  0.3180 -0.4066  0.1904
 2899TIP3    H130260   4.492   1.966   7.531  1.1893  0.4870  0.5298
 2899TIP3    H230261   4.537   2.084   7.446 -1.5914  1.7205  0.6675
 2900TIP3   OH230262   2.999   2.074   1.053  0.1354  0.0084  0.3520
 2900TIP3    H130263   3.027   2.015   0.983  0.1806  0.8458 -0.3590
 2900TIP3    H230264   2.915   2.109   1.024 -0.8441 -1.1611  1.6715
 2901TIP3   OH230265   6.778   0.681   2.115  0.4182  0.0216 -0.3948
 2901TIP3    H130266   6.731   0.599   2.128 -0.9664  0.9994  1.2413
 2901TIP3    H230267   6.798   0.712   2.203 -0.0149  1.9394 -0.9123
 2902TIP3   OH230268   0.633   5.236   0.792 -0.0050  0.2804  0.5911
 2902TIP3    H130269   0.676   5.209   0.873  0.1114  0.5278  0.6155
 2902TIP3    H230270   0.705   5.264   0.735 -0.0951  0.2129  0.4434
 2903TIP3   OH230271   1.368   1.396   8.801 -0.0703  0.1206  0.0708
 2903TIP3    H130272   1.281   1.423   8.832  0.1690  0.7885  0.1759
 2903TIP3    H230273   1.350   1.344   8.722 -0.6905 -1.6418  1.2977
 2904TIP3   OH230274   5.339   0.011   7.927  0.5062  0.7465 -0.1113
 2904TIP3    H130275   5.385   0.067   7.864  1.8587  1.1065  1.1522
 2904TIP3    H230276   5.273   0.068   7.966  0.2431  0.7620 -0.5658
 2905TIP3   OH230277   5.607   4.759   7.743 -0.2141  0.5261  0.0104
 2905TIP3    H130278   5.633   4.847   7.767  1.9112  0.1381 -0.6366
 2905TIP3    H230279   5.536   4.771   7.680 -0.4960  1.7289  0.5316
 2906TIP3   OH230280   3.138   4.719   1.925  0.0865  0.1251 -0.3796
 2906TIP3    H130281   3.217   4.763   1.957 -0.2515  1.7658 -1.6948
 2906TIP3    H230282   3.085   4.705   2.004  0.1034  2.3126  0.0765
 2907TIP3   OH230283   0.505   6.526   8.738 -0.6608  0.3621  0.1567
 2907TIP3    H130284   0.487   6.573   8.819  1.2192  0.9366  0.2761
 2907TIP3    H230285   0.516   6.435   8.766 -0.9699  0.3982  0.4057
 2908TIP3   OH230286   4.456   5.089   0.995 -0.6585 -0.1873 -0.0034
 2908TIP3    H130287   4.448   4.994   0.991 -0.6297 -0.1650 -0.7930
 2908TIP3    H230288   4.482   5.115   0.906  0.3334  0.4710  0.4603
 2909TIP3   OH230289   6.325   4.444   0.786 -0.0501  0.1889 -0.6650
 2909TIP3    H130290   6.241   4.403   0.804 -0.9360  2.0152 -0.3651
 2909TIP3    H230291   6.382   4.415   0.857 -0.3754 -1.1571 -0.9345
 2910TIP3   OH230292   0.516   4.276   0.260 -0.0883 -0.5267 -0.0438
 2910TIP3    H130293   0.525   4.258   0.166 -1.7238  0.6485 -0.4596
 2910TIP3    H230294   0.464   4.356   0.264  0.1845 -0.4095  1.8803
 2911TIP3   OH230295   0.912   4.473   0.532  0.2762  0.2773  0.2112
 2911TIP3    H130296   0.837   4.418   0.509 -0.4225  2.1107 -2.4013
 2911TIP3    H230297   0.986   4.412   0.536 -0.8147 -1.1520 -0.3238
 2912TIP3   OH230298   3.296   1.313   1.269 -0.3319 -0.5009 -0.0472
 2912TIP3    H130299   3.244   1.381   1.313  1.2449  1.3967 -0.9853
 2912TIP3    H230300   3.256   1.306   1.182  1.1592  1.3169 -0.9473
 2913TIP3   OH230301   2.582   1.933   0.437 -0.0200 -0.0548 -0.0345
 2913TIP3    H130302   2.519   1.995   0.400 -0.7717 -1.4753 -1.2234
 2913TIP3    H230303   2.660   1.986   0.455 -0.5886  1.2134 -1.1423
 2914TIP3   OH230304   3.794   5.988   8.034  0.2073  0.3935 -0.3537
 2914TIP3    H130305   3.778   5.905   8.077 -0.8098  0.6959 -0.1341
 2914TIP3    H230306   3.817   5.965   7.944 -1.1272 -0.0848 -0.5866
 2915TIP3   OH230307   0.288   6.310   0.972 -0.3382 -0.2061 -0.6625
 2915TIP3    H130308   0.297   6.310   0.877 -2.9324  1.0196 -0.9939
 2915TIP3    H230309   0.347   6.379   1.002 -0.2685  0.1011 -1.4765
 2916TIP3   OH230310   0.555   2.559   7.827  0.4351 -0.2568  0.4781
 2916TIP3    H130311   0.623   2.587   7.766  0.0320 -0.1562  0.0765
 2916TIP3    H230312   0.531   2.471   7.797  0.9831 -0.6423  1.1302
 2917TIP3   OH230313   0.670   1.671   7.102  0.2143 -0.2263 -0.3071
 2917TIP3    H130314   0.712   1.661   7.017 -0.0638  0.7969 -0.5792
 2917TIP3    H230315   0.732   1.725   7.152 -0.5927  0.9974 -0.5943
 2918TIP3   OH230316   3.901   2.208   1.521  0.1062  0.2211 -0.0024
 2918TIP3    H130317   3.909   2.149   1.446  0.2679 -1.1137  1.0345
 2918TIP3    H230318   3.914   2.152   1.597  0.6583  1.6810  1.0130
 2919TIP3   OH230319   2.257   5.284   0.434 -0.1040  0.0989 -0.1163
 2919TIP3    H130320   2.204   5.214   0.395  0.0442  0.8692 -1.7801
 2919TIP3    H230321   2.246   5.358   0.375 -1.0048  1.8420  2.0837
 2920TIP3   OH230322   4.133   1.284   6.848  0.6076 -0.0703  0.1876
 2920TIP3    H130323   4.203   1.348   6.861 -0.0609  0.7793 -0.2745
 2920TIP3    H230324   4.167   1.226   6.779 -0.1203  1.8947 -1.9476
 2921TIP3   OH230325   6.667   0.600   2.627  0.0288  0.3414 -0.4598
 2921TIP3    H130326   6.684   0.598   2.532  0.2408 -0.1639 -0.4165
 2921TIP3    H230327   6.710   0.680   2.657  0.4657  0.2045 -0.7019
 2922TIP3   OH230328   5.691   1.471   6.692  0.1069 -0.1737  0.5238
 2922TIP3    H130329   5.718   1.427   6.611  0.5970 -1.4418  1.3504
 2922TIP3    H230330   5.678   1.400   6.755  2.4325  0.9175  2.3852
 2923TIP3   OH230331   4.074   0.619   1.081 -0.1876 -0.2430  0.3110
 2923TIP3    H130332   4.042   0.553   1.021 -0.2299 -0.6352  0.7593
 2923TIP3    H230333   4.144   0.664   1.033  0.0023 -0.7680  0.0924
 2924TIP3   OH230334   4.228   5.167   8.785 -0.9737  0.0877 -0.1394
 2924TIP3    H130335   4.195   5.228   8.850 -0.7338 -0.8483  0.8946
 2924TIP3    H230336   4.238   5.084   8.833 -0.7088 -0.6018 -1.3437
 2925TIP3   OH230337   2.090   6.222   7.525 -0.2488  0.3140  0.1699
 2925TIP3    H130338   2.069   6.302   7.573  1.6556  0.4179  0.9079
 2925TIP3    H230339   2.176   6.196   7.557 -1.1656 -2.5378  0.5743
 2926TIP3   OH230340   0.591   0.629   7.454 -0.1954  0.3129 -0.2157
 2926TIP3    H130341   0.654   0.700   7.468  2.6512 -2.0901  0.4135
 2926TIP3    H230342   0.543   0.623   7.536  0.7933  0.4332  0.3992
 2927TIP3   OH230343   3.103   4.634   7.612 -0.7707 -0.1394  0.6334
 2927TIP3    H130344   3.085   4.629   7.518 -0.2992 -1.5817  0.6011
 2927TIP3    H230345   3.145   4.719   7.624 -0.7404  0.0110 -0.4683
 2928TIP3   OH230346   1.362   5.829   1.368 -0.0619  0.1218 -0.2257
 2928TIP3    H130347   1.383   5.753   1.423 -1.7876 -0.3510 -0.1518
 2928TIP3    H230348   1.404   5.810   1.284 -2.0580 -1.9378 -0.8719
 2929TIP3   OH230349   4.369   1.453   1.377 -0.1526 -0.1461  0.0677
 2929TIP3    H130350   4.367   1.451   1.473  0.7758 -0.8378  0.0865
 2929TIP3    H230351   4.335   1.368   1.351  1.0509 -0.5795 -0.1655
 2930TIP3   OH230352   1.782   5.713   0.042 -0.0583 -0.2168  0.2848
 2930TIP3    H130353   1.746   5.781  -0.015  1.4176 -0.2401 -0.7132
 2930TIP3    H230354   1.864   5.687   0.000 -0.2688 -2.1721  0.9784
 2931TIP3   OH230355   4.608   1.655   6.901  0.6683 -0.0892  0.2413
 2931TIP3    H130356   4.621   1.640   6.807  1.8542  2.2261 -0.0236
 2931TIP3    H230357   4.697   1.654   6.938  0.2127 -1.0594  1.3941
 2932TIP3   OH230358   0.084   4.092   6.768 -0.3800 -0.2998 -0.3295
 2932TIP3    H130359   0.020   4.034   6.727  1.2311 -1.4305 -1.3564
 2932TIP3    H230360   0.163   4.081   6.716  0.7094  0.9488  0.9804
 2933TIP3   OH230361   2.549   6.015   8.174  0.6034  0.0582 -0.1662
 2933TIP3    H130362   2.504   6.065   8.106  1.5011  1.0837 -0.0285
 2933TIP3    H230363   2.499   5.933   8.179 -1.7781  1.4427  0.5776
 2934TIP3   OH230364   3.424   4.522   8.214 -0.2218 -0.0295  0.3000
 2934TIP3    H130365   3.462   4.457   8.155 -0.7061 -0.6235  0.6354
 2934TIP3    H230366   3.443   4.606   8.172  0.1902 -0.3977 -0.2634
 2935TIP3   OH230367   4.364   1.289   0.741 -0.5577 -0.3295 -0.4095
 2935TIP3    H130368   4.454   1.258   0.745 -0.0653  1.0476 -0.3316
 2935TIP3    H230369   4.371   1.384   0.749 -2.0667 -0.2535  0.3210
 2936TIP3   OH230370   2.793   5.818   1.402 -0.0053 -0.0925 -0.1817
 2936TIP3    H130371   2.738   5.852   1.331  1.2418  0.1258 -1.0769
 2936TIP3    H230372   2.775   5.724   1.403 -3.4551  0.3994  2.2937
 2937TIP3   OH230373   3.592   6.544   7.845  0.1095 -0.2770 -0.2938
 2937TIP3    H130374   3.564   6.499   7.765 -1.9462 -0.1692  0.3030
 2937TIP3    H230375   3.541   6.503   7.915 -1.0156  2.1608  0.4416
 2938TIP3   OH230376   4.525   4.410   0.249  0.1057 -0.1007 -0.8556
 2938TIP3    H130377   4.557   4.328   0.213  1.5263 -0.3794  0.8724
 2938TIP3    H230378   4.480   4.384   0.330 -2.5169  0.5345 -1.9903
 2939TIP3   OH230379   1.310   1.064   0.044  0.5637 -0.1974  0.2526
 2939TIP3    H130380   1.271   1.024   0.122  0.9716 -3.0941 -0.8740
 2939TIP3    H230381   1.246   1.048  -0.025  1.3797 -0.1453 -0.5254
 2940TIP3   OH230382   4.252   1.759   7.698 -0.4163  0.2566  0.3870
 2940TIP3    H130383   4.187   1.785   7.634 -1.0010 -1.4762  0.2362
 2940TIP3    H230384   4.298   1.686   7.658 -0.1738 -0.2639  1.5601
 2941TIP3   OH230385   5.417   0.160   7.444 -0.0163 -0.2208  0.5353
 2941TIP3    H130386   5.511   0.174   7.435  0.0224 -0.9122 -0.2479
 2941TIP3    H230387   5.381   0.181   7.358 -0.2881 -2.0532  0.1490
 2942TIP3   OH230388   3.001   2.901   7.880  0.2926  0.0246 -0.2211
 2942TIP3    H130389   3.022   2.993   7.895 -0.3986  0.1948 -0.2740
 2942TIP3    H230390   2.938   2.879   7.948 -0.2739 -0.1448 -0.7901
 2943TIP3   OH230391   3.655   0.073   8.067 -0.1737 -0.0307 -0.0988
 2943TIP3    H130392   3.657  -0.010   8.115  0.1521 -0.2682 -0.5158
 2943TIP3    H230393   3.732   0.070   8.011 -0.5207  0.2651 -0.6010
 2944TIP3   OH230394   0.426   3.258   1.799 -0.4737  0.1319  0.9296
 2944TIP3    H130395   0.492   3.315   1.760 -0.7417  1.0043  1.6969
 2944TIP3    H230396   0.473   3.179   1.823  0.0333  0.2653  0.3876
 2945TIP3   OH230397   6.132   1.108   7.982  0.0976 -0.3865 -0.2874
 2945TIP3    H130398   6.197   1.038   7.980 -0.2180 -0.7842  1.5453
 2945TIP3    H230399   6.125   1.137   7.891  3.6048  0.4189 -0.4690
 2946TIP3   OH230400   5.313   3.103   8.692  0.1711  0.5572 -0.2263
 2946TIP3    H130401   5.248   3.065   8.633 -0.3077 -1.4814  1.4712
 2946TIP3    H230402   5.265   3.118   8.773  1.0543  2.2649  0.0090
 2947TIP3   OH230403   4.620   3.447   1.991 -0.2489  0.1708 -0.1407
 2947TIP3    H130404   4.674   3.499   2.051  0.5008 -1.0080  0.2368
 2947TIP3    H230405   4.677   3.430   1.916  0.8955 -3.1752  1.3212
 2948TIP3   OH230406   6.022   3.788   1.985  0.2864  0.0022  0.7511
 2948TIP3    H130407   6.041   3.761   1.895  1.2375 -0.0741  0.9584
 2948TIP3    H230408   6.107   3.815   2.020 -0.1827  0.6624  1.4229
 2949TIP3   OH230409   3.735   3.580   1.480  0.0012  0.1252 -0.0278
 2949TIP3    H130410   3.743   3.609   1.571 -1.0328  1.4775 -0.3357
 2949TIP3    H230411   3.672   3.641   1.441  0.3945 -0.4573 -1.6427
 2950TIP3   OH230412   6.536   3.575   0.370 -0.3918 -0.5045 -0.1543
 2950TIP3    H130413   6.578   3.544   0.290  0.2462  2.6326 -1.1981
 2950TIP3    H230414   6.453   3.613   0.341  0.2177  1.4413  0.4404
 2951TIP3   OH230415   5.408   6.028   7.830  0.1341 -0.2401  0.0010
 2951TIP3    H130416   5.468   5.982   7.771 -0.9555 -1.7368  0.0197
 2951TIP3    H230417   5.429   6.121   7.817  0.8849 -0.6073 -1.6821
 2952TIP3   OH230418   0.103   4.801   7.195  0.0499  0.4961 -0.8177
 2952TIP3    H130419   0.075   4.737   7.260 -1.2490  0.9690 -0.8875
 2952TIP3    H230420   0.054   4.779   7.116  1.5766 -0.0349 -1.6528
 2953TIP3   OH230421   2.689   1.937   1.228 -0.0800  0.3418 -0.2514
 2953TIP3    H130422   2.773   1.898   1.205  0.0594  0.7588 -0.4546
 2953TIP3    H230423   2.661   1.890   1.307 -0.1234 -0.4630 -0.7383
 2954TIP3   OH230424   3.732   0.178   8.403  0.2465 -0.1646  0.6604
 2954TIP3    H130425   3.826   0.194   8.403  0.1536  0.3892  0.4991
 2954TIP3    H230426   3.702   0.213   8.319 -0.0548 -0.6438  0.5622
 2955TIP3   OH230427   2.419   1.684   7.467  0.4507 -0.5042 -0.2988
 2955TIP3    H130428   2.325   1.696   7.452  0.7646  1.1910 -1.2655
 2955TIP3    H230429   2.425   1.642   7.552 -1.1728  0.2831  0.2548
 2956TIP3   OH230430   0.860   5.599   1.663  0.7124  0.3874 -0.9135
 2956TIP3    H130431   0.859   5.593   1.567 -0.6106 -1.0856 -0.8322
 2956TIP3    H230432   0.862   5.509   1.693 -3.2163  0.5770  0.4244
 2957TIP3   OH230433   4.178   2.125   0.684 -0.2083  1.0184  0.4985
 2957TIP3    H130434   4.106   2.062   0.682 -1.3439  2.3009 -0.5653
 2957TIP3    H230435   4.160   2.185   0.612  0.5821  2.8405  1.7325
 2958TIP3   OH230436   6.200   6.043   0.817  0.6139 -0.3314  0.0165
 2958TIP3    H130437   6.288   6.017   0.787  0.3752  1.2293 -2.3184
 2958TIP3    H230438   6.141   5.983   0.771  0.3298  1.0114 -1.4720
 2959TIP3   OH230439   6.299   3.929   8.636 -0.2921  0.0432  0.2066
 2959TIP3    H130440   6.204   3.926   8.648 -0.2431 -2.3316  0.3679
 2959TIP3    H230441   6.331   3.965   8.719 -1.1266  5.2100 -1.3073
 2960TIP3   OH230442   3.697   2.323   1.656  0.4607  0.0934 -0.0314
 2960TIP3    H130443   3.678   2.401   1.605 -0.3036 -1.5145 -2.4079
 2960TIP3    H230444   3.773   2.284   1.613 -0.1659 -1.2893  0.0470
 2961TIP3   OH230445   3.601   5.632   6.698  0.7338 -0.3363 -0.7267
 2961TIP3    H130446   3.566   5.689   6.630 -1.9527 -0.7761  0.1821
 2961TIP3    H230447   3.616   5.690   6.773  0.4446 -0.4003 -0.6182
 2962TIP3   OH230448   3.130   6.642   7.720  0.4565  0.5617  0.1463
 2962TIP3    H130449   3.220   6.662   7.743  0.2522  1.5116  0.1686
 2962TIP3    H230450   3.079   6.664   7.798  0.1373  0.6073 -0.0704
 2963TIP3   OH230451   1.806   0.250   0.885 -0.7232 -0.0405  0.5001
 2963TIP3    H130452   1.789   0.158   0.864 -1.3615  0.1741  0.0400
 2963TIP3    H230453   1.727   0.296   0.856 -1.1309  0.4325  2.2769
 2964TIP3   OH230454   5.236   3.696   6.577  0.5010  0.2425 -0.9088
 2964TIP3    H130455   5.264   3.786   6.594  0.6415  0.2989 -1.4424
 2964TIP3    H230456   5.317   3.648   6.560  0.4809 -0.1143 -0.0762
 2965TIP3   OH230457   1.053   2.188   0.256 -0.1941  0.0663 -0.4786
 2965TIP3    H130458   0.995   2.264   0.249 -0.4854 -0.1197 -0.1043
 2965TIP3    H230459   1.141   2.226   0.261 -0.0091  0.2992 -3.5038
 2966TIP3   OH230460   3.911   5.489   7.119 -0.0153  0.4490  0.3770
 2966TIP3    H130461   3.875   5.504   7.206  1.4317 -1.6747  1.4312
 2966TIP3    H230462   3.992   5.539   7.118 -0.3752  1.0393 -0.0454
 2967TIP3   OH230463   1.233   4.608   1.096 -0.1345 -0.5348  0.1629
 2967TIP3    H130464   1.225   4.683   1.154 -1.6051 -0.1630 -0.4775
 2967TIP3    H230465   1.248   4.533   1.155  1.0082  0.1733  0.8182
 2968TIP3   OH230466   0.464   1.335   7.806  0.3822 -0.4796 -0.2325
 2968TIP3    H130467   0.423   1.388   7.738 -0.1554 -0.9320 -0.2552
 2968TIP3    H230468   0.450   1.385   7.886  0.3834 -0.3063 -0.3385
 2969TIP3   OH230469   2.965   1.044   0.517 -0.2738 -0.6464 -0.1280
 2969TIP3    H130470   2.920   1.127   0.532 -0.3271 -0.7203  0.1335
 2969TIP3    H230471   3.046   1.051   0.569  0.1578 -0.3990 -0.8273
 2970TIP3   OH230472   0.497   4.730   7.836 -0.2490 -0.0170 -0.2123
 2970TIP3    H130473   0.406   4.714   7.861  0.5945 -1.3287  2.3848
 2970TIP3    H230474   0.516   4.817   7.871  0.3846 -1.1024  2.3718
 2971TIP3   OH230475   1.504   2.202   7.916 -0.1170  0.0734 -0.1040
 2971TIP3    H130476   1.527   2.220   7.825 -1.6605 -1.6029 -0.8887
 2971TIP3    H230477   1.410   2.218   7.920 -0.6067 -2.5371  0.4182
 2972TIP3   OH230478   1.308   5.354   7.645 -0.1998  0.0680 -0.3821
 2972TIP3    H130479   1.277   5.368   7.735 -1.8583 -0.0385 -0.8960
 2972TIP3    H230480   1.318   5.442   7.609  0.5301  0.1116 -0.0750
 2973TIP3   OH230481   1.503   4.245   0.341  0.5740  0.1038 -0.7282
 2973TIP3    H130482   1.486   4.202   0.258  0.7785 -0.9961 -0.2227
 2973TIP3    H230483   1.451   4.196   0.405  2.5131 -0.8514  0.2158
 2974TIP3   OH230484   2.990   1.941   8.763 -0.3696 -0.1850 -0.4590
 2974TIP3    H130485   3.052   1.978   8.700 -1.9421  1.9930 -0.8650
 2974TIP3    H230486   2.921   1.902   8.709 -0.0200 -1.4108 -0.0352
 2975TIP3   OH230487   2.864   3.298   6.599 -0.4539  0.4676 -0.1264
 2975TIP3    H130488   2.891   3.311   6.508  0.7404 -0.6374  0.0432
 2975TIP3    H230489   2.846   3.204   6.605  1.1028  0.2107  1.1719
 2976TIP3   OH230490   6.620   2.184   1.320 -0.3063  0.0265  0.8850
 2976TIP3    H130491   6.580   2.131   1.251 -1.5755  0.7384  1.0348
 2976TIP3    H230492   6.645   2.265   1.277  0.5362 -0.2242  0.8988
 2977TIP3   OH230493   4.999   4.799   0.571 -0.1707  0.1665 -0.8901
 2977TIP3    H130494   4.999   4.895   0.567 -1.1745  0.2108 -0.1493
 2977TIP3    H230495   5.084   4.777   0.607 -0.1627  0.8226 -0.4789
 2978TIP3   OH230496   5.493   3.900   8.331  0.2747 -0.6726 -0.1699
 2978TIP3    H130497   5.511   3.891   8.425 -1.3996 -1.5303  0.1039
 2978TIP3    H230498   5.533   3.984   8.308 -2.0777  1.2783  2.1025
 2979TIP3   OH230499   2.582   5.296   0.368  0.0751  0.5821  0.4785
 2979TIP3    H130500   2.505   5.260   0.413 -0.0416  0.0478 -0.1320
 2979TIP3    H230501   2.627   5.346   0.435  0.2326 -0.6817  1.3658
 2980TIP3   OH230502   4.839   1.044   0.102  0.2416 -0.3886 -0.0777
 2980TIP3    H130503   4.801   1.068   0.018 -0.2536  1.0793  0.5451
 2980TIP3    H230504   4.791   0.965   0.129  0.7877 -1.2027 -1.3918
 2981TIP3   OH230505   4.145   4.113   1.679  0.0829  1.0411  0.1755
 2981TIP3    H130506   4.163   4.084   1.590 -0.2121  0.2158  0.3683
 2981TIP3    H230507   4.117   4.204   1.671  0.7978  1.2038 -0.4906
 2982TIP3   OH230508   0.729   4.426   8.352  0.2447 -0.3070 -0.2277
 2982TIP3    H130509   0.781   4.359   8.308  0.2240 -0.3497 -0.1873
 2982TIP3    H230510   0.779   4.506   8.341  2.0096 -0.8751  2.6499
 2983TIP3   OH230511   4.323   4.005   0.599  0.2675 -0.1297 -0.5303
 2983TIP3    H130512   4.290   4.093   0.619  0.2965 -0.3099  0.3866
 2983TIP3    H230513   4.255   3.966   0.544 -0.2796  0.0926 -0.0334
 2984TIP3   OH230514   0.519   0.780   1.772  0.4253 -0.0844 -0.0536
 2984TIP3    H130515   0.484   0.750   1.856  2.6644  2.1019  1.8230
 2984TIP3    H230516   0.614   0.771   1.781  0.9052  2.7031 -1.1927
 2985TIP3   OH230517   0.465   1.123   7.070  0.0540 -0.5467 -0.0010
 2985TIP3    H130518   0.386   1.070   7.073  0.4741 -1.1621  0.3578
 2985TIP3    H230519   0.434   1.213   7.055 -0.7237 -0.7341  0.4750
 2986TIP3   OH230520   1.700   6.382   2.246  0.2724 -0.4677  0.3914
 2986TIP3    H130521   1.677   6.473   2.224 -0.0699 -0.5490  0.4039
 2986TIP3    H230522   1.704   6.337   2.162  1.9779 -0.1009  0.2479
 2987TIP3   OH230523   2.145   4.598   1.794 -0.4359  0.3794  0.2177
 2987TIP3    H130524   2.239   4.600   1.777 -0.6001  0.6021 -0.7358
 2987TIP3    H230525   2.138   4.582   1.888  0.5670  1.4654  0.5096
 2988TIP3   OH230526   4.813   2.396   8.396  0.0858  0.4089  0.1267
 2988TIP3    H130527   4.885   2.455   8.374  1.4454 -0.9677  0.7704
 2988TIP3    H230528   4.801   2.344   8.317  0.9707 -0.5187  0.5901
 2989TIP3   OH230529   4.274   6.119   7.922  0.3741 -0.3083 -0.1136
 2989TIP3    H130530   4.292   6.094   8.013 -1.1426  1.4368  0.7283
 2989TIP3    H230531   4.222   6.046   7.887  0.0910 -0.5305  0.7508
 2990TIP3   OH230532   4.905   3.044   7.340  0.2525  0.7883  0.0462
 2990TIP3    H130533   4.878   3.135   7.347 -0.1095  0.6776  0.1059
 2990TIP3    H230534   4.920   3.017   7.431  0.2159  0.7466  0.0400
 2991TIP3   OH230535   6.145   1.453   0.936  0.1715  0.9137 -0.3199
 2991TIP3    H130536   6.220   1.435   0.879  1.5175  0.5723  1.4799
 2991TIP3    H230537   6.069   1.434   0.881  1.4132 -1.9502 -1.2560
 2992TIP3   OH230538   2.391   0.009   8.552 -0.1174  0.1620 -0.6611
 2992TIP3    H130539   2.418   0.013   8.644  0.2800  1.4030 -0.8163
 2992TIP3    H230540   2.295   0.012   8.555 -0.0780  2.6210 -0.3501
 2993TIP3   OH230541   4.436   6.530   8.458  0.7418 -0.2859 -0.1599
 2993TIP3    H130542   4.444   6.625   8.457  2.3444 -0.3897  0.6254
 2993TIP3    H230543   4.401   6.509   8.544  2.2755 -0.4955  0.4497
 2994TIP3   OH230544   3.456   2.278   7.860 -0.4441 -0.5317  0.0130
 2994TIP3    H130545   3.389   2.326   7.811 -0.4000 -0.3812  0.0994
 2994TIP3    H230546   3.536   2.327   7.847 -0.0619 -1.4151 -1.1482
 2995TIP3   OH230547   4.991   2.634   1.110  0.4032 -0.4776  0.2175
 2995TIP3    H130548   5.077   2.677   1.106  0.6301 -0.8123  1.2117
 2995TIP3    H230549   4.981   2.610   1.202 -0.7962 -0.3831  0.1245
 2996TIP3   OH230550   5.608   4.366   7.342  0.1683 -0.7829  0.2950
 2996TIP3    H130551   5.663   4.294   7.374  1.8456  0.0470 -0.5432
 2996TIP3    H230552   5.571   4.405   7.421  1.6379 -0.7543  1.0159
 2997TIP3   OH230553   3.243   5.990   6.753 -0.2290 -0.4519 -0.3635
 2997TIP3    H130554   3.230   5.978   6.847  0.3106  3.7103  0.4236
 2997TIP3    H230555   3.155   5.992   6.716 -0.5803  0.5975  0.5149
 2998TIP3   OH230556   0.415   5.129   8.360 -0.1067  0.4015  0.1160
 2998TIP3    H130557   0.476   5.202   8.370 -1.0022  1.0235  1.1955
 2998TIP3    H230558   0.461   5.067   8.303  1.4139  0.9791  0.6733
 2999TIP3   OH230559   6.715   0.145   0.870 -0.0427 -0.5216 -0.4757
 2999TIP3    H130560   6.749   0.059   0.897  2.0294  0.3765  0.0194
 2999TIP3    H230561   6.695   0.189   0.952 -3.5209 -1.3280 -0.7529
 3000TIP3   OH230562   6.518   0.743   0.109 -0.4083 -0.7612 -0.5672
 3000TIP3    H130563   6.592   0.764   0.052 -0.6687 -0.6264 -0.8525
 3000TIP3    H230564   6.551   0.760   0.197 -1.4926  3.7744 -0.8268
 3001TIP3   OH230565   4.970   4.533   2.559 -0.3525  0.3758  0.2139
 3001TIP3    H130566   4.970   4.462   2.495  0.8067  0.5451 -0.0035
 3001TIP3    H230567   5.063   4.551   2.575 -0.6268  1.0817  1.1145
 3002TIP3   OH230568   2.884   6.591   1.329  0.5296  0.5971 -0.5054
 3002TIP3    H130569   2.956   6.642   1.367  2.4385 -2.8599  1.0100
 3002TIP3    H230570   2.812   6.601   1.392  0.8834  1.2904 -0.1992
 3003TIP3   OH230571   5.706   4.762   8.307  0.3367 -0.4322  0.0112
 3003TIP3    H130572   5.706   4.782   8.401  1.5058 -0.0195 -0.0613
 3003TIP3    H230573   5.791   4.721   8.291  0.2494 -0.2765 -0.9155
 3004TIP3   OH230574   0.787   3.888   1.684  0.1193 -0.0951 -0.0254
 3004TIP3    H130575   0.693   3.870   1.672 -0.0283  0.6111  0.0041
 3004TIP3    H230576   0.811   3.839   1.763 -0.1471 -0.5442 -0.2181
 3005TIP3   OH230577   4.466   2.924   7.357  0.2153 -0.3457 -0.3068
 3005TIP3    H130578   4.559   2.911   7.343 -0.1013 -0.4459 -2.6826
 3005TIP3    H230579   4.451   3.016   7.335 -0.4054 -0.6131 -1.0655
 3006TIP3   OH230580   3.212   6.689   0.911  0.4049 -0.5092  0.1946
 3006TIP3    H130581   3.291   6.712   0.960 -0.3759 -3.2953  3.0268
 3006TIP3    H230582   3.140   6.730   0.960 -0.1410  0.1795 -1.1216
 3007TIP3   OH230583   3.437   1.895   8.645  0.8429  0.2831  0.1609
 3007TIP3    H130584   3.427   1.810   8.602  1.3931  1.0624 -1.5759
 3007TIP3    H230585   3.402   1.881   8.733  2.3817 -2.1639  0.4694
 3008TIP3   OH230586   0.638   5.395   7.025 -0.4770 -0.2769 -0.0660
 3008TIP3    H130587   0.626   5.439   6.941 -0.4597 -0.3335 -0.0980
 3008TIP3    H230588   0.607   5.459   7.089  0.5297  0.2010 -0.0288
 3009TIP3   OH230589   6.132   4.360   6.927 -0.3202 -0.1290  0.1460
 3009TIP3    H130590   6.072   4.366   7.002 -1.1027 -0.1734 -0.4571
 3009TIP3    H230591   6.194   4.290   6.951 -2.1662 -2.0412 -0.3231
 3010TIP3   OH230592   0.929   0.782   1.371  0.2984  0.0681  0.9640
 3010TIP3    H130593   0.921   0.877   1.364  1.2933  0.2422  1.8469
 3010TIP3    H230594   1.016   0.768   1.408  0.8509 -1.2757 -0.7021
 3011TIP3   OH230595   1.452   1.701   7.250 -0.3629 -0.1378 -0.3646
 3011TIP3    H130596   1.436   1.620   7.202 -2.4624  1.4221 -2.5233
 3011TIP3    H230597   1.375   1.711   7.306  0.2483  0.0149  0.4685
 3012TIP3   OH230598   5.022   6.357   6.863  0.0087 -0.1254 -0.2825
 3012TIP3    H130599   4.935   6.394   6.847  0.8145  1.5330 -1.0281
 3012TIP3    H230600   5.045   6.315   6.779  0.0296 -0.3874 -0.1485
 3013TIP3   OH230601   2.331   4.156   0.449 -0.0123  0.2832 -0.7561
 3013TIP3    H130602   2.319   4.240   0.405  0.5539  0.6672 -0.2003
 3013TIP3    H230603   2.295   4.169   0.537  1.3141  0.4027 -0.2025
 3014TIP3   OH230604   2.636   2.399   0.215  0.1402  0.8391 -0.4390
 3014TIP3    H130605   2.561   2.454   0.237  0.9336  0.7380  3.2000
 3014TIP3    H230606   2.710   2.459   0.214  0.3949  0.5258 -1.2460
 3015TIP3   OH230607   4.170   4.384   1.227 -0.0170 -0.1833 -0.6405
 3015TIP3    H130608   4.139   4.309   1.278  1.0508 -1.7688 -2.1692
 3015TIP3    H230609   4.234   4.427   1.284  1.1682 -1.9184 -0.5711
 3016TIP3   OH230610   5.216   0.303   0.703 -1.0951  0.5378 -0.2914
 3016TIP3    H130611   5.156   0.232   0.678  1.0830 -1.4602 -0.1785
 3016TIP3    H230612   5.229   0.290   0.797  0.9118 -0.2765 -0.6370
 3017TIP3   OH230613   1.820   6.496   1.627  0.3694  0.3343 -0.3586
 3017TIP3    H130614   1.850   6.415   1.585 -0.0064  1.4809 -3.0900
 3017TIP3    H230615   1.726   6.498   1.609  0.3054  1.1876  0.0465
 3018TIP3   OH230616   2.529   4.792   7.641  0.5554  0.0236  0.1521
 3018TIP3    H130617   2.481   4.714   7.668  0.9669  0.4884  2.4381
 3018TIP3    H230618   2.495   4.862   7.697  0.1455  1.5610 -1.8670
 3019TIP3   OH230619   0.174   4.965   6.801 -0.0086 -0.7087  0.1250
 3019TIP3    H130620   0.113   4.993   6.733 -0.2287 -1.3148  0.0660
 3019TIP3    H230621   0.186   4.872   6.786  0.8798 -0.6111  0.1876
 3020TIP3   OH230622   5.232   2.870   6.071 -0.0156 -0.0411 -0.3426
 3020TIP3    H130623   5.265   2.871   5.982  0.2556  0.6277 -0.2405
 3020TIP3    H230624   5.218   2.777   6.091  1.2572 -0.2993 -0.5867
 3021TIP3   OH230625   2.012   2.777   1.206  0.0057  0.2822  0.6018
 3021TIP3    H130626   1.969   2.844   1.260  2.4904  0.3479  2.6749
 3021TIP3    H230627   2.002   2.809   1.116 -1.3651  1.9375  1.2915
 3022TIP3   OH230628   2.141   5.488   0.796 -0.8643 -0.7051  0.3884
 3022TIP3    H130629   2.089   5.501   0.716 -1.4135 -0.6821  0.7440
 3022TIP3    H230630   2.226   5.456   0.765 -1.7189 -2.6407 -0.0989
 3023TIP3   OH230631   0.334   6.130   1.522  0.4755  0.5219 -0.1704
 3023TIP3    H130632   0.250   6.092   1.495 -0.1975  1.4500  0.5293
 3023TIP3    H230633   0.341   6.210   1.471  1.4195 -0.0325 -0.9332
 3024TIP3   OH230634   2.163   4.116   8.473  0.3576  0.0948  0.0872
 3024TIP3    H130635   2.213   4.196   8.487  2.2535 -0.8124 -1.0760
 3024TIP3    H230636   2.101   4.112   8.546  1.2218  1.8515  0.9541
 3025TIP3   OH230637   0.175   2.002   8.614  0.4006 -0.0151 -0.1762
 3025TIP3    H130638   0.122   1.947   8.672  1.0243 -0.3007  0.1276
 3025TIP3    H230639   0.166   1.961   8.528  1.7840 -1.2940  0.2496
 3026TIP3   OH230640   1.531   5.007   0.851  0.1874  0.2736  0.2401
 3026TIP3    H130641   1.610   5.060   0.849  0.0193  0.5381 -1.8717
 3026TIP3    H230642   1.527   4.967   0.765 -0.8207 -1.5258  1.0677
 3027TIP3   OH230643   4.852   4.046   0.967 -0.1422  0.4324  0.1501
 3027TIP3    H130644   4.932   3.994   0.955  0.1644  1.3707 -2.5444
 3027TIP3    H230645   4.883   4.131   0.998 -0.3178  0.1064  1.2322
 3028TIP3   OH230646   2.984   4.755   8.109 -0.4029  0.1258 -0.6347
 3028TIP3    H130647   2.926   4.693   8.152 -0.4961  0.5053 -0.1995
 3028TIP3    H230648   3.025   4.705   8.038  1.3017 -1.1055  1.1264
 3029TIP3   OH230649   2.058   0.433   8.362 -1.0615 -0.3926  0.2290
 3029TIP3    H130650   1.971   0.403   8.387 -1.9348  0.5611 -1.5058
 3029TIP3    H230651   2.061   0.422   8.267  0.3947  0.4324  0.1418
 3030TIP3   OH230652   1.353   5.922   7.025  0.0659  0.1959 -0.7866
 3030TIP3    H130653   1.259   5.919   7.043  0.6350  1.1571  3.3546
 3030TIP3    H230654   1.383   5.832   7.036 -0.0244  0.3406  0.9352
 3031TIP3   OH230655   0.761   0.154   7.249  0.2236 -0.8802 -0.1022
 3031TIP3    H130656   0.793   0.079   7.200 -0.0694 -1.3232  0.3808
 3031TIP3    H230657   0.833   0.176   7.309 -0.3588 -1.8969  1.0063
 3032TIP3   OH230658   3.281   3.393   1.495  0.7496  0.1679  0.3784
 3032TIP3    H130659   3.336   3.472   1.491 -0.1822  0.8707  1.0221
 3032TIP3    H230660   3.192   3.425   1.483  0.4266 -0.9084 -0.1964
 3033TIP3   OH230661   5.061   0.976   6.985 -0.3709 -0.6438  0.4388
 3033TIP3    H130662   5.035   0.885   6.996 -0.9751 -0.2397  2.9299
 3033TIP3    H230663   5.029   1.021   7.063  1.6189  1.3262  0.2465
 3034TIP3   OH230664   2.513   6.069   0.040 -0.0976 -0.7474 -0.4410
 3034TIP3    H130665   2.603   6.058   0.010  0.2176 -0.6107  0.4295
 3034TIP3    H230666   2.497   6.163   0.033  1.0700 -0.2033  2.7356
 3035TIP3   OH230667   4.514   6.667   0.982 -0.2348 -0.6586  0.0478
 3035TIP3    H130668   4.500   6.580   1.020 -0.5106  0.4366  2.7317
 3035TIP3    H230669   4.608   6.672   0.967 -0.1284 -1.2238  0.4756
 3036TIP3   OH230670   4.879   1.733   8.040 -0.5296 -0.6980  0.1133
 3036TIP3    H130671   4.881   1.659   8.102 -0.3159 -0.7961 -0.0112
 3036TIP3    H230672   4.947   1.792   8.071 -1.7220  0.2029  1.1419
 3037TIP3   OH230673   0.095   3.419   8.077  0.3689 -0.3653  0.1544
 3037TIP3    H130674   0.118   3.489   8.016  0.6113 -0.0208  0.6380
 3037TIP3    H230675   0.149   3.345   8.051  0.2198 -0.3263 -0.2652
 3038TIP3   OH230676   5.530   3.690   1.106  0.2000 -0.4893 -0.9752
 3038TIP3    H130677   5.583   3.650   1.037  0.2319 -3.0318  0.3865
 3038TIP3    H230678   5.440   3.685   1.073  0.0938 -2.6177 -0.5473
 3039TIP3   OH230679   1.322   0.594   7.320  0.2154 -0.3965  0.0337
 3039TIP3    H130680   1.299   0.529   7.253 -1.0313  1.0405 -0.9868
 3039TIP3    H230681   1.416   0.608   7.308 -0.0466  0.1100 -1.7065
 3040TIP3   OH230682   5.249   3.628   7.972 -0.6270 -0.0285  0.2221
 3040TIP3    H130683   5.266   3.681   7.895 -1.5503 -0.1050 -0.0438
 3040TIP3    H230684   5.154   3.617   7.973 -0.5287 -0.9011  0.7876
 3041TIP3   OH230685   5.295   5.926   8.625  0.8011  0.0142  0.5106
 3041TIP3    H130686   5.276   5.868   8.699 -0.0740 -0.7730 -0.3041
 3041TIP3    H230687   5.375   5.890   8.586  0.1874 -0.7369 -0.0716
 3042TIP3   OH230688   1.818   5.101   7.689  0.3216  0.3210  0.4036
 3042TIP3    H130689   1.739   5.119   7.637  0.6750  1.2455  0.1679
 3042TIP3    H230690   1.788   5.044   7.759 -0.0948 -1.3656 -1.0639
 3043TIP3   OH230691   4.211   0.869   8.161 -0.8691  0.4697 -0.0809
 3043TIP3    H130692   4.241   0.960   8.167 -1.1263  0.4954  0.9562
 3043TIP3    H230693   4.256   0.824   8.232 -2.4242  0.2780  0.8377
 3044TIP3   OH230694   3.664   0.592   1.174 -0.7645  0.1153  0.2210
 3044TIP3    H130695   3.678   0.567   1.083  0.3259 -2.4265  0.9766
 3044TIP3    H230696   3.570   0.604   1.182 -0.7578  1.6332 -1.4839
 3045TIP3   OH230697   2.821   2.970   8.357  0.4000  0.0462  0.3260
 3045TIP3    H130698   2.837   2.912   8.282 -0.8652 -1.0513  0.8748
 3045TIP3    H230699   2.730   2.954   8.381  0.5331  1.0188  1.5697
 3046TIP3   OH230700   1.143   5.494   1.102 -0.2585 -0.3785 -0.1345
 3046TIP3    H130701   1.087   5.571   1.099  0.5831  0.4086  2.0271
 3046TIP3    H230702   1.229   5.525   1.072  0.2901 -0.1867  1.4933
 3047TIP3   OH230703   1.984   0.914   0.636 -0.4948 -0.3543  0.5945
 3047TIP3    H130704   1.946   0.972   0.570 -2.5877 -0.4872  1.6253
 3047TIP3    H230705   2.078   0.913   0.615 -0.9878  0.0396 -2.0211
 3048TIP3   OH230706   2.911   5.283   0.721  0.1660 -0.8801 -0.4945
 3048TIP3    H130707   2.970   5.246   0.786 -0.1048  1.0439  0.9297
 3048TIP3    H230708   2.904   5.216   0.653  2.7908 -1.7774  0.0131
 3049TIP3   OH230709   5.075   5.218   7.136 -0.5960 -0.1312 -0.1013
 3049TIP3    H130710   5.171   5.217   7.134 -0.5995  0.4328 -0.8321
 3049TIP3    H230711   5.054   5.290   7.196 -0.5518  1.0178 -1.4185
 3050TIP3   OH230712   5.483   3.198   7.932  0.4423 -0.4293  0.3161
 3050TIP3    H130713   5.578   3.209   7.925  0.4373  0.1789  1.0516
 3050TIP3    H230714   5.469   3.170   8.023  0.1493 -3.4363 -0.5444
 3051TIP3   OH230715   3.892   0.845   0.278  0.6511  0.2287  0.2506
 3051TIP3    H130716   3.856   0.793   0.206 -0.1245 -1.2270  1.6031
 3051TIP3    H230717   3.960   0.788   0.316  0.7765  0.7957  0.8928
 3052TIP3   OH230718   4.593   5.376   1.055  0.0571 -0.0473  0.7274
 3052TIP3    H130719   4.540   5.376   1.134 -1.1681 -2.0786  0.0055
 3052TIP3    H230720   4.679   5.344   1.083 -0.8804 -2.5200  1.0327
 3053TIP3   OH230721   1.713   1.099   0.468 -0.2211  0.1559  0.1048
 3053TIP3    H130722   1.709   1.186   0.509  0.6820  0.6412 -0.8015
 3053TIP3    H230723   1.642   1.050   0.510 -0.5609  1.2369  0.8424
 3054TIP3   OH230724   6.509   1.355   7.094  0.0778 -0.8037  0.4421
 3054TIP3    H130725   6.445   1.310   7.149 -0.2335 -1.1031 -0.1576
 3054TIP3    H230726   6.456   1.413   7.039  0.4246 -0.1484  0.7737
 3055TIP3   OH230727   4.783   3.313   1.122  0.3021  0.4953  0.0361
 3055TIP3    H130728   4.728   3.389   1.140 -2.2779 -1.1568 -0.3256
 3055TIP3    H230729   4.839   3.306   1.199  1.0899  3.0901 -0.2104
 3056TIP3   OH230730   2.971   5.654   0.446 -0.2795  0.3859  0.4521
 3056TIP3    H130731   3.017   5.608   0.516 -1.1126 -2.5130 -0.7717
 3056TIP3    H230732   2.881   5.662   0.477 -0.1526  1.2044  0.6342
 3057TIP3   OH230733   1.573   4.134   7.405  0.1013 -0.6626  0.4368
 3057TIP3    H130734   1.571   4.229   7.408  0.5582 -0.6803  1.7806
 3057TIP3    H230735   1.490   4.109   7.363 -0.8350  0.2692  1.6891
 3058TIP3   OH230736   2.208   4.247   0.671 -0.6834 -0.5379 -0.0586
 3058TIP3    H130737   2.127   4.290   0.698 -0.1941  0.4754 -0.1526
 3058TIP3    H230738   2.245   4.213   0.753 -0.9760 -0.6208  0.0422
 3059TIP3   OH230739   6.243   0.378   6.895  0.1420 -0.3513 -0.0053
 3059TIP3    H130740   6.263   0.471   6.904  0.0453 -0.0792 -2.1008
 3059TIP3    H230741   6.281   0.353   6.811 -0.5908 -1.9924  0.1119
 3060TIP3   OH230742   5.376   5.160   6.698  0.3100 -0.0781 -0.1271
 3060TIP3    H130743   5.303   5.175   6.758  0.5543  2.7531 -0.3929
 3060TIP3    H230744   5.336   5.116   6.622 -0.6492 -0.6274  0.6742
 3061TIP3   OH230745   5.674   5.595   7.856 -0.9096 -0.4345 -0.2978
 3061TIP3    H130746   5.668   5.517   7.910 -1.9681  0.5649  1.0959
 3061TIP3    H230747   5.758   5.586   7.810 -1.0541 -2.4092 -0.2623
 3062TIP3   OH230748   1.946   1.735   0.419  0.3383 -0.3625  0.5348
 3062TIP3    H130749   1.886   1.733   0.343  2.0862 -0.0391 -0.9245
 3062TIP3    H230750   1.896   1.779   0.487 -0.4008  1.7697 -1.2583
 3063TIP3   OH230751   0.373   3.704   1.838 -0.4165 -0.2725 -0.1138
 3063TIP3    H130752   0.354   3.705   1.744 -1.2333 -0.7240  0.0378
 3063TIP3    H230753   0.308   3.644   1.875  0.7307 -1.1382  0.5659
 3064TIP3   OH230754   4.091   0.936   7.258  0.4304 -0.5672  0.3110
 3064TIP3    H130755   4.080   1.025   7.225 -0.7280 -0.4704  0.9312
 3064TIP3    H230756   4.038   0.933   7.338 -1.4736 -2.4800 -0.9195
 3065TIP3   OH230757   2.393   4.377   7.987 -0.3561 -0.4135 -0.8784
 3065TIP3    H130758   2.301   4.365   7.966 -0.4645  0.8396 -1.2493
 3065TIP3    H230759   2.407   4.326   8.066 -1.7810  0.6233  0.1055
 3066TIP3   OH230760   2.289   5.285   6.649  0.2079 -0.5676 -0.3047
 3066TIP3    H130761   2.328   5.236   6.721 -0.3157  0.3096  0.5883
 3066TIP3    H230762   2.318   5.375   6.662 -2.0058  0.1172  0.3690
 3067TIP3   OH230763   6.373   3.890   0.575 -0.0497 -0.7907 -0.2379
 3067TIP3    H130764   6.287   3.927   0.559 -0.2583 -0.1109  2.1223
 3067TIP3    H230765   6.434   3.962   0.557 -0.1898 -0.4100  0.7814
 3068TIP3   OH230766   0.636   4.360   1.792 -0.0362 -0.0570 -0.1899
 3068TIP3    H130767   0.643   4.454   1.802  0.1110  0.2999 -2.8318
 3068TIP3    H230768   0.585   4.331   1.867  1.0571  1.9073  1.4056
 3069TIP3   OH230769   6.226   3.066   8.598  0.1369 -0.1456 -0.4164
 3069TIP3    H130770   6.314   3.031   8.582  0.3369  0.4379 -0.6403
 3069TIP3    H230771   6.228   3.096   8.689  0.0191 -0.5540 -0.2775
 3070TIP3   OH230772   1.258   4.207   7.105  0.1367 -1.0537  0.2340
 3070TIP3    H130773   1.292   4.265   7.037  1.4826 -3.9595 -1.7874
 3070TIP3    H230774   1.165   4.228   7.110  0.2747  0.1714 -1.5430
 3071TIP3   OH230775   4.481   6.417   1.087 -0.1642  0.1567 -0.2633
 3071TIP3    H130776   4.397   6.373   1.072  0.1437 -0.2369 -0.8804
 3071TIP3    H230777   4.537   6.349   1.125  0.1664  0.1534 -0.7546
 3072TIP3   OH230778   4.448   5.641   2.524  0.3719  0.4288 -0.0334
 3072TIP3    H130779   4.399   5.625   2.605 -3.5983  1.0021 -2.0633
 3072TIP3    H230780   4.466   5.735   2.526  0.9105  0.3206  0.4709
 3073TIP3   OH230781   1.938   4.205   7.667 -0.0193  0.5880  0.6072
 3073TIP3    H130782   1.916   4.277   7.608 -2.1246  0.4335  1.1512
 3073TIP3    H230783   1.860   4.150   7.669  1.1960 -1.1936  0.9992
 3074TIP3   OH230784   3.746   3.381   8.526 -0.1866 -0.0442 -0.5197
 3074TIP3    H130785   3.684   3.454   8.518  0.3029  0.3036 -1.3130
 3074TIP3    H230786   3.814   3.415   8.584 -1.2226 -0.7865  1.1895
 3075TIP3   OH230787   0.355   4.646   0.046 -0.0162 -0.0932 -0.2263
 3075TIP3    H130788   0.307   4.652   0.128  2.1005 -0.5015  1.1117
 3075TIP3    H230789   0.413   4.571   0.057  1.2990  0.6640 -1.5528
 3076TIP3   OH230790   0.656   6.786   2.535  0.1920  0.1714  0.6079
 3076TIP3    H130791   0.751   6.798   2.529  0.5274 -1.4704  1.8265
 3076TIP3    H230792   0.639   6.706   2.487 -1.0582  1.8810 -2.0459
 3077TIP3   OH230793   0.469   2.282   6.722 -0.0379 -0.2025  0.4612
 3077TIP3    H130794   0.493   2.202   6.674 -1.0475 -0.8888  1.0470
 3077TIP3    H230795   0.532   2.287   6.794  0.8822  0.3028 -0.3534
 3078TIP3   OH230796   2.860   5.284   1.141 -0.4062 -0.1929  0.1755
 3078TIP3    H130797   2.766   5.295   1.127 -0.1756  0.3957 -1.0363
 3078TIP3    H230798   2.867   5.252   1.231 -1.8487 -1.7180 -0.2143
 3079TIP3   OH230799   2.233   5.316   6.971 -0.0982 -0.7138  0.2603
 3079TIP3    H130800   2.290   5.254   6.926  1.1853  0.4796  0.1618
 3079TIP3    H230801   2.158   5.327   6.911  1.9855  1.5329 -2.2112
 3080TIP3   OH230802   4.979   6.806   8.521  0.4290 -0.3834 -0.2749
 3080TIP3    H130803   5.003   6.714   8.532  0.9371 -0.6679 -2.9773
 3080TIP3    H230804   5.016   6.830   8.436 -3.1126  1.1301 -1.5939
 3081TIP3   OH230805   5.081   0.993   8.133  0.3721 -0.4608  0.2263
 3081TIP3    H130806   5.156   1.007   8.075 -0.6452  2.2035 -0.5536
 3081TIP3    H230807   5.104   1.040   8.213 -0.9433  1.5050 -0.4945
 3082TIP3   OH230808   2.021   2.491   7.970  0.0837 -0.0378 -0.0589
 3082TIP3    H130809   2.059   2.451   7.891  0.3101  0.7889 -0.3827
 3082TIP3    H230810   2.092   2.489   8.034  0.0737 -0.2176 -0.0537
 3083TIP3   OH230811   4.890   2.241   7.768  0.0849  0.1395  0.1097
 3083TIP3    H130812   4.905   2.328   7.731 -1.4507  0.3081 -0.1760
 3083TIP3    H230813   4.941   2.239   7.848  1.4839  0.6813 -0.7296
 3084TIP3   OH230814   1.948   5.799   2.172 -1.0030 -0.4385  0.2238
 3084TIP3    H130815   1.922   5.778   2.262 -4.0087  0.6716 -0.2991
 3084TIP3    H230816   1.881   5.758   2.117 -0.5972  0.9378 -1.3722
 3085TIP3   OH230817   4.179   3.039   0.292  0.0006  0.1159 -0.1203
 3085TIP3    H130818   4.191   2.944   0.281 -0.9350 -0.1212  0.8220
 3085TIP3    H230819   4.131   3.048   0.374 -0.6901  1.3737 -0.6438
 3086TIP3   OH230820   2.373   2.610   7.982 -0.2637  0.4683 -0.0563
 3086TIP3    H130821   2.354   2.517   7.973  3.3858 -0.3699 -0.7371
 3086TIP3    H230822   2.333   2.650   7.905 -0.6402 -0.7555 -0.5234
 3087TIP3   OH230823   3.217   3.068   0.922 -0.4832 -0.7184 -0.3170
 3087TIP3    H130824   3.168   2.986   0.930 -0.8583 -0.4209  0.4647
 3087TIP3    H230825   3.257   3.063   0.835  0.1384 -2.0800  0.0188
 3088TIP3   OH230826   2.121   2.846   2.175  0.3320  0.0123 -0.2509
 3088TIP3    H130827   2.143   2.774   2.234  0.5555  1.7581  1.9312
 3088TIP3    H230828   2.205   2.880   2.145  0.2741  0.1770 -0.2292
 3089TIP3   OH230829   3.513   1.456   6.162 -0.0179 -0.0439  0.1875
 3089TIP3    H130830   3.600   1.464   6.200 -0.1914  0.1414  0.5565
 3089TIP3    H230831   3.516   1.375   6.111  0.1195 -0.4810  0.8753
 3090TIP3   OH230832   2.321   2.295   7.556 -0.0219  0.1294 -0.2245
 3090TIP3    H130833   2.228   2.276   7.543 -0.1304 -0.2873  1.0047
 3090TIP3    H230834   2.355   2.308   7.468 -0.8002 -1.8298 -0.8692
 3091TIP3   OH230835   5.455   3.068   6.781 -0.4552  0.0061 -0.7576
 3091TIP3    H130836   5.369   3.108   6.771 -0.2397  0.5673 -0.4531
 3091TIP3    H230837   5.437   2.979   6.810 -0.9269  0.2410 -0.3111
 3092TIP3   OH230838   4.563   0.444   0.685 -0.1432  0.4441  0.6337
 3092TIP3    H130839   4.568   0.454   0.590  1.5364 -0.6490  0.5802
 3092TIP3    H230840   4.470   0.457   0.705 -0.3745  1.6951 -1.0157
 3093TIP3   OH230841   3.943   4.850   0.800  0.0470 -0.1697 -0.3644
 3093TIP3    H130842   3.858   4.850   0.845 -0.5897 -2.8322 -1.3827
 3093TIP3    H230843   4.003   4.810   0.863 -0.0358 -0.6272 -0.5758
 3094TIP3   OH230844   3.105   0.565   6.885 -0.4102 -0.6106  0.6585
 3094TIP3    H130845   3.105   0.636   6.820  3.1667 -1.1011 -0.1169
 3094TIP3    H230846   3.030   0.512   6.862 -2.2567  1.9856  0.2191
 3095TIP3   OH230847   4.321   1.593   8.349 -0.5059  0.0118 -0.2493
 3095TIP3    H130848   4.388   1.546   8.299 -0.4075 -1.1921  0.9575
 3095TIP3    H230849   4.370   1.647   8.411 -0.5762 -1.8871  1.5650
 3096TIP3   OH230850   5.574   6.443   7.181  0.0703  0.0047  0.2565
 3096TIP3    H130851   5.559   6.482   7.095  1.8828  0.1473 -0.0309
 3096TIP3    H230852   5.509   6.373   7.187 -1.4831  1.3275 -0.3178
 3097TIP3   OH230853   1.257   4.215   8.060 -0.2158  0.2298 -0.1524
 3097TIP3    H130854   1.198   4.178   7.994  1.2546  1.4346 -2.2767
 3097TIP3    H230855   1.291   4.139   8.107  0.3053 -0.9261 -2.2494
 3098TIP3   OH230856   0.641   6.184   2.009  0.2249  0.4066  0.1169
 3098TIP3    H130857   0.647   6.277   2.029  0.1475  0.3828  0.2547
 3098TIP3    H230858   0.618   6.143   2.092 -1.1429  0.4237 -0.2171
 3099TIP3   OH230859   0.559   5.512   1.589  0.2690  0.2449 -0.5390
 3099TIP3    H130860   0.625   5.444   1.599  1.2422  1.2581  0.2324
 3099TIP3    H230861   0.517   5.494   1.505  1.8575 -0.1428 -1.2669
 3100TIP3   OH230862   3.300   0.968   1.305  0.0971  0.0608 -0.2086
 3100TIP3    H130863   3.355   1.030   1.257 -0.7958  1.6462  0.6981
 3100TIP3    H230864   3.355   0.936   1.376  0.3359  0.4518 -0.2148
 3101TIP3   OH230865   6.452   4.265   6.502  0.7234  0.6162  0.6124
 3101TIP3    H130866   6.502   4.226   6.431 -1.8979  0.9887 -1.5896
 3101TIP3    H230867   6.478   4.357   6.502  0.9754  0.5454  0.3479
 3102TIP3   OH230868   5.278   0.262   7.233  0.1457 -0.1339  0.0268
 3102TIP3    H130869   5.251   0.212   7.156  0.9723 -0.0305 -0.3479
 3102TIP3    H230870   5.214   0.333   7.239  1.0869  0.9369 -1.6739
 3103TIP3   OH230871   4.072   1.441   0.170  0.2617 -0.2214 -0.1526
 3103TIP3    H130872   4.096   1.503   0.102  0.7980  0.3149  0.5147
 3103TIP3    H230873   4.084   1.489   0.252  0.7674 -1.2209  0.3806
 3104TIP3   OH230874   6.240   1.788   7.374 -0.0038  0.2203  0.2412
 3104TIP3    H130875   6.174   1.789   7.304 -0.2514  2.3044  0.4585
 3104TIP3    H230876   6.313   1.738   7.338 -0.6279  0.1866 -1.0180
 3105TIP3   OH230877   2.811   3.028   6.579  0.7583 -0.2526 -0.4160
 3105TIP3    H130878   2.735   2.976   6.556  0.6673 -0.5597  0.5232
 3105TIP3    H230879   2.832   3.078   6.500 -0.7898  0.3172 -0.4995
 3106TIP3   OH230880   3.283   4.109   1.521  0.7290  0.1560 -0.0829
 3106TIP3    H130881   3.331   4.169   1.578  0.1404 -0.3431  0.9615
 3106TIP3    H230882   3.350   4.076   1.461  1.9299 -1.1037  1.8229
 3107TIP3   OH230883   5.861   1.880   8.507 -0.1888 -0.0680  0.6902
 3107TIP3    H130884   5.801   1.816   8.467  1.5371 -1.8435  0.8068
 3107TIP3    H230885   5.900   1.834   8.581  2.1372  0.5978 -0.0293
 3108TIP3   OH230886   3.500   1.955   1.246  0.0677 -0.3262  0.0252
 3108TIP3    H130887   3.594   1.968   1.232 -0.3132  1.2897 -1.3948
 3108TIP3    H230888   3.489   1.960   1.341  1.0734  2.5784  0.0805
 3109TIP3   OH230889   6.545   0.489   0.797 -0.3286  0.2165  0.4953
 3109TIP3    H130890   6.521   0.396   0.801  0.9425 -0.2029 -0.9659
 3109TIP3    H230891   6.489   0.530   0.863 -0.9537 -1.5684  1.1479
 3110TIP3   OH230892   0.114   4.235   0.934 -0.3105 -0.9111  0.1068
 3110TIP3    H130893   0.086   4.311   0.984 -2.2632 -0.9201 -0.8848
 3110TIP3    H230894   0.171   4.271   0.866 -0.7718 -0.3923 -0.0126
 3111TIP3   OH230895   6.107   1.109   1.061 -0.1391 -0.5759  0.3328
 3111TIP3    H130896   6.086   1.031   1.009 -0.1320 -1.0516  1.0339
 3111TIP3    H230897   6.029   1.123   1.114 -0.1906 -0.0198  0.1085
 3112TIP3   OH230898   1.826   5.430   8.520  0.0950  0.2127 -0.1450
 3112TIP3    H130899   1.819   5.337   8.499  0.3629  0.2321 -0.3238
 3112TIP3    H230900   1.910   5.457   8.482  0.5165  0.2853  0.8009
 3113TIP3   OH230901   0.239   5.518   8.341 -0.1778  0.3636  0.1046
 3113TIP3    H130902   0.154   5.529   8.300  0.6501 -0.2087 -1.9043
 3113TIP3    H230903   0.302   5.540   8.272  1.3130 -0.5511  1.1097
 3114TIP3   OH230904   3.866   3.763   6.515  0.0404  0.0034 -0.2305
 3114TIP3    H130905   3.940   3.771   6.575  2.2792 -1.6873 -2.5290
 3114TIP3    H230906   3.875   3.675   6.478 -1.1048  0.9683 -3.0647
 3115TIP3   OH230907   3.656   6.421   0.767 -0.0152  0.1087  0.3608
 3115TIP3    H130908   3.602   6.346   0.791  1.4818 -0.6711  1.4947
 3115TIP3    H230909   3.662   6.416   0.671 -0.2739 -0.9972  0.3817
 3116TIP3   OH230910   2.617   5.090   7.451  0.1581  0.2928 -0.1941
 3116TIP3    H130911   2.707   5.060   7.469  1.0254  2.4584 -0.6919
 3116TIP3    H230912   2.584   5.028   7.386  1.4987 -0.2216 -0.4251
 3117TIP3   OH230913   6.453   0.516   7.471 -0.3379 -0.0253  0.4083
 3117TIP3    H130914   6.525   0.523   7.533 -0.4410 -2.1161  0.8224
 3117TIP3    H230915   6.442   0.605   7.437  1.3959  0.6422  1.4787
 3118TIP3   OH230916   2.797   6.637   1.077  0.2548  0.2577  0.2422
 3118TIP3    H130917   2.818   6.592   1.159 -0.3258 -0.1359  0.1772
 3118TIP3    H230918   2.876   6.688   1.058  1.0891 -1.0074  0.1326
 3119TIP3   OH230919   2.116   2.089   0.986  0.1571 -0.2665 -0.4226
 3119TIP3    H130920   2.043   2.028   0.979  0.7159 -1.1087  0.7139
 3119TIP3    H230921   2.194   2.034   0.976  0.6625  0.2801  0.3977
 3120TIP3   OH230922   3.099   4.573   0.518  0.1979 -0.3421  0.0719
 3120TIP3    H130923   3.048   4.500   0.553  0.3692  0.3026  1.7711
 3120TIP3    H230924   3.180   4.533   0.486  0.7116 -0.8257  1.8804
 3121TIP3   OH230925   6.132   6.364   0.365  0.5127  0.2371 -0.1753
 3121TIP3    H130926   6.193   6.438   0.358 -0.9786  1.6573  1.0619
 3121TIP3    H230927   6.097   6.353   0.277 -0.4981  2.1590 -0.0541
 3122TIP3   OH230928   6.809   5.048   0.159 -0.1127 -0.1740  0.1732
 3122TIP3    H130929   6.882   5.000   0.118  1.1167  0.2018  1.7964
 3122TIP3    H230930   6.789   4.997   0.238  0.2605  1.1830  1.1809
 3123TIP3   OH230931   6.795   2.300   0.010  0.1795 -0.0063  0.0618
 3123TIP3    H130932   6.771   2.373   0.067  0.3910 -0.7618  1.1419
 3123TIP3    H230933   6.891   2.295   0.016  0.3679  0.8064 -1.5143
 3124TIP3   OH230934   5.218   4.158   1.948 -0.4567  0.4506  0.2277
 3124TIP3    H130935   5.197   4.237   1.898 -0.6850 -0.7997 -1.7600
 3124TIP3    H230936   5.304   4.177   1.987  1.4285  0.3542 -3.4085
 3125TIP3   OH230937   4.062   4.583   6.995 -0.1116 -0.3450 -0.4089
 3125TIP3    H130938   4.130   4.524   6.963 -1.3069 -1.2004 -1.5274
 3125TIP3    H230939   3.992   4.524   7.025 -0.9286  0.4816 -0.6204
 3126TIP3   OH230940   3.597   4.336   6.579  0.4257 -0.0126  0.4011
 3126TIP3    H130941   3.515   4.386   6.586  1.3076  1.3145  1.8203
 3126TIP3    H230942   3.570   4.245   6.593 -1.3390 -0.1746 -3.0095
 3127TIP3   OH230943   6.299   3.303   2.432  0.4567 -0.0741  0.0651
 3127TIP3    H130944   6.361   3.251   2.484  1.7367  0.5659 -0.7887
 3127TIP3    H230945   6.330   3.295   2.342  0.7411  2.2349 -0.0923
 3128TIP3   OH230946   6.388   1.677   2.837  0.2486  0.0072  0.2514
 3128TIP3    H130947   6.354   1.604   2.889  0.4321  1.0188  1.8552
 3128TIP3    H230948   6.477   1.649   2.813  0.9289  0.2966  2.2213
 3129TIP3   OH230949   4.221   0.159   8.251 -0.1800 -0.0083 -0.3886
 3129TIP3    H130950   4.238   0.173   8.158  0.0252  0.4481 -0.2866
 3129TIP3    H230951   4.132   0.192   8.265 -0.7106 -1.2659 -0.6766
 3130TIP3   OH230952   5.021   1.401   0.443 -0.0085  0.2052  0.3383
 3130TIP3    H130953   4.950   1.433   0.498 -0.9858 -0.9982 -0.1797
 3130TIP3    H230954   4.978   1.358   0.370  1.2578 -0.3260 -0.1322
 3131TIP3   OH230955   1.214   3.533   1.391 -0.0392  0.5104  0.8040
 3131TIP3    H130956   1.212   3.628   1.380  1.4164  0.6325  1.4142
 3131TIP3    H230957   1.298   3.506   1.353 -0.4249 -0.5345  0.6518
 3132TIP3   OH230958   4.511   1.488   8.201  0.3259 -0.0309 -0.6602
 3132TIP3    H130959   4.461   1.500   8.121 -0.2595 -0.5695 -0.3786
 3132TIP3    H230960   4.562   1.408   8.186  0.1766 -0.1615 -0.4834
 3133TIP3   OH230961   0.879   0.019   8.747 -0.0976 -0.1592 -0.4340
 3133TIP3    H130962   0.859  -0.071   8.724  2.1662 -1.0771  0.8505
 3133TIP3    H230963   0.962   0.014   8.795 -0.4968  2.4852  0.7126
 3134TIP3   OH230964   5.782   2.759   0.371  0.6236  0.7812 -0.2423
 3134TIP3    H130965   5.850   2.819   0.340 -0.3627  1.5129 -1.1035
 3134TIP3    H230966   5.792   2.681   0.316 -0.0224  1.3978 -1.2746
 3135TIP3   OH230967   2.169   5.599   7.220  0.7457 -0.0654 -0.5784
 3135TIP3    H130968   2.202   5.515   7.250 -1.7334 -0.7555  0.3687
 3135TIP3    H230969   2.126   5.580   7.137 -0.9038 -0.0141  0.2308
 3136TIP3   OH230970   3.869   5.573   8.576  0.0591 -0.7786 -0.5362
 3136TIP3    H130971   3.801   5.605   8.635 -0.5872 -0.6682 -1.3138
 3136TIP3    H230972   3.943   5.552   8.632 -0.5137 -0.6018  0.2926
 3137TIP3   OH230973   0.466   0.624   1.992 -0.7621 -0.8296  0.4962
 3137TIP3    H130974   0.494   0.706   2.033 -1.1521 -0.1159 -0.6420
 3137TIP3    H230975   0.384   0.603   2.036  0.1660 -1.5182  1.9670
 3138TIP3   OH230976   5.438   1.844   7.084  0.1223  0.0848  0.8348
 3138TIP3    H130977   5.450   1.760   7.039 -1.5209  0.1665  0.1755
 3138TIP3    H230978   5.363   1.884   7.040  1.5174  2.3983  0.4303
 3139TIP3   OH230979   5.288   3.532   7.365  0.3549 -0.9081  0.1739
 3139TIP3    H130980   5.366   3.579   7.394  1.0905 -2.3009  0.4990
 3139TIP3    H230981   5.321   3.454   7.322 -0.8610 -2.4656  1.9237
 3140TIP3   OH230982   0.826   5.480   2.197  0.6968  0.0496  0.2565
 3140TIP3    H130983   0.906   5.483   2.249 -0.7517  0.9579  2.6030
 3140TIP3    H230984   0.783   5.399   2.223 -1.1156  1.5650  2.3478
 3141TIP3   OH230985   4.180   5.377   1.532  0.4636  0.0058 -0.1291
 3141TIP3    H130986   4.176   5.338   1.444 -0.3105 -1.8700  0.7025
 3141TIP3    H230987   4.089   5.379   1.562  0.9183 -1.4846  1.4949
 3142TIP3   OH230988   1.213   0.354   1.374  0.0624 -0.1648 -0.1364
 3142TIP3    H130989   1.150   0.397   1.432 -0.0707  1.6877 -1.5314
 3142TIP3    H230990   1.298   0.386   1.404  0.0211  0.4661 -0.6550
 3143TIP3   OH230991   0.452   4.047   7.726 -0.0576  0.5082 -0.1918
 3143TIP3    H130992   0.445   3.952   7.724 -0.2102  0.5213 -2.0789
 3143TIP3    H230993   0.521   4.065   7.790  1.0744 -0.9604 -0.9409
 3144TIP3   OH230994   1.652   0.054   0.225  0.1121  0.2094  0.0273
 3144TIP3    H130995   1.627  -0.001   0.150  0.8303  1.3673 -1.0878
 3144TIP3    H230996   1.583   0.037   0.290 -2.5156  1.6919 -2.1345
 3145TIP3   OH230997   3.393   5.837   0.595  0.1281  0.3632 -0.0265
 3145TIP3    H130998   3.432   5.773   0.537  0.8338  0.7382  0.0251
 3145TIP3    H230999   3.396   5.797   0.682 -0.1395  0.1562 -0.1115
 3146TIP3   OH231000   5.053   3.386   7.436  0.6146 -0.0760  0.6643
 3146TIP3    H131001   4.992   3.360   7.366  0.4725 -0.7764  1.0337
 3146TIP3    H231002   5.125   3.429   7.390  0.0282  0.4119  0.1856
 3147TIP3   OH231003   4.948   2.772   7.663 -0.1148  0.3899 -0.1971
 3147TIP3    H131004   5.039   2.770   7.631 -0.1933 -1.2713 -0.4054
 3147TIP3    H231005   4.954   2.816   7.748  1.8539 -4.1685  2.3878
 3148TIP3   OH231006   0.442   0.045   0.608 -0.2871 -0.0252 -0.0434
 3148TIP3    H131007   0.488  -0.016   0.550  0.1156  0.8944 -0.7071
 3148TIP3    H231008   0.359   0.001   0.627 -0.3655 -0.4145 -1.1973
 3149TIP3   OH231009   2.400   3.557   0.709 -0.0909 -0.1647 -0.3962
 3149TIP3    H131010   2.322   3.530   0.758 -0.8708  2.1071 -0.2851
 3149TIP3    H231011   2.435   3.631   0.758  0.8860  0.2258 -1.6343
 3150TIP3   OH231012   6.540   0.266   1.859  0.5121  0.5675 -0.0545
 3150TIP3    H131013   6.559   0.214   1.937  0.5125 -1.3784 -1.3033
 3150TIP3    H231014   6.601   0.340   1.864  1.7463 -0.4838  0.8795
 3151TIP3   OH231015   1.517   1.532   1.108  0.3805 -0.4936 -0.1416
 3151TIP3    H131016   1.576   1.463   1.078  2.1714  1.0118 -0.2316
 3151TIP3    H231017   1.500   1.584   1.029 -0.1674 -0.2507  0.1320
 3152TIP3   OH231018   6.383   3.448   8.073  0.2508  0.3809 -0.1550
 3152TIP3    H131019   6.330   3.409   8.141 -0.8962  1.0787 -0.6232
 3152TIP3    H231020   6.472   3.446   8.107  0.0363 -1.3735  0.3862
 3153TIP3   OH231021   5.972   6.406   7.500 -0.1337 -0.2035 -0.1358
 3153TIP3    H131022   6.045   6.461   7.472 -0.9429  0.0234 -1.9233
 3153TIP3    H231023   5.928   6.380   7.419 -1.9261 -0.4910  0.8691
 3154TIP3   OH231024   5.650   2.502   6.989  0.4310  0.0298 -0.1224
 3154TIP3    H131025   5.581   2.545   7.040  0.2016 -0.3084 -0.1496
 3154TIP3    H231026   5.627   2.520   6.898 -0.3564 -1.2095 -0.1799
 3155TIP3   OH231027   6.288   3.680   0.340 -0.4724 -0.1631 -0.4506
 3155TIP3    H131028   6.195   3.696   0.326 -0.5085 -1.7762 -2.3876
 3155TIP3    H231029   6.324   3.766   0.362 -1.8447  1.1855 -3.0661
 3156TIP3   OH231030   3.532   1.224   7.365  0.2106  0.3652 -0.3121
 3156TIP3    H131031   3.518   1.130   7.356 -0.2311  0.4907 -0.9466
 3156TIP3    H231032   3.624   1.237   7.339  0.0740  0.2025 -0.8781
 3157TIP3   OH231033   3.024   2.889   0.948  0.3539  0.6933 -0.5235
 3157TIP3    H131034   3.057   2.835   1.020 -0.5235 -0.6281 -1.0875
 3157TIP3    H231035   2.930   2.873   0.946  0.1847  1.6237 -1.2367
 3158TIP3   OH231036   4.397   3.729   0.639 -0.0126  0.5807 -0.7056
 3158TIP3    H131037   4.394   3.823   0.661  0.9045  0.4428  0.1044
 3158TIP3    H231038   4.323   3.691   0.687  0.6379  0.6382  0.3865
 3159TIP3   OH231039   1.606   2.032   7.646  0.2943  0.4013 -0.3646
 3159TIP3    H131040   1.522   2.024   7.691  1.7637  0.3817  2.6057
 3159TIP3    H231041   1.622   2.126   7.640 -0.3564  0.4473 -1.9088
 3160TIP3   OH231042   5.997   3.237   8.067  0.3366  0.1457 -0.2712
 3160TIP3    H131043   6.050   3.208   7.993  1.8751  0.2211  0.7545
 3160TIP3    H231044   6.031   3.186   8.141 -0.6202  0.6526  0.5345
 3161TIP3   OH231045   6.179   4.819   0.664 -0.1454 -0.0963 -0.4953
 3161TIP3    H131046   6.146   4.900   0.702 -0.0977 -1.3829  2.5752
 3161TIP3    H231047   6.274   4.824   0.673 -0.1546 -0.5619 -0.0599
 3162TIP3   OH231048   0.132   5.268   6.756  0.5512  0.0061 -0.5108
 3162TIP3    H131049   0.200   5.246   6.819  0.5583 -0.0495 -0.5375
 3162TIP3    H231050   0.109   5.359   6.776 -0.1698 -0.3259  0.2379
 3163TIP3   OH231051   6.440   1.823   6.251 -0.2403  0.0762  0.7177
 3163TIP3    H131052   6.352   1.811   6.216 -0.5801  1.1432  1.1621
 3163TIP3    H231053   6.498   1.789   6.183 -0.9409  0.7136 -0.2254
 3164TIP3   OH231054   4.853   0.414   0.575  0.6676  0.1073 -0.0183
 3164TIP3    H131055   4.859   0.437   0.482 -1.3547  0.4571 -0.1187
 3164TIP3    H231056   4.770   0.366   0.582  1.6471 -1.4648  1.3291
 3165TIP3   OH231057   0.828   4.862   6.904  0.0327  0.3058  0.1681
 3165TIP3    H131058   0.807   4.952   6.930  1.6045  0.8279 -0.2214
 3165TIP3    H231059   0.786   4.807   6.969 -1.1208  1.3054  0.3080
 3166TIP3   OH231060   3.646   4.551   7.886 -0.2045 -0.2367  0.2288
 3166TIP3    H131061   3.667   4.621   7.949 -1.1227  1.0091 -0.8021
 3166TIP3    H231062   3.557   4.570   7.858 -0.3557 -1.6698 -0.3119
 3167TIP3   OH231063   6.288   3.548   7.482 -0.1782  0.2170 -0.1516
 3167TIP3    H131064   6.309   3.455   7.497  0.4831 -0.0807 -2.4909
 3167TIP3    H231065   6.262   3.581   7.568 -0.0406 -2.0335  0.8231
 3168TIP3   OH231066   0.242   5.700   8.544  0.0702 -0.5526 -0.1491
 3168TIP3    H131067   0.252   5.615   8.502  0.2672  0.3687 -2.1207
 3168TIP3    H231068   0.311   5.703   8.610  2.2133 -0.7159 -2.2366
 3169TIP3   OH231069   2.514   0.877   8.315 -0.0979  0.0492  0.3640
 3169TIP3    H131070   2.450   0.946   8.334 -1.4441 -0.6022 -1.4541
 3169TIP3    H231071   2.473   0.797   8.350  0.9175 -0.0312  1.4288
 3170TIP3   OH231072   1.536   0.499   2.057  0.4729  0.0902  0.0491
 3170TIP3    H131073   1.464   0.559   2.039  1.1856  0.4365 -2.0192
 3170TIP3    H231074   1.531   0.481   2.151  0.0977  3.2184  0.7285
 3171TIP3   OH231075   2.713   0.715   7.521  0.2471 -0.3135 -0.1108
 3171TIP3    H131076   2.646   0.690   7.458 -0.2002 -2.1029  1.0156
 3171TIP3    H231077   2.689   0.803   7.549  0.9896  0.9412 -3.0696
 3172TIP3   OH231078   6.240   3.290   8.238 -0.5727 -0.1679  0.5548
 3172TIP3    H131079   6.180   3.364   8.247 -1.6433 -0.7281 -1.4261
 3172TIP3    H231080   6.187   3.213   8.259 -0.1465 -0.5544  0.2407
 3173TIP3   OH231081   1.415   5.270   0.127 -0.5353 -0.3577 -0.5767
 3173TIP3    H131082   1.456   5.216   0.059  0.3895  0.6282 -0.8291
 3173TIP3    H231083   1.468   5.349   0.130 -2.7098  1.2344 -1.2642
 3174TIP3   OH231084   4.973   3.428   6.218  0.2562 -0.4194 -0.5507
 3174TIP3    H131085   4.919   3.506   6.219  0.3357 -0.3386  1.8382
 3174TIP3    H231086   4.924   3.366   6.164 -1.6567  0.0517  0.5557
 3175TIP3   OH231087   2.571   4.990   0.935 -0.5027 -0.0572 -0.5340
 3175TIP3    H131088   2.493   5.037   0.964 -0.3266  1.0134 -1.7169
 3175TIP3    H231089   2.555   4.971   0.843 -0.2425 -1.6979 -0.2655
 3176TIP3   OH231090   5.180   2.898   7.431  0.5926  0.2349 -0.5274
 3176TIP3    H131091   5.185   2.929   7.340  0.4787  0.0120 -0.6101
 3176TIP3    H231092   5.189   2.977   7.484 -1.6308  0.6906 -0.7403
 3177TIP3   OH231093   6.322   1.470   8.057  0.0495 -0.3408 -0.5252
 3177TIP3    H131094   6.357   1.558   8.045 -0.0981 -0.2215 -0.0837
 3177TIP3    H231095   6.342   1.425   7.975 -1.0471  0.4955 -1.2723
 3178TIP3   OH231096   3.117   0.030   0.646  0.0190  0.6377  0.2017
 3178TIP3    H131097   3.156   0.014   0.732  0.7121 -1.4237 -0.4493
 3178TIP3    H231098   3.030  -0.011   0.651  0.1792  0.2467 -0.1623
 3179TIP3   OH231099   2.150   2.074   8.761 -0.2225  0.3323 -0.1319
 3179TIP3    H131100   2.144   2.085   8.856 -0.2561  1.0030 -0.2088
 3179TIP3    H231101   2.233   2.029   8.747 -0.6329 -0.5772  0.2788
 3180TIP3   OH231102   3.446   6.138   8.342 -0.2522  0.1610 -0.0133
 3180TIP3    H131103   3.460   6.190   8.422  2.7781 -1.2417  0.5320
 3180TIP3    H231104   3.460   6.199   8.271  1.8966  0.4829  0.6144
 3181TIP3   OH231105   4.101   3.946   7.797 -0.4843 -0.1805 -0.6288
 3181TIP3    H131106   4.069   3.861   7.766  0.3126 -0.5708 -0.4184
 3181TIP3    H231107   4.024   3.989   7.833 -0.6327 -1.4678  0.6812
 3182TIP3   OH231108   2.339   5.671   0.024  0.5372  0.3167 -0.2399
 3182TIP3    H131109   2.414   5.688  -0.033 -0.7075 -0.7799 -2.3511
 3182TIP3    H231110   2.353   5.582   0.056 -0.5391 -0.5111 -1.9112
 3183TIP3   OH231111   2.729   2.192   1.948  0.0349 -0.2244 -0.2135
 3183TIP3    H131112   2.698   2.108   1.915  2.3045 -1.3167  0.2023
 3183TIP3    H231113   2.682   2.206   2.030 -0.9782 -0.6471 -0.7128
 3184TIP3   OH231114   4.526   6.668   6.379 -0.1582  0.0266 -0.9332
 3184TIP3    H131115   4.560   6.598   6.433 -1.9306 -1.3987 -1.5523
 3184TIP3    H231116   4.532   6.635   6.289  0.4904  1.3616 -1.4159
 3185TIP3   OH231117   5.382   6.274   0.212 -0.3638  0.0174  0.4211
 3185TIP3    H131118   5.426   6.192   0.191  0.8998  1.2275 -2.0106
 3185TIP3    H231119   5.295   6.265   0.173 -0.5738 -0.4710  0.9709
 3186TIP3   OH231120   6.076   4.470   1.217  0.0437  0.2181 -0.3842
 3186TIP3    H131121   6.082   4.449   1.311 -2.2532  0.1722 -0.1876
 3186TIP3    H231122   6.106   4.561   1.211 -0.1756  0.3570  0.4625
 3187TIP3   OH231123   6.185   5.278   0.511 -0.2303  0.5322  0.1155
 3187TIP3    H131124   6.219   5.251   0.426 -1.3823  0.5620 -0.3584
 3187TIP3    H231125   6.161   5.370   0.499  0.4443  0.8050  0.7442
 3188TIP3   OH231126   3.785   2.988   7.936 -0.3653  0.5683  0.0549
 3188TIP3    H131127   3.880   2.996   7.925 -0.3399  0.4409  0.1632
 3188TIP3    H231128   3.748   3.025   7.857 -0.2826  2.1848  0.7367
 3189TIP3   OH231129   2.388   5.337   7.193 -0.2998  0.4667 -0.0285
 3189TIP3    H131130   2.332   5.327   7.271  0.7810 -1.2667  0.5918
 3189TIP3    H231131   2.328   5.324   7.120 -0.7233 -1.8067  0.6269
 3190TIP3   OH231132   3.023   2.515   7.007  0.4007 -0.5510 -0.1985
 3190TIP3    H131133   3.041   2.604   6.975  0.0424 -0.8203 -1.1628
 3190TIP3    H231134   2.961   2.479   6.944  1.5204 -1.9475 -0.5269
 3191TIP3   OH231135   4.993   3.976   1.346  0.1011 -0.4193  0.6000
 3191TIP3    H131136   5.041   4.059   1.352 -0.1088 -0.3360  1.1825
 3191TIP3    H231137   5.031   3.932   1.270  0.1332  0.2612  0.2121
 3192TIP3   OH231138   2.058   6.334   8.674  0.1385  0.8143 -0.2975
 3192TIP3    H131139   2.110   6.254   8.663 -0.5823  0.1030  1.2948
 3192TIP3    H231140   2.105   6.399   8.622  1.4749 -0.3070 -0.5660
 3193TIP3   OH231141   6.507   1.753   0.462  0.7276 -0.1895 -0.6230
 3193TIP3    H131142   6.531   1.809   0.388 -1.3106  0.5564 -0.7788
 3193TIP3    H231143   6.525   1.806   0.540  0.9946 -0.2060 -0.6742
 3194TIP3   OH231144   4.026   0.539   8.490 -0.4127 -0.3994 -0.2211
 3194TIP3    H131145   4.024   0.586   8.406 -1.1299  0.2827  0.1607
 3194TIP3    H231146   4.062   0.602   8.552 -1.7609 -0.1771  0.3785
 3195TIP3   OH231147   2.028   0.990   6.460  0.1577 -0.1414 -0.3955
 3195TIP3    H131148   2.116   0.958   6.482  0.6021  0.7641 -0.8012
 3195TIP3    H231149   2.022   1.075   6.503  0.4799  0.9890 -2.4700
 3196TIP3   OH231150   6.126   3.664   8.460 -0.3557  0.3009 -0.3732
 3196TIP3    H131151   6.091   3.600   8.398  0.5133 -0.4118 -0.1445
 3196TIP3    H231152   6.220   3.651   8.458 -0.3245  0.0508  1.3005
 3197TIP3   OH231153   4.914   5.945   1.873  0.3359  0.5426  0.1758
 3197TIP3    H131154   4.898   6.006   1.945 -0.2723  0.9155 -0.2715
 3197TIP3    H231155   4.975   5.991   1.816 -0.8382  1.1367 -0.6419
 3198TIP3   OH231156   5.644   5.772   1.932  0.2806 -0.5864 -0.1947
 3198TIP3    H131157   5.598   5.724   2.000  1.6541  1.1060  2.0449
 3198TIP3    H231158   5.706   5.828   1.979  0.9799  1.0205 -2.8160
 3199TIP3   OH231159   1.210   1.824   8.630 -0.4781  0.2335 -0.4236
 3199TIP3    H131160   1.270   1.899   8.638 -0.0495 -0.0889 -0.6032
 3199TIP3    H231161   1.154   1.846   8.555 -0.6049  0.5444 -0.2427
 3200TIP3   OH231162   6.043   2.126   7.682  0.7754 -0.4962  0.8121
 3200TIP3    H131163   6.083   2.210   7.662  1.2842 -0.8151  0.4607
 3200TIP3    H231164   6.002   2.139   7.768  0.7956  0.1224  0.7336
 3201TIP3   OH231165   2.551   2.367   6.824  0.3274 -0.1575 -0.2212
 3201TIP3    H131166   2.476   2.420   6.851  0.9443  0.0729  1.0868
 3201TIP3    H231167   2.547   2.289   6.879  1.4698  0.2081  0.4177
 3202TIP3   OH231168   5.389   0.245   1.753  0.4738  0.3485 -0.6378
 3202TIP3    H131169   5.392   0.282   1.842  0.4328  0.3909 -0.6538
 3202TIP3    H231170   5.462   0.184   1.750  1.6801  1.7647 -1.1938
 3203TIP3   OH231171   2.493   4.199   1.617 -0.3064  0.5244 -0.3323
 3203TIP3    H131172   2.524   4.287   1.640  1.5934 -0.1088 -0.2460
 3203TIP3    H231173   2.535   4.141   1.682 -1.3097 -0.4843 -0.5453
 3204TIP3   OH231174   3.479   2.767   0.579 -0.0128  0.6086 -0.7506
 3204TIP3    H131175   3.443   2.681   0.601 -1.1523  1.3976  0.5627
 3204TIP3    H231176   3.486   2.813   0.663  2.7422  1.0251 -1.1136
 3205TIP3   OH231177   5.000   4.208   8.017  0.1479  0.3990 -0.2644
 3205TIP3    H131178   4.925   4.186   8.072  0.2269  0.1436 -0.2537
 3205TIP3    H231179   5.008   4.133   7.957  0.2760  0.5131 -0.3923
 3206TIP3   OH231180   0.324   3.570   0.764  0.2218  0.0293  0.0631
 3206TIP3    H131181   0.254   3.558   0.828  0.2001  0.2162  0.0760
 3206TIP3    H231182   0.314   3.661   0.735 -1.6832 -0.8559 -2.4609
 3207TIP3   OH231183   1.553   3.787   7.530  0.2927 -0.0102 -0.3835
 3207TIP3    H131184   1.476   3.840   7.552  0.2484  0.6656 -2.0684
 3207TIP3    H231185   1.624   3.830   7.578 -0.2664 -0.3804  0.8393
 3208TIP3   OH231186   1.502   3.144   1.307 -0.8781  0.1198 -0.2790
 3208TIP3    H131187   1.511   3.187   1.392 -1.9101  0.4235 -0.3076
 3208TIP3    H231188   1.568   3.185   1.252 -1.1500  0.9352 -0.0120
 3209TIP3   OH231189   4.097   1.607   7.992 -0.2976 -0.1220 -0.4775
 3209TIP3    H131190   4.026   1.627   7.931 -0.6567 -0.7093 -0.2565
 3209TIP3    H231191   4.107   1.512   7.988  1.5630  0.0652 -1.7077
 3210TIP3   OH231192   2.796   5.475   2.091  0.3744  0.0393 -0.6138
 3210TIP3    H131193   2.864   5.543   2.092  0.8769 -0.4589 -0.5040
 3210TIP3    H231194   2.812   5.426   2.010  0.2918 -0.2251 -0.4719
 3211TIP3   OH231195   5.514   3.980   1.446 -0.2954  0.3470 -0.2593
 3211TIP3    H131196   5.567   4.059   1.456  1.2616 -0.1807 -3.2647
 3211TIP3    H231197   5.469   3.992   1.363 -1.7114 -1.0572  0.2450
 3212TIP3   OH231198   1.031   2.232   7.660  0.2890 -0.2799 -0.2545
 3212TIP3    H131199   0.940   2.240   7.633 -0.3225 -0.9922  1.4778
 3212TIP3    H231200   1.072   2.179   7.591  0.0887  2.1452 -2.4177
 3213TIP3   OH231201   4.934   2.645   8.360 -0.0177  0.0719  0.3099
 3213TIP3    H131202   4.991   2.673   8.432  0.9252  1.4080 -0.9036
 3213TIP3    H231203   4.891   2.725   8.331  0.2922 -0.2819 -1.1783
 3214TIP3   OH231204   2.922   3.295   8.330 -0.6855  0.3540  0.3469
 3214TIP3    H131205   2.986   3.349   8.284  1.2041 -0.6675  1.5939
 3214TIP3    H231206   2.896   3.228   8.267 -0.0342  0.4260 -0.0013
 3215TIP3   OH231207   3.067   2.886   8.665  0.3837 -0.2707 -0.6122
 3215TIP3    H131208   3.038   2.954   8.604 -0.5755  0.3648  0.5048
 3215TIP3    H231209   2.997   2.821   8.664  0.1711 -0.0696  0.0602
 3216TIP3   OH231210   6.419   0.326   8.615 -0.4271  0.0172  0.3530
 3216TIP3    H131211   6.440   0.324   8.709 -0.6665  0.2702  0.4145
 3216TIP3    H231212   6.417   0.234   8.589  1.4306 -0.0016  0.1848
 3217TIP3   OH231213   6.333   1.179   7.261 -0.0719  0.5617  0.2273
 3217TIP3    H131214   6.267   1.189   7.192  0.4129  0.5912 -0.2381
 3217TIP3    H231215   6.350   1.085   7.264 -0.2683  0.5338  0.4735
 3218TIP3   OH231216   1.359   4.910   1.796 -0.0544 -0.1171  0.3231
 3218TIP3    H131217   1.305   4.951   1.864 -0.8894 -0.7710  0.0726
 3218TIP3    H231218   1.387   4.828   1.836  2.5116  1.1011  1.2389
 3219TIP3   OH231219   5.051   6.012   1.018 -0.2005  0.0388 -0.3825
 3219TIP3    H131220   4.995   5.979   1.089  0.8692 -1.2993 -0.1175
 3219TIP3    H231221   5.050   6.107   1.030 -0.4320 -0.1209  1.1480
 3220TIP3   OH231222   2.297   5.369   1.885 -0.2442 -0.4433  0.8527
 3220TIP3    H131223   2.217   5.330   1.920 -0.7869 -0.2248 -0.1084
 3220TIP3    H231224   2.343   5.404   1.962 -1.0783 -0.5554  1.4099
 3221TIP3   OH231225   5.769   5.245   0.602  0.6851  0.1678 -0.0070
 3221TIP3    H131226   5.822   5.181   0.556  1.3034  1.0518 -0.5587
 3221TIP3    H231227   5.791   5.233   0.694  1.0862 -0.1493 -0.1423
 3222TIP3   OH231228   4.027   1.279   7.713  0.1711 -0.3652  0.6692
 3222TIP3    H131229   3.947   1.228   7.727 -0.2733  0.3933  0.9250
 3222TIP3    H231230   4.084   1.220   7.662  0.6844 -2.0963  3.0793
 3223TIP3   OH231231   1.208   6.543   1.911 -0.2987 -0.6420  0.8069
 3223TIP3    H131232   1.154   6.617   1.885  0.7383 -0.1881 -0.1464
 3223TIP3    H231233   1.284   6.583   1.954 -0.6417 -1.2617  2.0542
 3224TIP3   OH231234   1.983   0.457   1.919 -0.0340  0.5311 -0.8057
 3224TIP3    H131235   1.983   0.362   1.908 -2.3758  0.4478 -0.5628
 3224TIP3    H231236   2.046   0.472   1.990 -0.6185 -1.0005  0.1103
 3225TIP3   OH231237   1.764   4.597   7.015 -0.0881 -0.2022  0.4092
 3225TIP3    H131238   1.820   4.568   6.943  0.1946 -0.9880  0.9302
 3225TIP3    H231239   1.752   4.691   6.999 -0.6416 -0.4885 -1.0761
 3226TIP3   OH231240   4.999   1.619   0.111 -0.1169  0.0088  0.0949
 3226TIP3    H131241   5.011   1.661   0.196 -0.5839  0.1460  0.0947
 3226TIP3    H231242   4.924   1.561   0.123  1.1020 -1.5779  0.3724
 3227TIP3   OH231243   5.536   3.694   7.433  0.2262 -0.3492 -0.1798
 3227TIP3    H131244   5.558   3.730   7.519 -3.6265 -0.6218  1.0944
 3227TIP3    H231245   5.565   3.760   7.371  1.8909  0.4758  1.3826
 3228TIP3   OH231246   6.177   2.625   6.890 -0.2192 -0.1236 -0.1413
 3228TIP3    H131247   6.248   2.618   6.953 -1.3970 -0.9125  1.1388
 3228TIP3    H231248   6.219   2.656   6.810  1.3633  0.5602  0.9170
 3229TIP3   OH231249   4.640   0.252   1.960 -0.7316 -0.1244 -0.0863
 3229TIP3    H131250   4.639   0.166   1.917 -2.2261  0.6525 -1.7779
 3229TIP3    H231251   4.628   0.234   2.053 -0.8832 -1.7604 -0.4040
 3230TIP3   OH231252   3.228   2.422   7.708  0.0997 -0.0302 -0.4346
 3230TIP3    H131253   3.148   2.383   7.745 -0.4821 -0.6580 -2.2246
 3230TIP3    H231254   3.210   2.516   7.706 -0.6104 -0.1588 -0.7625
 3231TIP3   OH231255   6.639   0.781   0.658 -0.0376  0.0780 -0.0694
 3231TIP3    H131256   6.628   0.703   0.713 -1.2154 -0.7985 -1.4567
 3231TIP3    H231257   6.703   0.834   0.704  0.2038 -1.3452  1.3309
 3232TIP3   OH231258   0.757   2.028   1.572 -0.1098  0.0575  0.0383
 3232TIP3    H131259   0.844   2.061   1.596 -0.0123  0.4891 -0.8702
 3232TIP3    H231260   0.775   1.945   1.528 -0.0563  0.6713 -1.1384
 3233TIP3   OH231261   6.510   5.068   1.720 -0.1824 -0.2896  0.4039
 3233TIP3    H131262   6.546   5.130   1.656  0.3816 -1.3237 -0.3076
 3233TIP3    H231263   6.468   5.000   1.667  0.3771 -1.2112  1.1146
 3234TIP3   OH231264   5.760   5.319   1.880 -0.7249 -0.4983 -0.3967
 3234TIP3    H131265   5.809   5.298   1.960  1.5480  0.1566 -1.5106
 3234TIP3    H231266   5.789   5.253   1.817 -1.2009 -0.0207 -1.1261
 3235TIP3   OH231267   3.902   0.435   8.038 -0.1754  0.3215  0.1672
 3235TIP3    H131268   3.807   0.421   8.038 -0.1465  0.0931 -0.7516
 3235TIP3    H231269   3.927   0.432   7.946  0.8607 -0.5530  0.4606
 3236TIP3   OH231270   4.686   3.585   1.588  0.7131  0.4841 -0.5596
 3236TIP3    H131271   4.772   3.611   1.555  1.5323 -0.0375  1.0545
 3236TIP3    H231272   4.705   3.518   1.654 -0.9986 -0.3008 -0.7945
 3237TIP3   OH231273   5.817   3.453   7.995 -0.0888  0.3497  0.1797
 3237TIP3    H131274   5.771   3.497   8.066  2.0198  2.9973  0.0660
 3237TIP3    H231275   5.889   3.408   8.038  0.1031  0.3867 -0.1046
 3238TIP3   OH231276   6.032   5.732   8.167 -0.4498  0.0008 -0.2642
 3238TIP3    H131277   6.076   5.671   8.108 -0.5860 -0.8973  0.5290
 3238TIP3    H231278   6.090   5.740   8.243 -2.5141 -3.0847  1.9234
 3239TIP3   OH231279   5.461   1.009   0.392  0.2177 -0.4304 -0.0977
 3239TIP3    H131280   5.447   1.040   0.303 -2.9046 -1.0118  0.0842
 3239TIP3    H231281   5.487   0.917   0.381  0.8763 -0.2135 -0.4105
 3240TIP3   OH231282   5.966   3.323   7.735  0.1452  0.0184 -0.1181
 3240TIP3    H131283   5.891   3.269   7.709 -1.6033  1.7071  1.1360
 3240TIP3    H231284   6.039   3.289   7.683 -1.6490 -1.1621 -2.0308
 3241TIP3   OH231285   3.825   1.438   1.887  0.5203 -0.2305 -0.0326
 3241TIP3    H131286   3.900   1.380   1.899  1.3014  0.1956 -2.3965
 3241TIP3    H231287   3.856   1.524   1.914  0.4602 -0.2896  0.2253
 3242TIP3   OH231288   0.122   6.502   1.607  0.2675  0.2738  0.0359
 3242TIP3    H131289   0.172   6.508   1.526 -1.0519 -0.8039 -0.8982
 3242TIP3    H231290   0.032   6.520   1.582 -0.7144 -3.0383  0.5919
 3243TIP3   OH231291   1.797   4.512   1.802 -0.2379  0.7253 -0.1537
 3243TIP3    H131292   1.874   4.567   1.817 -0.0858  0.4060  0.2380
 3243TIP3    H231293   1.730   4.550   1.858  0.3699 -0.5528  1.5215
 3244TIP3   OH231294   2.618   2.873   6.420 -0.2023  0.1786 -0.0111
 3244TIP3    H131295   2.570   2.800   6.459  1.4246  0.3563  2.5972
 3244TIP3    H231296   2.552   2.941   6.406 -1.0353 -0.2130  1.7760
 3245TIP3   OH231297   3.398   0.968   7.089 -0.1764 -0.2598 -0.1182
 3245TIP3    H131298   3.313   1.000   7.058 -0.9472 -2.5343 -0.5738
 3245TIP3    H231299   3.398   0.875   7.066  1.8009 -0.6725  1.2865
 3246TIP3   OH231300   1.766   3.399   8.223  0.5527 -0.2486  0.2412
 3246TIP3    H131301   1.815   3.323   8.189  1.1731  0.3386 -0.2099
 3246TIP3    H231302   1.681   3.363   8.249  0.3113 -0.8681 -1.2870
 3247TIP3   OH231303   1.030   5.728   2.061  0.1594 -0.2617  0.1457
 3247TIP3    H131304   1.012   5.681   2.142  0.6954  0.5181  0.7296
 3247TIP3    H231305   1.072   5.663   2.005 -0.2521 -0.8193  0.4672
 3248TIP3   OH231306   1.906   5.574   0.614 -0.5056  0.2763  0.3012
 3248TIP3    H131307   1.942   5.650   0.570  0.2827  0.8032  1.7960
 3248TIP3    H231308   1.812   5.577   0.596 -0.3029  0.8927 -0.6789
 3249TIP3   OH231309   3.550   0.824   0.769 -0.6389  0.4238  0.3534
 3249TIP3    H131310   3.544   0.903   0.716  1.6302  0.6870  0.3650
 3249TIP3    H231311   3.583   0.757   0.709 -0.0636  0.1760  0.9308
 3250TIP3   OH231312   0.032   1.232   7.955  0.1577 -0.3747  0.4299
 3250TIP3    H131313   0.091   1.215   7.882  0.7413  1.2600  0.4944
 3250TIP3    H231314   0.076   1.193   8.031 -0.1868 -1.5848  0.0290
 3251TIP3   OH231315   0.909   5.712   7.269 -0.1659  0.1611 -0.4092
 3251TIP3    H131316   0.945   5.654   7.336 -1.5861 -1.1717 -0.7572
 3251TIP3    H231317   0.815   5.697   7.272 -0.5665  2.3191 -0.6668
 3252TIP3   OH231318   5.808   0.428   2.200  0.3687  0.1683  0.2568
 3252TIP3    H131319   5.824   0.387   2.285  0.2624 -1.1460 -0.3299
 3252TIP3    H231320   5.894   0.459   2.172  0.3464  0.8997  0.9887
 3253TIP3   OH231321   3.134   4.368   0.164  0.2881  0.2205 -0.1658
 3253TIP3    H131322   3.136   4.453   0.209 -0.3595  1.0413 -1.6254
 3253TIP3    H231323   3.115   4.390   0.073 -0.5432 -1.5481 -0.4519
 3254TIP3   OH231324   5.011   4.689   6.877 -0.3072  0.2005  0.1385
 3254TIP3    H131325   5.043   4.771   6.840  1.6528 -0.2583  0.7005
 3254TIP3    H231326   4.920   4.684   6.849  0.1055  1.5596 -1.6445
 3255TIP3   OH231327   3.888   1.477   0.874  0.5676 -0.8164  0.0439
 3255TIP3    H131328   3.805   1.429   0.875 -0.1241  0.3267 -0.8075
 3255TIP3    H231329   3.951   1.415   0.837 -0.7363 -0.4823 -3.0479
 3256TIP3   OH231330   4.135   1.806   7.207  0.1482 -0.0375 -0.5742
 3256TIP3    H131331   4.138   1.839   7.117  2.1188  0.3350 -0.3999
 3256TIP3    H231332   4.148   1.712   7.199 -2.5551 -0.4705 -0.8429
 3257TIP3   OH231333   0.935   5.685   1.079 -0.5134 -0.0651  0.1136
 3257TIP3    H131334   0.862   5.710   1.022 -0.2876  0.0586 -0.1222
 3257TIP3    H231335   0.893   5.648   1.157 -0.8276 -0.9050 -0.4316
 3258TIP3   OH231336   4.828   5.823   1.559 -0.3550 -0.3109 -0.1525
 3258TIP3    H131337   4.765   5.826   1.632 -0.8770  1.5211 -0.6397
 3258TIP3    H231338   4.775   5.805   1.482 -0.1273  0.1277 -0.4125
 3259TIP3   OH231339   5.228   4.562   6.973 -0.8435  0.1074  0.6292
 3259TIP3    H131340   5.162   4.630   6.960 -1.6387 -0.6918  0.2993
 3259TIP3    H231341   5.303   4.590   6.920 -1.1185  0.7696  0.5785
 3260TIP3   OH231342   4.803   1.447   0.586  0.1814 -0.3512  0.0083
 3260TIP3    H131343   4.748   1.513   0.629  1.3363  0.8520 -0.2897
 3260TIP3    H231344   4.741   1.381   0.555 -0.7646 -0.8162  2.6808
 3261TIP3   OH231345   5.229   6.781   8.676 -0.0581 -0.2875  0.2783
 3261TIP3    H131346   5.261   6.739   8.597 -1.2745  0.8557 -0.8792
 3261TIP3    H231347   5.241   6.875   8.659 -2.9731  0.1554  0.1714
 3262TIP3   OH231348   3.359   5.783   8.639  0.1481  0.0650 -0.6369
 3262TIP3    H131349   3.387   5.717   8.702 -1.8000  1.5853  1.9965
 3262TIP3    H231350   3.263   5.778   8.641 -0.0359 -0.2320 -4.0434
 3263TIP3   OH231351   2.967   1.000   8.255 -0.2846  0.3008  0.3350
 3263TIP3    H131352   2.981   1.088   8.219 -1.5019  0.0920 -0.7308
 3263TIP3    H231353   2.876   1.001   8.286  0.4118  0.1325  2.5222
 3264TIP3   OH231354   1.860   5.131   8.548  0.5835 -0.2423  0.4636
 3264TIP3    H131355   1.918   5.056   8.564 -0.3458 -0.7900  1.4798
 3264TIP3    H231356   1.774   5.100   8.578  0.0566  1.0120  0.2742
 3265TIP3   OH231357   4.800   0.918   1.351 -0.7170 -0.0890 -0.1024
 3265TIP3    H131358   4.796   0.830   1.315 -0.8712 -0.3230  0.4719
 3265TIP3    H231359   4.737   0.918   1.423 -0.8180  0.5308 -0.1844
 3266TIP3   OH231360   3.881   6.692   1.504 -0.6823 -0.0313  0.4614
 3266TIP3    H131361   3.871   6.636   1.581  0.6375 -1.0939 -0.0929
 3266TIP3    H231362   3.888   6.780   1.540  1.8473 -0.6683  1.8087
 3267TIP3   OH231363   0.458   4.358   8.317 -0.2720  0.1212  0.5410
 3267TIP3    H131364   0.538   4.406   8.296  0.0591  0.1736  1.8749
 3267TIP3    H231365   0.391   4.397   8.260  0.9636 -1.0983 -1.8912
 3268TIP3   OH231366   1.355   1.596   8.014  0.1033 -0.0648  0.0104
 3268TIP3    H131367   1.347   1.685   8.051  1.0476 -0.0143  0.1143
 3268TIP3    H231368   1.389   1.610   7.926  0.0444 -0.3115 -0.0502
 3269TIP3   OH231369   5.893   3.878   8.165 -0.4515  0.3778 -0.5814
 3269TIP3    H131370   5.850   3.948   8.115  2.0008  1.8149 -0.8224
 3269TIP3    H231371   5.966   3.850   8.110  3.1869  2.9261  2.4699
 3270TIP3   OH231372   0.600   3.154   0.459 -0.3908 -0.1098  0.5935
 3270TIP3    H131373   0.577   3.115   0.543 -1.1738  0.6258  0.7445
 3270TIP3    H231374   0.519   3.151   0.408  0.3672 -1.6294 -0.5975
 3271TIP3   OH231375   0.019   0.229   7.441 -0.2858  0.2285  0.2309
 3271TIP3    H131376   0.057   0.291   7.378  0.3750 -0.3828  0.0007
 3271TIP3    H231377  -0.075   0.235   7.427 -0.1928  0.6975 -0.2488
 3272TIP3   OH231378   2.725   5.709   0.577 -0.4275  0.1941 -0.0079
 3272TIP3    H131379   2.689   5.696   0.665 -1.6990  1.0278 -0.3607
 3272TIP3    H231380   2.709   5.802   0.558 -0.6873 -0.0922 -1.3281
 3273TIP3   OH231381   0.509   3.912   1.601  0.5506 -0.1616 -0.2747
 3273TIP3    H131382   0.494   3.988   1.658  2.7426 -1.5443  2.4330
 3273TIP3    H231383   0.433   3.856   1.615  0.0628  0.4430 -0.4226
 3274TIP3   OH231384   4.951   6.325   8.525  0.1860 -0.5144 -0.2045
 3274TIP3    H131385   4.866   6.368   8.514  0.6234  0.6342  0.6752
 3274TIP3    H231386   4.938   6.266   8.599  0.8124  1.6014  1.6904
 3275TIP3   OH231387   4.606   5.410   0.380  0.0323 -0.3212  1.1154
 3275TIP3    H131388   4.541   5.465   0.335 -2.3357 -2.4535  1.6794
 3275TIP3    H231389   4.690   5.436   0.342 -1.5931 -0.8783 -3.4869
 3276TIP3   OH231390   4.365   2.316   0.940  0.5524 -0.3115 -0.5168
 3276TIP3    H131391   4.357   2.237   0.993  1.7625 -0.9822 -1.2939
 3276TIP3    H231392   4.396   2.383   1.001  0.2939 -0.6381 -0.0225
 3277TIP3   OH231393   0.029   1.651   6.705 -0.5989  0.2268 -0.0565
 3277TIP3    H131394   0.058   1.606   6.625 -1.4485 -4.0605  1.7963
 3277TIP3    H231395   0.108   1.662   6.757 -0.4538  0.5781 -0.3421
 3278TIP3   OH231396   3.807   5.597   0.038 -0.0680 -0.6648  0.2143
 3278TIP3    H131397   3.832   5.660  -0.030 -1.2977  0.0760  0.4111
 3278TIP3    H231398   3.834   5.639   0.120 -1.5246 -0.0075  0.4044
 3279TIP3   OH231399   2.671   6.339   8.503 -0.5354 -0.1783 -0.2255
 3279TIP3    H131400   2.608   6.409   8.482 -0.5582  0.2424  1.1069
 3279TIP3    H231401   2.756   6.376   8.482 -0.5853  0.0932  0.0341
 3280TIP3   OH231402   2.427   3.438   1.092  0.5328 -0.2050 -0.3697
 3280TIP3    H131403   2.513   3.473   1.066  0.4924 -0.5935 -1.0467
 3280TIP3    H231404   2.377   3.516   1.117  1.2105 -0.0121  0.4266
 3281TIP3   OH231405   3.230   5.022   0.383 -0.1738  0.1393 -0.5160
 3281TIP3    H131406   3.257   5.111   0.362 -2.1424  0.5147 -1.7235
 3281TIP3    H231407   3.225   5.020   0.479 -0.5571  1.4974 -0.4844
 3282TIP3   OH231408   4.296   0.625   2.040 -0.2493  0.0995  0.3264
 3282TIP3    H131409   4.205   0.649   2.058  0.0176  2.7712 -1.3202
 3282TIP3    H231410   4.331   0.699   1.990  2.7597 -0.9862  0.6112
 3283TIP3   OH231411   4.597   5.586   7.383 -0.3243 -0.5954  0.5872
 3283TIP3    H131412   4.674   5.642   7.394 -1.8161  1.3782  1.9351
 3283TIP3    H231413   4.573   5.597   7.291  0.1359  0.0344  0.5309
 3284TIP3   OH231414   5.738   5.897   1.060 -0.1864 -0.4949 -0.3641
 3284TIP3    H131415   5.819   5.927   1.018  0.4475 -2.0365 -0.3252
 3284TIP3    H231416   5.765   5.871   1.148 -0.5363 -1.7837 -0.6127
 3285TIP3   OH231417   1.624   4.436   1.270  0.0876 -0.2400  0.5292
 3285TIP3    H131418   1.612   4.362   1.210 -0.7363  0.0262  0.3570
 3285TIP3    H231419   1.553   4.428   1.333  0.9308 -0.4993  1.4660
 3286TIP3   OH231420   5.173   2.536   0.124  0.0361 -0.4490 -0.1435
 3286TIP3    H131421   5.146   2.450   0.091 -0.1370 -0.4538  0.0121
 3286TIP3    H231422   5.094   2.590   0.118 -0.2280 -0.6806  1.0606
 3287TIP3   OH231423   3.128   1.455   1.449 -0.2054  0.5283 -0.0992
 3287TIP3    H131424   3.105   1.465   1.541  0.7983  0.7852  0.1301
 3287TIP3    H231425   3.162   1.541   1.424 -0.9990  0.6357 -0.8767
 3288TIP3   OH231426   6.569   3.753   7.562  0.7675  0.2382 -0.5782
 3288TIP3    H131427   6.518   3.823   7.522  0.7442 -0.7749 -2.4135
 3288TIP3    H231428   6.508   3.680   7.571  1.1264  0.0103  0.1015
 3289TIP3   OH231429   3.466   5.017   7.484  0.0814  0.0293  0.0431
 3289TIP3    H131430   3.481   5.065   7.403  1.3663  1.3868  1.0443
 3289TIP3    H231431   3.541   5.039   7.540  0.0640 -2.1386  1.0284
 3290TIP3   OH231432   4.007   0.636   1.561  0.0715 -0.6182 -0.2923
 3290TIP3    H131433   3.934   0.678   1.515  1.0480 -0.2496 -1.5569
 3290TIP3    H231434   3.973   0.550   1.587 -0.5438 -0.8326 -1.6986
 3291TIP3   OH231435   3.480   6.173   1.204  0.1587  0.0400  0.0642
 3291TIP3    H131436   3.410   6.231   1.236  0.2432  1.7103 -2.4717
 3291TIP3    H231437   3.453   6.150   1.115  0.9049 -2.6679  0.4400
 3292TIP3   OH231438   4.404   5.408   1.281 -0.1376 -0.1021  0.0347
 3292TIP3    H131439   4.468   5.430   1.348  1.4203 -0.1526 -1.3699
 3292TIP3    H231440   4.332   5.469   1.296  0.0200 -0.3243  1.9167
 3293TIP3   OH231441   5.662   5.371   0.365 -0.4756  0.1363  0.0071
 3293TIP3    H131442   5.737   5.348   0.310  0.9212  0.8948  1.5381
 3293TIP3    H231443   5.672   5.316   0.443 -1.7705 -0.0650  0.0528
 3294TIP3   OH231444   6.308   3.769   1.458 -0.1137 -0.0322 -0.3001
 3294TIP3    H131445   6.288   3.736   1.370  0.3714 -1.3497  0.0542
 3294TIP3    H231446   6.325   3.862   1.446 -2.4334  0.3355 -1.2133
 3295TIP3   OH231447   4.369   0.447   0.093  0.0858 -0.8070 -0.7642
 3295TIP3    H131448   4.358   0.539   0.073 -1.1978 -0.8928 -0.5544
 3295TIP3    H231449   4.309   0.402   0.034 -0.3270 -1.3931  0.0750
 3296TIP3   OH231450   0.900   3.259   6.730  0.6175  0.1353 -0.3839
 3296TIP3    H131451   0.845   3.184   6.708  1.4547 -1.6246  2.9463
 3296TIP3    H231452   0.847   3.335   6.704 -1.6850 -1.5261 -0.9158
 3297TIP3   OH231453   1.027   4.173   8.725 -0.0184  0.5507  0.3184
 3297TIP3    H131454   0.946   4.149   8.770  0.2720  0.6186  0.8990
 3297TIP3    H231455   1.062   4.091   8.692 -0.1142  0.4649  0.4300
 3298TIP3   OH231456   2.391   5.819   7.898 -0.1468  0.7462  0.1004
 3298TIP3    H131457   2.449   5.790   7.968  0.9635  1.1352 -0.6324
 3298TIP3    H231458   2.449   5.835   7.824 -1.2631  0.6423 -0.8205
 3299TIP3   OH231459   3.574   0.464   8.542  0.2516 -0.2197 -0.3320
 3299TIP3    H131460   3.531   0.457   8.457  0.0102 -1.5536 -0.1209
 3299TIP3    H231461   3.522   0.408   8.600  0.5031  0.5365  0.6665
 3300TIP3   OH231462   5.878   5.333   7.216 -0.0438  0.0821 -0.6816
 3300TIP3    H131463   5.828   5.366   7.291 -1.1118 -2.0094 -0.3802
 3300TIP3    H231464   5.815   5.334   7.143 -0.1460 -1.2513 -0.6408
 3301TIP3   OH231465   4.960   5.736   7.678 -0.4274 -0.0864 -0.5389
 3301TIP3    H131466   5.046   5.776   7.689 -0.4792  0.1838 -1.1097
 3301TIP3    H231467   4.952   5.721   7.584 -1.4007  0.7651 -0.6093
 3302TIP3   OH231468   3.891   3.724   6.949 -0.1423  0.1899  0.2533
 3302TIP3    H131469   3.839   3.803   6.963 -0.0445  0.0460  1.4863
 3302TIP3    H231470   3.827   3.653   6.953 -0.0869  0.1290  0.0793
 3303TIP3   OH231471   4.000   3.480   0.043 -0.5040  0.1493  0.0719
 3303TIP3    H131472   4.000   3.482  -0.053 -0.5628  0.3565  0.0744
 3303TIP3    H231473   3.995   3.388   0.066  0.1541  0.0572 -0.1288
 3304TIP3   OH231474   5.892   1.188   1.281  0.3207  0.2220  0.8418
 3304TIP3    H131475   5.834   1.111   1.284 -0.7832  1.0454  1.6700
 3304TIP3    H231476   5.926   1.195   1.371  2.4215 -0.7337  0.1831
 3305TIP3   OH231477   1.089   4.087   6.615  0.8640  0.2614 -0.2962
 3305TIP3    H131478   1.120   4.031   6.687 -0.1899  0.8158  0.6162
 3305TIP3    H231479   1.020   4.140   6.654 -0.2217  0.0933 -1.9060
 3306TIP3   OH231480   4.106   6.784   6.913 -0.1046  0.6796  0.3493
 3306TIP3    H131481   4.179   6.836   6.948 -0.2794  0.0345  1.7264
 3306TIP3    H231482   4.105   6.804   6.820  0.8365  1.9182  0.5825
 3307TIP3   OH231483   5.678   0.262   7.358  0.1734  0.2432  0.4520
 3307TIP3    H131484   5.736   0.290   7.287  0.8645  0.1696  0.9692
 3307TIP3    H231485   5.738   0.245   7.431 -0.4604 -0.3282  0.8439
 3308TIP3   OH231486   0.248   4.167   7.570  0.4281 -0.6642 -0.4388
 3308TIP3    H131487   0.192   4.151   7.645 -0.9270 -2.3248 -1.7332
 3308TIP3    H231488   0.332   4.127   7.593  0.3078 -0.4016  0.4983
 3309TIP3   OH231489   6.405   6.230   0.945 -0.4896  0.5526 -0.6165
 3309TIP3    H131490   6.319   6.189   0.943 -0.3968  0.3362 -0.0121
 3309TIP3    H231491   6.414   6.269   0.857 -0.0258 -1.8136 -1.6929
 3310TIP3   OH231492   3.107   0.170   7.801 -0.1203 -0.5404  0.0716
 3310TIP3    H131493   3.064   0.087   7.819  0.4877 -0.7206  0.7658
 3310TIP3    H231494   3.051   0.213   7.736 -1.7800 -0.3980  1.5175
 3311TIP3   OH231495   0.542   6.517   0.913 -0.2174 -0.1390  0.7281
 3311TIP3    H131496   0.473   6.532   0.848  1.0368  1.0664 -0.3934
 3311TIP3    H231497   0.622   6.512   0.862  0.6086 -1.0893  2.0482
 3312TIP3   OH231498   4.604   1.460   0.982 -0.1140 -0.2345  0.3659
 3312TIP3    H131499   4.674   1.405   0.949  1.6833  2.0584  0.0883
 3312TIP3    H231500   4.609   1.450   1.077  0.0867 -0.6657  0.3117
 3313TIP3   OH231501   4.253   3.680   5.888 -0.2625 -0.5237  0.5224
 3313TIP3    H131502   4.238   3.689   5.983  3.5795  0.8967  1.1850
 3313TIP3    H231503   4.334   3.629   5.882  0.9149  1.4330 -1.8331
 3314TIP3   OH231504   4.708   6.555   8.241 -0.0507  0.1416  0.0397
 3314TIP3    H131505   4.697   6.645   8.272  0.3483  0.7911 -1.5792
 3314TIP3    H231506   4.634   6.541   8.182  0.0160 -0.5021  0.1044
 3315TIP3   OH231507   6.085   6.401   6.723 -0.2521 -0.4703 -0.6134
 3315TIP3    H131508   6.009   6.343   6.721 -0.4567 -0.1965 -0.8710
 3315TIP3    H231509   6.145   6.363   6.659  0.1998 -1.1812  0.2156
 3316TIP3   OH231510   2.711   4.894   8.474  0.1185 -0.1294 -0.0543
 3316TIP3    H131511   2.640   4.844   8.515  0.1422 -0.7929 -0.7839
 3316TIP3    H231512   2.779   4.829   8.458  1.5485  0.7554  1.9978
 3317TIP3   OH231513   6.714   3.570   7.787 -0.1589  0.8408  0.4911
 3317TIP3    H131514   6.809   3.582   7.790 -0.0894  0.5066 -0.2077
 3317TIP3    H231515   6.681   3.649   7.744 -0.0829  0.4331 -0.3328
 3318TIP3   OH231516   1.469   6.329   6.982  0.3102  0.5576  0.3412
 3318TIP3    H131517   1.525   6.403   6.960  0.2415  0.6686  0.5314
 3318TIP3    H231518   1.509   6.254   6.939 -0.2623  0.8983 -0.8122
 3319TIP3   OH231519   1.387   2.425   2.305  0.0182 -0.3933  0.1423
 3319TIP3    H131520   1.309   2.477   2.327  0.0655 -0.5215  0.6076
 3319TIP3    H231521   1.371   2.340   2.344 -0.1685 -0.8218 -0.8343
 3320TIP3   OH231522   0.584   3.850   1.933  0.2894  0.5149 -0.3353
 3320TIP3    H131523   0.530   3.783   1.893 -0.0748 -0.6333  1.8930
 3320TIP3    H231524   0.522   3.906   1.980  0.8396  0.5257  0.3981
 3321TIP3   OH231525   3.586   1.016   1.670  0.1223 -0.4878 -0.1881
 3321TIP3    H131526   3.537   1.062   1.601  2.1473  0.0874 -1.3066
 3321TIP3    H231527   3.608   1.084   1.733 -1.0113 -0.8699  0.6705
 3322TIP3   OH231528   5.472   6.095   0.464  0.7506 -0.7779 -0.6579
 3322TIP3    H131529   5.511   6.136   0.541  1.1749 -1.0513 -0.7204
 3322TIP3    H231530   5.515   6.138   0.390 -0.5714  0.3890 -0.7880
 3323TIP3   OH231531   5.211   0.599   0.953  1.1546  0.3788  0.7755
 3323TIP3    H131532   5.241   0.642   0.873 -0.3801  2.4856  1.2469
 3323TIP3    H231533   5.140   0.541   0.924  0.6280  1.1055  0.5912
 3324TIP3   OH231534   4.939   4.407   7.791 -0.0993  0.0281 -0.5996
 3324TIP3    H131535   4.952   4.331   7.848  0.3329  0.5924  0.0715
 3324TIP3    H231536   5.015   4.463   7.807 -0.7922  0.9746 -0.4832
 3325TIP3   OH231537   2.932   4.081   1.038 -0.0488 -0.5012 -0.1508
 3325TIP3    H131538   2.992   4.106   1.108  1.7678 -1.8969 -1.0974
 3325TIP3    H231539   2.970   4.121   0.959 -1.3786  0.0586 -0.5364
 3326TIP3   OH231540   6.006   1.422   8.768  0.2044  0.2357  0.1130
 3326TIP3    H131541   5.922   1.396   8.731 -0.0703 -0.9818  1.4689
 3326TIP3    H231542   5.997   1.404   8.862  2.1033 -0.3077  0.2297
 3327TIP3   OH231543   4.318   4.021   8.265  0.2367 -0.2636  0.3499
 3327TIP3    H131544   4.366   4.097   8.297  1.1937 -0.3607 -0.7908
 3327TIP3    H231545   4.248   4.057   8.211 -0.9387 -0.1260  1.9071
 3328TIP3   OH231546   0.642   4.608   6.725 -0.7419 -0.3349 -0.2693
 3328TIP3    H131547   0.703   4.613   6.651  1.3479  2.6109  1.4167
 3328TIP3    H231548   0.557   4.630   6.687  0.2047  0.7276 -1.9121
 3329TIP3   OH231549   0.043   0.708   7.898  0.9674 -0.5393 -0.7435
 3329TIP3    H131550   0.010   0.632   7.945  0.5068 -0.4856 -0.9748
 3329TIP3    H231551  -0.036   0.751   7.864  1.3615 -1.6643 -3.2709
 3330TIP3   OH231552   1.467   4.866   8.692  0.1389  0.1199  0.5251
 3330TIP3    H131553   1.421   4.842   8.611  1.1134 -0.9648  0.2670
 3330TIP3    H231554   1.402   4.855   8.761 -0.4250  0.1213  0.0043
 3331TIP3   OH231555   6.089   1.684   2.497 -0.4672 -0.0477 -0.2535
 3331TIP3    H131556   6.087   1.632   2.417 -1.1617  0.6238 -0.6801
 3331TIP3    H231557   6.076   1.775   2.468  1.2947  0.4629  0.4096
 3332TIP3   OH231558   1.931   4.353   8.552 -0.1062  0.1044 -0.3067
 3332TIP3    H131559   2.006   4.312   8.595  0.0193  0.9052  0.2568
 3332TIP3    H231560   1.935   4.321   8.462  0.0512 -1.0251  0.0826
 3333TIP3   OH231561   1.951   6.256   1.492 -0.5084  0.2855  0.0092
 3333TIP3    H131562   1.946   6.269   1.397 -0.5203  3.9218  0.3846
 3333TIP3    H231563   1.906   6.173   1.507  0.5346 -1.0522 -3.2283
 3334TIP3   OH231564   2.071   3.240   6.514  0.9474  0.1614  0.3440
 3334TIP3    H131565   1.978   3.248   6.536  0.8648 -0.2177  0.1427
 3334TIP3    H231566   2.113   3.312   6.560  0.7997 -0.7051  1.9136
 3335TIP3   OH231567   3.559   2.349   1.133  0.1850  0.0167 -0.0838
 3335TIP3    H131568   3.618   2.307   1.070  1.1191  1.3421 -0.1403
 3335TIP3    H231569   3.590   2.317   1.218  0.2120 -0.2312 -0.1861
 3336TIP3   OH231570   4.336   2.306   6.868  0.2331 -0.5971  0.0160
 3336TIP3    H131571   4.246   2.336   6.880  0.1038 -0.5325 -1.0156
 3336TIP3    H231572   4.387   2.359   6.929 -0.5054 -1.1009  1.0984
 3337TIP3   OH231573   3.453   0.434   0.502  0.2099  0.0423  0.4133
 3337TIP3    H131574   3.409   0.416   0.585  0.4091 -1.4780  0.2279
 3337TIP3    H231575   3.388   0.411   0.435  0.2759  0.6214  0.1473
 3338TIP3   OH231576   5.149   4.934   0.885 -0.0415 -0.3231 -0.1224
 3338TIP3    H131577   5.239   4.904   0.868  0.5179  0.6531  0.9634
 3338TIP3    H231578   5.131   4.997   0.814  1.4283  2.0096  1.4242
 3339TIP3   OH231579   1.139   4.455   8.172 -0.1489 -0.1435 -0.5969
 3339TIP3    H131580   1.101   4.488   8.090 -1.4489 -2.5953 -1.0674
 3339TIP3    H231581   1.165   4.365   8.151 -1.6892 -1.2931  1.9720
 3340TIP3   OH231582   5.629   6.798   0.131 -0.1626 -0.1885  0.0846
 3340TIP3    H131583   5.612   6.767   0.042 -0.2696  0.6736 -0.2080
 3340TIP3    H231584   5.583   6.736   0.187  0.1578 -0.9165 -0.4418
 3341TIP3   OH231585   5.296   2.886   7.168 -0.2252  0.1745  0.5919
 3341TIP3    H131586   5.220   2.886   7.109 -0.1605  0.0455  0.5075
 3341TIP3    H231587   5.321   2.978   7.174 -0.1805  0.1795  0.3505
 3342TIP3   OH231588   1.407   3.941   0.778  0.5723  0.8190  0.9761
 3342TIP3    H131589   1.497   3.913   0.764 -0.1606 -0.8742 -0.6875
 3342TIP3    H231590   1.373   3.879   0.843 -0.3467 -0.8386 -0.9608
 3343TIP3   OH231591   6.241   3.530   0.658 -0.1516  0.1206  0.2440
 3343TIP3    H131592   6.190   3.477   0.720  0.8536  1.8391  2.6787
 3343TIP3    H231593   6.198   3.615   0.658  0.7062  0.5693 -0.3369
 3344TIP3   OH231594   6.556   6.752   1.534  0.0398 -0.4092  0.1096
 3344TIP3    H131595   6.506   6.831   1.556 -0.3477 -0.2634 -1.1718
 3344TIP3    H231596   6.640   6.785   1.502  0.6589 -0.6208  1.4529
 3345TIP3   OH231597   4.121   4.214   7.068 -0.4189  0.2472 -0.0139
 3345TIP3    H131598   4.169   4.296   7.063 -0.6705  0.4149  0.2483
 3345TIP3    H231599   4.079   4.205   6.982  1.1346 -0.5706 -0.7199
 3346TIP3   OH231600   4.738   2.637   7.857  0.3303 -0.3374 -0.0390
 3346TIP3    H131601   4.740   2.597   7.770  0.6214 -0.4995  0.0412
 3346TIP3    H231602   4.773   2.725   7.843 -2.2597  0.7098 -0.6178
 3347TIP3   OH231603   0.247   1.159   1.355  0.4423 -0.3274 -0.5095
 3347TIP3    H131604   0.338   1.183   1.337  0.9458  0.0065  2.0090
 3347TIP3    H231605   0.199   1.242   1.352  0.4322 -0.3467 -0.8266
 3348TIP3   OH231606   6.196   1.522   7.239 -0.2746  0.3779 -0.6771
 3348TIP3    H131607   6.129   1.583   7.208 -0.3260  0.5562 -0.2348
 3348TIP3    H231608   6.238   1.489   7.160  0.0331  1.3100 -0.9134
 3349TIP3   OH231609   3.879   5.427   1.832  0.1365 -0.0250  0.1970
 3349TIP3    H131610   3.830   5.441   1.913 -0.8553  1.0557 -0.5632
 3349TIP3    H231611   3.932   5.506   1.823 -1.2744  0.8083 -1.2321
 3350TIP3   OH231612   1.515   1.697   8.375  0.2526 -0.2172 -0.3447
 3350TIP3    H131613   1.519   1.669   8.467 -1.1040 -0.0788 -0.2233
 3350TIP3    H231614   1.494   1.790   8.379 -1.3572 -0.5283 -0.7751
 3351TIP3   OH231615   2.329   2.646   2.198 -0.4922  0.7532  0.0255
 3351TIP3    H131616   2.294   2.620   2.113 -0.0380  0.7975 -0.1811
 3351TIP3    H231617   2.413   2.601   2.204  0.2390  2.0084 -0.2681
 3352TIP3   OH231618   5.418   2.069   0.926  0.3862 -0.0656  0.3778
 3352TIP3    H131619   5.323   2.062   0.917  0.0016  0.3200  3.1354
 3352TIP3    H231620   5.445   1.986   0.964  0.9848  0.2320  0.6217
 3353TIP3   OH231621   1.039   4.996   8.389  0.0291 -0.0651 -0.3052
 3353TIP3    H131622   1.061   5.054   8.316 -0.5475 -0.8268 -1.0994
 3353TIP3    H231623   1.090   5.031   8.463 -0.7707  1.8300 -0.5752
 3354TIP3   OH231624   1.994   6.497   7.552 -0.1371 -0.5935  0.7097
 3354TIP3    H131625   1.910   6.493   7.507 -0.9431 -0.2181  2.1269
 3354TIP3    H231626   2.045   6.561   7.503 -0.4874 -1.1641 -0.4400
 3355TIP3   OH231627   0.788   0.661   1.148 -0.4208  0.2518  0.5731
 3355TIP3    H131628   0.824   0.708   1.073  0.2600 -2.4075 -0.8985
 3355TIP3    H231629   0.848   0.682   1.220  0.6075  0.6381 -0.3562
 3356TIP3   OH231630   4.492   1.716   1.590  0.1013 -0.0467  0.5676
 3356TIP3    H131631   4.396   1.718   1.584  0.0442  0.4822  1.3660
 3356TIP3    H231632   4.522   1.713   1.500 -0.6399  2.1264  0.1905
 3357TIP3   OH231633   0.417   5.234   7.592 -0.2486 -0.9791  0.4434
 3357TIP3    H131634   0.468   5.250   7.513  0.7073 -1.7059  0.8899
 3357TIP3    H231635   0.430   5.312   7.646  1.5577 -1.7031  1.1360
 3358TIP3   OH231636   2.867   1.837   8.320 -0.4480 -0.5490 -0.2041
 3358TIP3    H131637   2.931   1.904   8.294 -0.3984 -0.2346  0.6943
 3358TIP3    H231638   2.793   1.851   8.260 -1.5062  2.0130  1.5196
 3359TIP3   OH231639   0.633   0.120   8.806 -0.2276  0.3605 -0.8138
 3359TIP3    H131640   0.560   0.089   8.754 -0.2191 -0.2903 -0.4432
 3359TIP3    H231641   0.711   0.089   8.760 -0.2407 -1.4290  0.3088
 3360TIP3   OH231642   1.791   4.603   0.163 -0.2782  0.5577 -0.9820
 3360TIP3    H131643   1.844   4.665   0.112  0.6737 -0.5489 -1.3727
 3360TIP3    H231644   1.773   4.649   0.245 -0.6131  1.8073 -1.7171
 3361TIP3   OH231645   6.255   0.684   6.628  0.3704  0.2818  0.2124
 3361TIP3    H131646   6.245   0.776   6.602  0.2986  0.2438  0.1021
 3361TIP3    H231647   6.230   0.634   6.549  0.5706  0.1707  0.2175
 3362TIP3   OH231648   2.856   0.862   0.810  0.0313  0.1162  0.4658
 3362TIP3    H131649   2.821   0.820   0.889 -0.3140 -2.1629 -0.8044
 3362TIP3    H231650   2.791   0.929   0.789 -1.9083 -1.7515  0.0763
 3363TIP3   OH231651   4.646   5.652   6.042  0.2204  0.1810  0.0896
 3363TIP3    H131652   4.688   5.566   6.033 -0.0986  0.0558 -0.2149
 3363TIP3    H231653   4.552   5.633   6.038  0.0457  0.2400  2.5085
 3364TIP3   OH231654   3.749   4.878   1.049  0.0402  0.1734 -0.2753
 3364TIP3    H131655   3.823   4.923   1.089  1.3098 -1.3369 -0.8137
 3364TIP3    H231656   3.705   4.945   0.996  1.4222  0.9360 -0.4886
 3365TIP3   OH231657   0.915   3.089   1.012 -0.3314 -0.1715  0.0279
 3365TIP3    H131658   0.884   3.112   1.100 -1.9096 -0.6941 -0.3482
 3365TIP3    H231659   0.913   2.994   1.010  0.6148 -0.1928 -0.2825
 3366TIP3   OH231660   6.017   2.266   7.986  0.2997  0.2644  0.0127
 3366TIP3    H131661   5.936   2.258   8.038  0.5876  0.9034  0.5730
 3366TIP3    H231662   6.046   2.356   8.001  1.2160 -0.0179 -0.0382
 3367TIP3   OH231663   1.836   1.304   7.451 -0.4034  0.1670 -0.6809
 3367TIP3    H131664   1.908   1.242   7.455 -0.5295  0.0765  1.1093
 3367TIP3    H231665   1.863   1.370   7.388  2.1742  1.2268  1.3471
 3368TIP3   OH231666   3.428   5.121   0.920 -0.4072 -0.1689  0.2549
 3368TIP3    H131667   3.513   5.124   0.877 -1.4592  0.7840 -1.8677
 3368TIP3    H231668   3.414   5.028   0.939  0.3903 -0.5417 -0.8829
 3369TIP3   OH231669   6.417   0.292   0.971 -0.4649 -0.2853 -0.0121
 3369TIP3    H131670   6.375   0.213   1.006 -1.7417  1.5544  2.9498
 3369TIP3    H231671   6.399   0.360   1.036  0.4481  2.5339 -2.4912
 3370TIP3   OH231672   4.378   6.815   8.377  0.4903  0.1364  0.0356
 3370TIP3    H131673   4.339   6.829   8.463 -0.5933 -0.7481 -0.2864
 3370TIP3    H231674   4.313   6.849   8.315  0.9642  0.1705 -0.4553
 3371TIP3   OH231675   5.142   6.365   7.802  0.1842  0.1578 -0.3588
 3371TIP3    H131676   5.215   6.421   7.826  0.5063 -0.3029 -0.2480
 3371TIP3    H231677   5.141   6.297   7.869 -0.6451  0.4297 -0.0903
 3372TIP3   OH231678   2.685   2.583   1.686 -0.0701  0.1139 -0.3414
 3372TIP3    H131679   2.674   2.639   1.763 -1.8089  0.7779 -1.0202
 3372TIP3    H231680   2.762   2.618   1.641  0.2304  0.4859  0.4397
 3373TIP3   OH231681   2.060   5.118   0.640  0.4483  0.1433 -0.3834
 3373TIP3    H131682   2.088   5.173   0.714  0.1115 -1.8072  1.2645
 3373TIP3    H231683   2.126   5.050   0.634 -1.1214 -1.5222  0.1997
 3374TIP3   OH231684   6.673   4.395   1.532 -0.3580 -0.0414  0.0237
 3374TIP3    H131685   6.664   4.379   1.626  2.7888 -0.7865  0.3419
 3374TIP3    H231686   6.646   4.486   1.520  0.7716  0.6174  2.0019
 3375TIP3   OH231687   0.712   2.228   1.913 -0.3368  0.1463 -0.2741
 3375TIP3    H131688   0.780   2.164   1.892 -1.4830 -1.2356  0.0375
 3375TIP3    H231689   0.741   2.270   1.994  0.6933  0.4319 -0.7770
 3376TIP3   OH231690   1.009   0.997   1.790 -0.1683  0.0157 -0.1348
 3376TIP3    H131691   1.094   0.958   1.812  0.8617  2.2166  0.0281
 3376TIP3    H231692   0.996   1.065   1.855 -2.4805 -0.7466  0.3091
 3377TIP3   OH231693   3.469   0.758   1.011  0.5777 -0.1859 -0.7040
 3377TIP3    H131694   3.475   0.813   0.933  0.4982  1.2159  0.2339
 3377TIP3    H231695   3.385   0.783   1.051 -0.4573 -2.4709 -1.2880
 3378TIP3   OH231696   3.087   5.034   1.656  0.4261 -0.4088  0.4024
 3378TIP3    H131697   3.161   4.973   1.652  0.7675  0.0450 -0.6568
 3378TIP3    H231698   3.052   5.035   1.567 -0.7411 -0.4695  0.8521
 3379TIP3   OH231699   0.921   5.860   8.044  0.3253 -0.3212  0.2039
 3379TIP3    H131700   0.885   5.948   8.029  1.3887  0.3581  1.4263
 3379TIP3    H231701   1.009   5.876   8.078  0.3925 -1.8616  0.8177
 3380TIP3   OH231702   2.161   5.427   7.979 -0.2039 -0.2925  0.0321
 3380TIP3    H131703   2.103   5.354   7.955  0.1445 -0.0461 -1.6427
 3380TIP3    H231704   2.246   5.386   7.995 -0.5282 -0.5096  1.4102
 3381TIP3   OH231705   6.689   6.157   1.010  0.3639  0.0010 -0.0667
 3381TIP3    H131706   6.597   6.180   1.025  0.4788  0.4096  0.0274
 3381TIP3    H231707   6.704   6.180   0.918  0.0482 -1.1819 -0.4297
 3382TIP3   OH231708   2.498   5.709   2.321 -0.2161 -0.1639  0.7627
 3382TIP3    H131709   2.406   5.702   2.295 -0.2070 -2.2982  1.0966
 3382TIP3    H231710   2.545   5.728   2.240 -0.6460 -2.4734 -0.1136
 3383TIP3   OH231711   4.380   4.233   0.394 -0.2304 -0.3978  0.1570
 3383TIP3    H131712   4.411   4.148   0.365 -0.2373 -0.0571 -0.8880
 3383TIP3    H231713   4.285   4.229   0.382 -0.0234  0.5593 -2.1698
 3384TIP3   OH231714   6.068   3.670   1.725 -0.1028 -0.0698 -0.3521
 3384TIP3    H131715   6.003   3.604   1.703 -1.8471  1.5692 -0.3635
 3384TIP3    H231716   6.140   3.653   1.664 -1.0952 -1.0892 -1.2971
 3385TIP3   OH231717   4.864   0.132   8.198  0.2052 -0.6947 -0.6392
 3385TIP3    H131718   4.802   0.077   8.247  0.0363 -0.9714 -1.1624
 3385TIP3    H231719   4.944   0.129   8.251 -0.1479 -0.5222 -0.0768
 3386TIP3   OH231720   3.955   3.210   8.430 -0.0402  0.1754 -0.0171
 3386TIP3    H131721   3.943   3.128   8.477  0.7144  0.3169  0.4406
 3386TIP3    H231722   3.871   3.256   8.440 -0.2126 -0.2205  0.3594
 3387TIP3   OH231723   2.996   3.105   8.514  0.2323  0.0473  0.0924
 3387TIP3    H131724   2.993   3.194   8.478  2.0564 -0.6618 -2.0691
 3387TIP3    H231725   2.946   3.052   8.452  1.0194 -0.7775  0.1409
 3388TIP3   OH231726   4.295   3.798   1.973 -0.3631  0.3512  0.1990
 3388TIP3    H131727   4.355   3.724   1.973  0.2947  0.7555  3.1594
 3388TIP3    H231728   4.218   3.766   2.021 -0.0762  1.5165  1.5042
 3389TIP3   OH231729   2.370   3.295   0.417  0.5903 -0.0107 -0.4280
 3389TIP3    H131730   2.356   3.390   0.413 -1.1063 -0.2554 -1.1976
 3389TIP3    H231731   2.424   3.276   0.340 -0.8904  0.0912 -1.5395
 3390TIP3   OH231732   0.609   3.058   1.844 -0.0836  0.2553  0.7253
 3390TIP3    H131733   0.539   3.008   1.886 -0.5460 -0.3229 -0.6934
 3390TIP3    H231734   0.687   3.003   1.855 -0.7899 -1.4024 -1.7677
 3391TIP3   OH231735   5.726   3.779   7.163  0.2528  0.1250 -0.5703
 3391TIP3    H131736   5.753   3.867   7.136 -0.6690  0.1984 -1.2909
 3391TIP3    H231737   5.709   3.733   7.081  0.8150 -0.7651 -0.2012
 3392TIP3   OH231738   2.637   4.934   1.350  0.8353  0.2538  0.2167
 3392TIP3    H131739   2.636   5.010   1.293 -1.1141  1.6160  1.9463
 3392TIP3    H231740   2.646   4.859   1.290 -1.7147  1.5328 -1.9791
 3393TIP3   OH231741   5.216   2.604   0.383 -0.2480  0.2626 -0.0250
 3393TIP3    H131742   5.240   2.587   0.292 -1.1638  2.0029 -0.6304
 3393TIP3    H231743   5.292   2.648   0.421  0.2320 -0.6915  0.1439
 3394TIP3   OH231744   2.683   4.729   2.125 -0.8719 -0.0240 -0.4290
 3394TIP3    H131745   2.721   4.648   2.091 -0.8555  0.7769 -2.4429
 3394TIP3    H231746   2.749   4.795   2.109 -0.2180  0.2060  2.6462
 3395TIP3   OH231747   2.711   2.939   6.913  0.1164  0.1860 -0.1639
 3395TIP3    H131748   2.700   3.019   6.965 -1.0155  0.7058 -1.1513
 3395TIP3    H231749   2.626   2.926   6.871  0.4160 -1.3253 -0.3336
 3396TIP3   OH231750   3.896   1.939   1.621 -0.4577  0.1378  0.5586
 3396TIP3    H131751   3.837   1.866   1.638  0.5581 -0.1544  3.4919
 3396TIP3    H231752   3.951   1.910   1.548 -0.3531 -1.8795  1.3730
 3397TIP3   OH231753   6.690   5.323   0.749 -0.2307  0.2542 -0.0013
 3397TIP3    H131754   6.774   5.277   0.746 -1.2488 -1.7241  0.5875
 3397TIP3    H231755   6.712   5.411   0.780  1.5442 -0.3944  0.6913
 3398TIP3   OH231756   3.262   3.031   8.442 -0.0829  0.5135 -0.1857
 3398TIP3    H131757   3.242   3.042   8.349 -1.4390 -0.0041  0.0307
 3398TIP3    H231758   3.182   3.058   8.487  0.6525  1.0293  0.8561
 3399TIP3   OH231759   2.488   1.350   8.001 -0.3706 -0.4220 -0.2275
 3399TIP3    H131760   2.533   1.426   8.037 -0.7926  0.1829 -0.9518
 3399TIP3    H231761   2.551   1.278   8.010 -0.2935 -0.2046  1.2789
 3400TIP3   OH231762   5.649   4.704   1.080  0.0557 -0.3927  0.2339
 3400TIP3    H131763   5.714   4.739   1.142 -1.0622 -0.1120  1.2884
 3400TIP3    H231764   5.576   4.766   1.085 -0.8453 -1.4185  0.0740
 3401TIP3   OH231765   5.268   2.274   1.595  0.0107  0.2630  0.5922
 3401TIP3    H131766   5.208   2.223   1.541  0.3852 -0.8829  1.2108
 3401TIP3    H231767   5.223   2.357   1.609 -1.0583 -0.2470  0.3402
 3402TIP3   OH231768   0.139   3.185   1.816 -0.6085 -0.1631  0.0510
 3402TIP3    H131769   0.105   3.234   1.891  0.2790  0.7874 -0.1402
 3402TIP3    H231770   0.233   3.199   1.820 -0.4389 -1.0939 -0.5638
 3403TIP3   OH231771   3.113   2.178   0.105 -0.2153 -0.4705 -0.2043
 3403TIP3    H131772   3.026   2.185   0.065 -1.1525  0.3849  1.8092
 3403TIP3    H231773   3.126   2.084   0.117 -2.1925 -0.5826  1.9673
 3404TIP3   OH231774   0.568   6.128   1.184  0.4090 -0.0108  0.3851
 3404TIP3    H131775   0.596   6.207   1.138  0.0316  0.5134  1.0241
 3404TIP3    H231776   0.481   6.109   1.149 -0.0515  0.6242  1.1420
 3405TIP3   OH231777   3.431   5.842   1.568 -0.3371  0.1121 -0.0893
 3405TIP3    H131778   3.353   5.794   1.597 -0.2424 -0.7667 -1.2020
 3405TIP3    H231779   3.488   5.774   1.532  0.7965  0.7932  0.3918
 3406TIP3   OH231780   2.298   1.599   8.367 -0.2002  0.1694  0.0063
 3406TIP3    H131781   2.218   1.628   8.410 -0.6876 -0.6012 -0.3618
 3406TIP3    H231782   2.328   1.525   8.420  0.9548  1.1878  0.8541
 3407TIP3   OH231783   6.707   4.947   6.922 -0.8508 -0.2784 -0.6367
 3407TIP3    H131784   6.676   4.945   6.832  0.5614  0.2047 -1.1589
 3407TIP3    H231785   6.803   4.950   6.915 -0.7275  0.4165  0.8516
 3408TIP3   OH231786   6.624   4.123   8.162  0.0346  0.4694  0.0942
 3408TIP3    H131787   6.626   4.040   8.114  2.8988  0.5690 -0.1731
 3408TIP3    H231788   6.673   4.184   8.107  0.4646  1.5288  1.5635
 3409TIP3   OH231789   3.302   5.244   1.467 -0.6359  0.5400  0.8375
 3409TIP3    H131790   3.342   5.296   1.397 -0.4919 -0.4989  0.1362
 3409TIP3    H231791   3.247   5.307   1.515 -2.1400  0.9204 -1.2648
 3410TIP3   OH231792   6.336   1.141   0.913  0.3473 -0.1503  0.6896
 3410TIP3    H131793   6.389   1.061   0.921  0.4918 -0.0941  0.2948
 3410TIP3    H231794   6.270   1.133   0.983  0.7975 -0.2775  1.1052
 3411TIP3   OH231795   1.657   3.500   8.516 -0.3110 -0.0351 -0.2191
 3411TIP3    H131796   1.644   3.557   8.440 -0.1738 -2.3807 -2.1253
 3411TIP3    H231797   1.752   3.486   8.518 -0.3991 -0.6376 -0.1525
 3412TIP3   OH231798   4.700   4.160   7.794  0.2358 -0.1077 -0.5392
 3412TIP3    H131799   4.781   4.180   7.747  0.9696 -1.2577  0.1893
 3412TIP3    H231800   4.667   4.245   7.823  1.3285  0.3607 -0.6219
 3413TIP3   OH231801   3.794   3.698   1.069  0.4282  0.8148  0.0180
 3413TIP3    H131802   3.849   3.620   1.062  0.9227  1.1162  0.4584
 3413TIP3    H231803   3.857   3.771   1.073 -0.0187  1.2096 -0.0373
 3414TIP3   OH231804   0.301   0.342   1.380  0.1308  0.1481 -0.1925
 3414TIP3    H131805   0.349   0.274   1.332  0.7017  1.5105 -1.6704
 3414TIP3    H231806   0.366   0.411   1.393 -0.5681  0.6299  0.8208
 3415TIP3   OH231807   2.694   2.507   7.465 -0.9415 -0.1051 -0.4490
 3415TIP3    H131808   2.684   2.451   7.388 -1.8667 -0.8714  0.2005
 3415TIP3    H231809   2.636   2.582   7.449  2.0114  1.9711 -2.3776
 3416TIP3   OH231810   0.703   1.844   7.679 -0.9441  0.2594  0.3185
 3416TIP3    H131811   0.664   1.860   7.593  0.0908 -1.1029 -0.4474
 3416TIP3    H231812   0.797   1.842   7.663 -0.7493 -0.2895  1.4248
 3417TIP3   OH231813   4.257   0.381   1.406 -0.0815  0.3560 -0.0599
 3417TIP3    H131814   4.237   0.394   1.314  0.9447 -1.4030 -0.5928
 3417TIP3    H231815   4.314   0.454   1.430 -0.7200  1.0683 -0.6841
 3418TIP3   OH231816   4.068   0.422   0.900 -0.1629  0.3315  0.3166
 3418TIP3    H131817   4.115   0.340   0.885  0.0879  1.1739 -5.5872
 3418TIP3    H231818   3.976   0.397   0.902 -0.0348 -0.2346 -0.3508
 3419TIP3   OH231819   2.927   1.635   0.400 -0.3831 -0.2400  0.2041
 3419TIP3    H131820   3.005   1.645   0.455  0.1761  1.2213 -0.7842
 3419TIP3    H231821   2.953   1.572   0.332  0.5909  1.5406 -1.1506
 3420TIP3   OH231822   4.491   0.837   7.933  0.2195  0.1414  0.0048
 3420TIP3    H131823   4.517   0.880   8.014  0.7225 -0.6547  0.2735
 3420TIP3    H231824   4.572   0.804   7.896 -0.3197 -2.1873  0.7449
 3421TIP3   OH231825   1.544   5.578   7.972 -0.1180  0.2046 -0.2234
 3421TIP3    H131826   1.526   5.645   7.906  2.3057  1.3996  0.2197
 3421TIP3    H231827   1.586   5.507   7.925  0.7912  0.6674 -0.1200
 3422TIP3   OH231828   2.581   2.374   8.002  0.2586  1.0066 -0.2203
 3422TIP3    H131829   2.538   2.291   8.024  0.1305  1.4959  1.5076
 3422TIP3    H231830   2.592   2.371   7.907  1.1741 -1.4498 -0.1241
 3423TIP3   OH231831   0.185   6.714   0.084 -0.2736 -0.3895 -0.2830
 3423TIP3    H131832   0.147   6.673   0.007  0.6218 -0.2590 -0.8079
 3423TIP3    H231833   0.177   6.808   0.068 -2.8332 -0.2730  1.1675
 3424TIP3   OH231834   6.475   0.343   7.112  1.0866 -0.4247  0.0727
 3424TIP3    H131835   6.432   0.429   7.106  0.9553 -0.5587 -1.1897
 3424TIP3    H231836   6.403   0.280   7.111  1.1360 -0.5574  1.7932
 3425TIP3   OH231837   4.035   4.206   6.809 -0.2960 -0.0413 -0.0931
 3425TIP3    H131838   4.047   4.112   6.801  1.8809  0.1722  0.2218
 3425TIP3    H231839   3.940   4.217   6.820 -0.8187 -2.0178 -1.9915
 3426TIP3   OH231840   2.782   3.125   7.359  0.6451 -0.4341 -0.5116
 3426TIP3    H131841   2.828   3.072   7.424 -0.2825 -1.7043 -0.8634
 3426TIP3    H231842   2.822   3.100   7.276 -2.0614 -3.2769 -1.1287
 3427TIP3   OH231843   0.783   1.779   1.412 -0.1235 -0.1861  0.7294
 3427TIP3    H131844   0.749   1.690   1.416 -0.7090  0.0216  0.4670
 3427TIP3    H231845   0.867   1.771   1.367  0.0026 -0.6526  1.0404
 3428TIP3   OH231846   2.063   1.179   8.155  0.0917  0.3094 -0.1553
 3428TIP3    H131847   2.036   1.237   8.226 -0.9969 -1.5024  0.9863
 3428TIP3    H231848   2.116   1.234   8.097 -1.2263  2.5242  0.6387
 3429TIP3   OH231849   6.781   0.303   0.667  0.1631 -0.1175 -0.3686
 3429TIP3    H131850   6.737   0.260   0.741  0.4483  0.8552  0.3847
 3429TIP3    H231851   6.734   0.385   0.656  2.5198  1.6107  1.3363
 3430TIP3   OH231852   2.255   4.771   2.407 -0.1669 -0.3631 -0.7446
 3430TIP3    H131853   2.340   4.726   2.402  1.1027  1.9616 -1.9782
 3430TIP3    H231854   2.263   4.829   2.483 -0.7798 -0.4068 -0.6450
 3431TIP3   OH231855   3.907   2.528   1.283 -0.4826 -0.0313 -0.3238
 3431TIP3    H131856   3.872   2.530   1.372  1.9315  0.6079  0.7059
 3431TIP3    H231857   3.912   2.435   1.261 -0.6268 -0.2214  0.4089
 3432TIP3   OH231858   6.406   4.015   6.617 -0.5520  0.3395 -0.6275
 3432TIP3    H131859   6.426   4.098   6.574 -2.2792  1.1609  0.0338
 3432TIP3    H231860   6.312   4.004   6.605 -0.6522 -0.6514  0.7741
 3433TIP3   OH231861   3.365   5.848   7.984  0.1057 -0.2379  0.3402
 3433TIP3    H131862   3.325   5.873   8.067 -1.6530  1.4048 -0.9089
 3433TIP3    H231863   3.363   5.927   7.931  2.9600 -0.7227 -0.6617
 3434TIP3   OH231864   1.570   5.213   1.190 -0.2211  0.0068 -0.2634
 3434TIP3    H131865   1.658   5.235   1.222 -0.4691 -0.2388  0.6131
 3434TIP3    H231866   1.543   5.291   1.141 -0.2440  0.8290  1.0177
 3435TIP3   OH231867   5.097   6.557   1.377  0.3605  0.0119  0.0889
 3435TIP3    H131868   5.119   6.464   1.367 -0.2779  0.0727 -2.5569
 3435TIP3    H231869   5.149   6.586   1.451  0.7517 -2.3968  0.8413
 3436TIP3   OH231870   3.824   1.556   0.099  0.3451  0.1732 -0.3478
 3436TIP3    H131871   3.815   1.534   0.007 -1.2824 -1.8554  0.2120
 3436TIP3    H231872   3.889   1.494   0.132 -1.2976 -1.2274  0.4232
 3437TIP3   OH231873   5.921   4.460   7.933 -0.2774 -0.1076 -0.1426
 3437TIP3    H131874   5.839   4.483   7.889 -0.1891  1.0883  0.2956
 3437TIP3    H231875   5.984   4.449   7.861 -0.9785 -1.8301 -0.5383
 3438TIP3   OH231876   0.985   0.497   1.559  0.3530  0.3126  0.7040
 3438TIP3    H131877   1.036   0.525   1.635 -0.7661 -0.2764  1.7104
 3438TIP3    H231878   0.938   0.575   1.532 -0.5253  0.1556  1.6906
 3439TIP3   OH231879   3.171   5.526   1.447 -0.3361 -0.4991 -0.0763
 3439TIP3    H131880   3.181   5.562   1.360 -0.7599  0.6266  0.3267
 3439TIP3    H231881   3.239   5.568   1.500 -0.7528 -0.3678  0.3707
 3440TIP3   OH231882   0.735   5.068   7.592  0.2624 -0.1893  0.8810
 3440TIP3    H131883   0.697   5.120   7.663  0.7297 -0.6879  1.5065
 3440TIP3    H231884   0.829   5.065   7.613  0.4247 -0.1991  0.1532
 3441TIP3   OH231885   4.116   3.221   2.066 -0.4364  0.4595 -0.0475
 3441TIP3    H131886   4.064   3.178   1.999  0.1084  0.8696 -0.7546
 3441TIP3    H231887   4.098   3.314   2.055 -2.0755  0.4263  1.8665
 3442TIP3   OH231888   3.447   5.707   8.361 -0.2379  0.3170 -0.7834
 3442TIP3    H131889   3.395   5.738   8.435 -0.0575 -0.5976 -0.2592
 3442TIP3    H231890   3.395   5.636   8.323  1.3603 -1.8963  0.8738
 3443TIP3   OH231891   2.362   0.578   0.937 -0.6141 -0.8302  0.2379
 3443TIP3    H131892   2.286   0.569   0.994 -2.4038 -1.8284 -2.1615
 3443TIP3    H231893   2.407   0.494   0.943 -1.4756 -1.3694 -0.7022
 3444TIP3   OH231894   1.896   6.005   0.703  0.3837  1.0832 -0.0648
 3444TIP3    H131895   1.966   5.943   0.682 -1.2905 -0.8976 -0.1255
 3444TIP3    H231896   1.902   6.073   0.635  0.2973 -0.7455 -1.9855
 3445TIP3   OH231897   4.930   3.391   0.610 -0.5340  0.6860  0.0263
 3445TIP3    H131898   4.920   3.311   0.662 -0.0240  0.0425 -0.8443
 3445TIP3    H231899   5.012   3.430   0.641 -1.3054  1.4717  1.2011
 3446TIP3   OH231900   3.234   3.336   7.916 -0.4712 -0.2943  0.2732
 3446TIP3    H131901   3.322   3.297   7.913 -0.3118  0.1193 -1.1163
 3446TIP3    H231902   3.220   3.370   7.827 -2.4929 -1.3574  0.1174
 3447TIP3   OH231903   0.832   1.072   8.765 -0.1498  0.0237 -0.7108
 3447TIP3    H131904   0.845   0.982   8.737  0.9494 -0.8131  2.1972
 3447TIP3    H231905   0.754   1.070   8.820  1.1427  0.3083  1.2411
 3448TIP3   OH231906   3.599   1.290   8.330  0.2006  0.4351  0.2192
 3448TIP3    H131907   3.548   1.348   8.386 -2.2904 -0.7562 -0.6658
 3448TIP3    H231908   3.626   1.219   8.388 -1.2709 -0.1488  0.2281
 3449TIP3   OH231909   2.201   5.609   8.170  0.3723  0.0005 -0.5368
 3449TIP3    H131910   2.288   5.573   8.190  0.2266 -0.2389 -0.3099
 3449TIP3    H231911   2.174   5.563   8.090  0.5952  0.3229 -0.7962
 3450TIP3   OH231912   4.887   2.335   8.691  0.1035  0.1222 -0.2461
 3450TIP3    H131913   4.965   2.278   8.687  0.4468  0.6304 -0.9563
 3450TIP3    H231914   4.880   2.371   8.603 -1.6671 -0.8636 -0.5463
 3451TIP3   OH231915   1.102   3.852   1.807 -0.1660 -0.0552  0.1679
 3451TIP3    H131916   1.067   3.933   1.843  1.2662  0.2304  1.0229
 3451TIP3    H231917   1.097   3.790   1.880 -0.3928 -0.4698 -0.1957
 3452TIP3   OH231918   3.994   3.455   8.291  0.1754  0.0537 -1.2302
 3452TIP3    H131919   4.062   3.457   8.223  0.9278 -1.6677 -0.5851
 3452TIP3    H231920   3.999   3.367   8.328 -2.6306 -0.2303 -1.3266
 3453TIP3   OH231921   5.035   6.676   1.126 -0.1454 -0.4246 -0.6389
 3453TIP3    H131922   5.079   6.654   1.209  0.3761  1.6502 -0.3040
 3453TIP3    H231923   4.943   6.657   1.143  0.0803 -0.9129  0.1089
 3454TIP3   OH231924   6.810   3.196   1.570  0.1515 -0.3637 -0.2514
 3454TIP3    H131925   6.742   3.246   1.616  2.1688  1.4353  0.9901
 3454TIP3    H231926   6.883   3.194   1.632  1.4927 -1.5827 -1.7975
 3455TIP3   OH231927   5.342   6.502   1.852 -0.4151  0.1698 -0.0107
 3455TIP3    H131928   5.265   6.448   1.869  0.1710 -0.5022  0.5763
 3455TIP3    H231929   5.390   6.455   1.783  0.6260 -0.6609  1.2123
 3456TIP3   OH231930   3.045   3.103   0.578 -0.0466  0.0782 -0.3994
 3456TIP3    H131931   3.057   3.012   0.553  1.1549  0.2733 -0.5772
 3456TIP3    H231932   2.965   3.130   0.532 -1.4826 -1.3865  1.1223
 3457TIP3   OH231933   0.116   1.714   1.541  0.0238 -0.4872  0.0384
 3457TIP3    H131934   0.186   1.650   1.555  1.7786  1.2406 -0.4758
 3457TIP3    H231935   0.157   1.784   1.489 -1.8323  1.0337  0.5223
 3458TIP3   OH231936   2.552   4.102   0.798 -0.8983  0.2106 -0.2905
 3458TIP3    H131937   2.572   4.129   0.888  0.9334  0.1592 -0.6338
 3458TIP3    H231938   2.541   4.184   0.750 -2.0992  0.2377 -0.0015
 3459TIP3   OH231939   1.225   5.125   8.028 -0.6128 -0.4364 -0.5768
 3459TIP3    H131940   1.296   5.171   8.072 -1.3204 -1.4607  1.8090
 3459TIP3    H231941   1.246   5.131   7.935  1.3880  1.2029 -0.0822
 3460TIP3   OH231942   0.017   1.263   0.002 -0.0773  0.1006 -0.0387
 3460TIP3    H131943  -0.059   1.234  -0.047  0.0563 -0.0949 -0.1290
 3460TIP3    H231944  -0.005   1.353   0.029 -0.5930 -0.1693  0.4585
 3461TIP3   OH231945   3.029   1.463   8.709  0.3142  0.1009  0.3043
 3461TIP3    H131946   2.997   1.490   8.622  2.9003  1.4255 -0.3342
 3461TIP3    H231947   3.009   1.370   8.714 -1.4998  0.3560 -0.9338
 3462TIP3   OH231948   1.177   4.747   8.216 -0.8091  0.2773 -0.7259
 3462TIP3    H131949   1.140   4.669   8.175  0.8227 -0.4413 -0.9194
 3462TIP3    H231950   1.203   4.803   8.143  0.2945 -0.1362 -0.6835
 3463TIP3   OH231951   5.734   5.433   0.898 -0.4073  0.1061  0.0877
 3463TIP3    H131952   5.672   5.457   0.966  0.2997  1.5717  0.2565
 3463TIP3    H231953   5.740   5.510   0.841  2.5369  0.7428  1.0770
 3464TIP3   OH231954   3.547   1.910   8.358 -0.0278  0.9265 -0.8931
 3464TIP3    H131955   3.538   1.830   8.410  1.6259  2.0226  1.2378
 3464TIP3    H231956   3.461   1.952   8.364 -0.3504  0.2347 -0.4692
 3465TIP3   OH231957   5.198   1.726   1.394 -0.3622 -0.1074 -0.0801
 3465TIP3    H131958   5.196   1.794   1.327  0.0556 -0.4162 -0.4078
 3465TIP3    H231959   5.211   1.645   1.346 -1.4262 -0.4963  0.2526
 3466TIP3   OH231960   2.358   3.449   2.393 -0.4787  0.1471  0.3173
 3466TIP3    H131961   2.405   3.407   2.321 -0.9923 -0.6558  0.4473
 3466TIP3    H231962   2.320   3.377   2.443  3.4366  0.2407  3.9815
 3467TIP3   OH231963   6.681   1.639   8.795  0.1148 -0.6604  0.4620
 3467TIP3    H131964   6.742   1.666   8.727 -0.0614  1.0954  0.9393
 3467TIP3    H231965   6.726   1.568   8.841  0.5421 -1.3760 -0.9778
 3468TIP3   OH231966   3.815   0.977   0.514 -0.6501  0.8026  0.0207
 3468TIP3    H131967   3.835   0.904   0.454 -2.0505  0.7694 -0.4495
 3468TIP3    H231968   3.721   0.971   0.527 -0.6196  1.9090  0.8230
 3469TIP3   OH231969   2.597   0.292   0.028 -0.0474  0.5918  0.5222
 3469TIP3    H131970   2.502   0.279   0.032 -0.0587  0.8618  1.5042
 3469TIP3    H231971   2.619   0.280  -0.064 -1.2617  2.1107 -0.0177
 3470TIP3   OH231972   1.906   2.882   0.928  0.2061 -0.2595  0.3546
 3470TIP3    H131973   1.911   2.971   0.963  1.3883 -0.7324  1.4692
 3470TIP3    H231974   1.819   2.851   0.952  0.0185  0.3778  0.4985
 3471TIP3   OH231975   2.243   3.995   7.631 -0.7478  0.1238  0.4534
 3471TIP3    H131976   2.264   4.078   7.587  2.5296 -0.4802  0.6010
 3471TIP3    H231977   2.246   3.930   7.561 -5.6492  0.1938 -0.1301
 3472TIP3   OH231978   4.969   2.102   0.453  0.5682 -0.0017 -0.1213
 3472TIP3    H131979   4.885   2.069   0.484  0.2093  0.7102 -0.3314
 3472TIP3    H231980   4.947   2.175   0.395  1.3285  0.1823 -0.1927
 3473TIP3   OH231981   5.316   2.733   2.049  0.4983 -0.3814 -0.1558
 3473TIP3    H131982   5.326   2.796   1.979 -0.0669  0.0441  0.1335
 3473TIP3    H231983   5.371   2.659   2.024 -0.4350 -0.6375 -1.5119
 3474TIP3   OH231984   1.965   1.668   1.645 -0.4020  0.2676  0.8361
 3474TIP3    H131985   2.006   1.725   1.710 -2.2124  1.4527  1.0108
 3474TIP3    H231986   2.037   1.616   1.609  1.3423  2.5903  0.7652
 3475TIP3   OH231987   0.725   1.341   8.344 -0.4231 -0.8550  0.0202
 3475TIP3    H131988   0.662   1.399   8.387  1.2038  0.1371  1.1909
 3475TIP3    H231989   0.694   1.333   8.254 -1.0144  1.4038 -0.0331
 3476TIP3   OH231990   4.092   3.458   1.559 -0.2395  0.6711 -0.3853
 3476TIP3    H131991   4.078   3.449   1.653  2.9704  1.1924  0.2644
 3476TIP3    H231992   4.118   3.371   1.530 -2.4212  0.2094 -1.1117
 3477TIP3   OH231993   0.957   3.454   7.966 -0.1936 -0.3219  0.0037
 3477TIP3    H131994   0.998   3.400   7.898 -0.5860 -1.2369  0.4796
 3477TIP3    H231995   0.889   3.502   7.920 -1.4554 -2.0435 -0.0243
 3478TIP3   OH231996   4.716   1.231   8.687 -0.3777 -0.4446 -0.3103
 3478TIP3    H131997   4.678   1.293   8.625 -0.6859 -0.5869 -0.2689
 3478TIP3    H231998   4.804   1.265   8.705 -0.8458  0.4695  0.3810
 3479TIP3   OH231999   5.632   6.482   7.500 -0.0883  0.4593  0.6761
 3479TIP3    H132000   5.704   6.449   7.447 -0.8552 -2.2027  1.1323
 3479TIP3    H232001   5.570   6.517   7.436  0.8875  1.3277  0.1734
 3480TIP3   OH232002   5.625   6.295   8.128 -0.3612  0.2549  0.1447
 3480TIP3    H132003   5.703   6.243   8.150 -1.0087 -2.2213 -2.7439
 3480TIP3    H232004   5.552   6.243   8.161 -0.9483  0.1234 -1.2950
 3481TIP3   OH232005   3.343   2.152   0.654 -0.1549 -1.2205  0.1220
 3481TIP3    H132006   3.274   2.090   0.681  0.2172 -1.5358  0.3564
 3481TIP3    H232007   3.416   2.134   0.714  1.1148 -2.7288 -1.7421
 3482TIP3   OH232008   3.893   6.272   7.481  0.0649  0.3353  0.3068
 3482TIP3    H132009   3.945   6.346   7.513  0.0538  0.0887  0.9078
 3482TIP3    H232010   3.854   6.234   7.560  2.1227 -1.8770  0.3857
 3483TIP3   OH232011   6.285   0.787   8.196 -0.3452  0.0919  0.5085
 3483TIP3    H132012   6.245   0.741   8.270  1.1974  0.7536  1.8032
 3483TIP3    H232013   6.254   0.740   8.119 -2.4726 -0.2811  1.5007
 3484TIP3   OH232014   2.651   6.123   7.790  0.0804 -0.2192  0.3418
 3484TIP3    H132015   2.572   6.141   7.841 -1.2527  1.2638 -2.0687
 3484TIP3    H232016   2.646   6.030   7.770  0.5359 -0.7920  2.6401
 3485TIP3   OH232017   6.573   4.423   0.974 -0.7348  0.4441 -0.5557
 3485TIP3    H132018   6.570   4.517   0.991 -1.9985  0.4484 -0.7281
 3485TIP3    H232019   6.603   4.385   1.057  2.3691  1.1419 -1.2338
 3486TIP3   OH232020   1.764   6.318   7.074 -0.7816  0.3859  0.0889
 3486TIP3    H132021   1.841   6.364   7.108 -1.3541  2.2416 -0.9556
 3486TIP3    H232022   1.695   6.336   7.138 -1.0420  1.1449 -0.3912
 3487TIP3   OH232023   5.633   2.048   0.759  0.0724 -0.1040  0.1054
 3487TIP3    H132024   5.668   1.981   0.817 -0.8648  0.3585  1.2271
 3487TIP3    H232025   5.552   2.077   0.800  0.6963  2.0739 -0.0744
 3488TIP3   OH232026   0.981   4.298   7.059 -0.1538 -0.0278  0.3566
 3488TIP3    H132027   0.906   4.339   7.103 -0.5948 -1.9399  1.4872
 3488TIP3    H232028   0.947   4.271   6.974 -0.3119  0.4180  0.2706
 3489TIP3   OH232029   0.947   1.608   1.848 -0.5027  0.4448  0.1581
 3489TIP3    H132030   0.877   1.643   1.902 -1.7608 -1.7001  0.0341
 3489TIP3    H232031   0.994   1.548   1.906 -1.2444 -1.1148 -0.7831
 3490TIP3   OH232032   6.135   6.465   8.620 -0.4453 -0.1432 -0.9758
 3490TIP3    H132033   6.044   6.447   8.595 -1.1055  0.7602  0.6776
 3490TIP3    H232034   6.183   6.458   8.538 -2.1738  0.5179 -2.1050
 3491TIP3   OH232035   4.209   0.133   7.256 -0.2001 -0.1072  0.1585
 3491TIP3    H132036   4.241   0.121   7.166 -0.7148 -1.3859  0.1210
 3491TIP3    H232037   4.128   0.182   7.247  0.8538  1.6890  0.1202
 3492TIP3   OH232038   5.180   2.310   7.662  0.2357  0.0860  0.5854
 3492TIP3    H132039   5.198   2.342   7.751 -0.2238 -0.4427  0.8770
 3492TIP3    H232040   5.162   2.216   7.674  0.2643 -0.0067 -0.0818
 3493TIP3   OH232041   5.354   3.057   2.148 -0.4201 -0.0090 -0.0144
 3493TIP3    H132042   5.405   3.137   2.158 -0.7710  0.0688  1.4060
 3493TIP3    H232043   5.342   3.025   2.237  0.3232 -2.0460 -0.5777
 3494TIP3   OH232044   1.195   6.668   0.362  0.2635 -0.1589 -0.3976
 3494TIP3    H132045   1.135   6.637   0.430 -0.5746  0.2486 -0.9298
 3494TIP3    H232046   1.153   6.747   0.327  2.0402  1.2825  0.5289
 3495TIP3   OH232047   2.582   3.309   7.337  0.2578 -0.4046 -0.1194
 3495TIP3    H132048   2.598   3.386   7.393  5.1873  0.7431 -2.5288
 3495TIP3    H232049   2.653   3.248   7.360 -1.8500 -3.1233 -0.3011
 3496TIP3   OH232050   0.737   0.598   0.178 -0.4332 -0.0399 -0.3993
 3496TIP3    H132051   0.740   0.506   0.204 -0.4442 -0.1150 -0.6628
 3496TIP3    H232052   0.793   0.603   0.101  0.6244  0.4296  0.3704
 3497TIP3   OH232053   6.016   5.876   0.674  0.0536  0.5275 -0.5310
 3497TIP3    H132054   5.970   5.959   0.665 -2.8879 -0.6958  1.4826
 3497TIP3    H232055   5.964   5.815   0.622 -0.9619 -0.9563  2.0028
 3498TIP3   OH232056   5.408   3.520   0.105  0.0987 -0.4655 -0.1242
 3498TIP3    H132057   5.386   3.612   0.117  1.5800 -0.2959  1.6072
 3498TIP3    H232058   5.370   3.497   0.020 -0.6106  1.6174 -0.4143
 3499TIP3   OH232059   5.472   0.047   6.896 -0.0714 -0.0118 -0.1889
 3499TIP3    H132060   5.547   0.093   6.934  0.9520 -0.3576 -1.6885
 3499TIP3    H232061   5.458   0.090   6.812 -1.5063 -0.0337  0.0274
 3500TIP3   OH232062   4.009   5.028   6.478 -0.3137 -0.2804  0.3038
 3500TIP3    H132063   4.057   4.945   6.486 -0.2913 -0.5418 -1.8337
 3500TIP3    H232064   3.926   5.003   6.435  0.2694  0.9333 -1.6543
 3501TIP3   OH232065   0.085   0.013   0.380 -0.0053  0.0430  0.2775
 3501TIP3    H132066   0.143   0.053   0.315  1.5799 -1.8109  0.4546
 3501TIP3    H232067   0.048  -0.063   0.336 -0.5262 -0.0734  0.8998
 3502TIP3   OH232068   5.556   2.941   1.114 -0.3870  0.1709 -0.2318
 3502TIP3    H132069   5.554   3.035   1.131 -1.3230  0.0814  0.2649
 3502TIP3    H232070   5.634   2.909   1.160 -1.1701  0.4160  1.3344
 3503TIP3   OH232071   6.235   2.174   8.154 -0.4318 -0.2413 -0.9677
 3503TIP3    H132072   6.163   2.167   8.093 -2.2164 -2.3620  1.1965
 3503TIP3    H232073   6.203   2.232   8.223  0.0356 -0.9445 -0.1345
 3504TIP3   OH232074   6.609   6.084   8.501  0.0741  0.3611  0.6463
 3504TIP3    H132075   6.544   6.081   8.430 -0.6144  1.2883  1.2183
 3504TIP3    H232076   6.557   6.093   8.581  0.8230 -1.0219  1.3247
 3505TIP3   OH232077   6.068   4.425   8.155 -0.8882 -0.5778  0.1147
 3505TIP3    H132078   6.005   4.437   8.083 -0.0418  0.4625 -0.4943
 3505TIP3    H232079   6.031   4.475   8.227 -0.5135  0.5390 -0.4292
 3506TIP3   OH232080   4.167   5.762   6.831 -0.3331  0.6201  0.0805
 3506TIP3    H132081   4.081   5.720   6.829 -0.3559  0.6068  1.1172
 3506TIP3    H232082   4.175   5.805   6.745  0.0012 -2.0763 -1.3484
 3507TIP3   OH232083   1.242   3.069   0.825  0.0396  0.2470  0.1062
 3507TIP3    H132084   1.321   3.023   0.796  1.0052  0.3943  2.3254
 3507TIP3    H232085   1.216   3.023   0.905 -2.6876 -0.3420 -1.0068
 3508TIP3   OH232086   3.603   4.479   1.973 -0.3130 -0.5844  0.1394
 3508TIP3    H132087   3.669   4.442   2.031 -0.8534 -2.2999 -0.2947
 3508TIP3    H232088   3.520   4.464   2.018 -0.5665 -0.0141 -0.1175
 3509TIP3   OH232089   3.262   3.701   6.789 -0.2831 -0.0783  0.0741
 3509TIP3    H132090   3.201   3.774   6.784 -1.1283 -0.8502 -2.4574
 3509TIP3    H232091   3.207   3.623   6.801 -0.0528 -0.8857 -3.0652
 3510TIP3   OH232092   0.133   3.102   8.363 -0.3854 -0.1788 -0.0576
 3510TIP3    H132093   0.185   3.098   8.444 -1.1562 -0.0071  0.4532
 3510TIP3    H232094   0.130   3.196   8.341  1.2108 -0.3544 -1.2211
 3511TIP3   OH232095   0.600   4.783   8.765  0.1214  0.1978 -0.0384
 3511TIP3    H132096   0.538   4.785   8.838  1.0504  3.6893  0.8298
 3511TIP3    H232097   0.682   4.753   8.803 -0.4104 -2.4253 -0.7540
 3512TIP3   OH232098   5.995   2.568   6.624 -0.1867  0.0229 -0.1301
 3512TIP3    H132099   6.069   2.628   6.630 -0.1868 -0.0419  0.6041
 3512TIP3    H232100   6.035   2.481   6.612 -0.1810  0.1239 -0.9134
 3513TIP3   OH232101   6.047   2.727   8.328 -0.2561  0.0594 -0.4418
 3513TIP3    H132102   5.966   2.762   8.292  0.3480  1.8621 -0.1418
 3513TIP3    H232103   6.113   2.744   8.260 -0.2350 -2.2086 -1.0806
 3514TIP3   OH232104   5.622   4.260   7.915  0.1727 -0.0560 -0.7403
 3514TIP3    H132105   5.591   4.218   7.834  0.9356 -0.4775 -0.8203
 3514TIP3    H232106   5.648   4.348   7.887  0.0748 -0.0701 -0.8815
 3515TIP3   OH232107   5.745   1.595   0.098  0.3191 -0.1924 -0.1185
 3515TIP3    H132108   5.702   1.654   0.160 -0.4814 -0.9338  0.0500
 3515TIP3    H232109   5.773   1.521   0.152  1.2845  0.0046 -0.3333
 3516TIP3   OH232110   3.481   2.279   8.152 -0.5131  0.0160 -0.0211
 3516TIP3    H132111   3.496   2.372   8.168 -0.4978  0.1021 -0.5150
 3516TIP3    H232112   3.445   2.276   8.063 -1.5750 -0.3522  0.4009
 3517TIP3   OH232113   3.785   6.288   8.458 -0.2551 -0.5930  0.9100
 3517TIP3    H132114   3.855   6.319   8.401 -1.7306  0.0081 -0.6601
 3517TIP3    H232115   3.710   6.344   8.438 -1.2846 -1.3696  2.3440
 3518TIP3   OH232116   2.850   5.234   1.418 -0.0985 -0.2511  0.1504
 3518TIP3    H132117   2.822   5.171   1.484  1.8173 -1.7962 -0.3953
 3518TIP3    H232118   2.895   5.302   1.467  0.9087 -1.1516  0.5371
 3519TIP3   OH232119   5.028   0.372   1.138 -0.5140 -0.2555  0.2874
 3519TIP3    H132120   4.940   0.344   1.163 -0.0812 -2.0903 -0.0679
 3519TIP3    H232121   5.021   0.395   1.045 -0.6722 -0.0988  0.3375
 3520TIP3   OH232122   1.608   6.766   7.827  0.0177  0.4003  0.0336
 3520TIP3    H132123   1.615   6.748   7.733 -0.4856  1.4928 -0.2230
 3520TIP3    H232124   1.517   6.791   7.840  0.4044  1.5889  0.5666
 3521TIP3   OH232125   5.947   0.586   0.530  0.5021  0.5798 -0.5513
 3521TIP3    H132126   5.996   0.541   0.462  0.4828  1.2874 -1.0400
 3521TIP3    H232127   5.869   0.619   0.486  1.1107  2.1631 -0.5019
 3522TIP3   OH232128   1.351   4.991   8.364 -0.0677 -0.4352  0.5995
 3522TIP3    H132129   1.274   4.970   8.311  0.8915  0.8929 -1.4664
 3522TIP3    H232130   1.399   4.909   8.370 -1.4515 -1.2135  1.6701
 3523TIP3   OH232131   4.337   3.020   0.988  0.2116 -0.3136 -0.0532
 3523TIP3    H132132   4.397   3.071   1.044 -1.7432 -1.1002  3.0341
 3523TIP3    H232133   4.261   3.077   0.977 -1.1892 -1.6976  1.8097
 3524TIP3   OH232134   3.261   2.919   7.206  0.1047 -0.5363  0.1024
 3524TIP3    H132135   3.257   2.966   7.290 -0.8970 -0.9838  0.3263
 3524TIP3    H232136   3.203   2.844   7.219  0.8955 -1.2792 -0.5978
 3525TIP3   OH232137   2.626   3.523   7.083 -0.1917  0.5020 -0.0492
 3525TIP3    H132138   2.694   3.515   7.150  0.0419 -0.1051 -0.3483
 3525TIP3    H232139   2.673   3.514   7.000 -0.7451 -0.8924 -0.2354
 3526TIP3   OH232140   5.041   1.104   1.025 -0.0825 -0.3801  0.6212
 3526TIP3    H132141   5.023   1.135   1.114 -0.4589  0.5125  0.2460
 3526TIP3    H232142   5.056   1.010   1.035  1.9735  0.0316  1.9311
 3527TIP3   OH232143   5.096   0.807   1.118 -0.3815 -0.2771  0.4736
 3527TIP3    H132144   5.079   0.761   1.200 -0.6786 -1.3649 -0.1843
 3527TIP3    H232145   5.115   0.738   1.055 -0.5376  0.5202 -0.4689
 3528TIP3   OH232146   1.717   2.108   0.554 -0.6414 -0.1703 -0.3057
 3528TIP3    H132147   1.750   2.065   0.475 -1.4223  0.3027 -0.9102
 3528TIP3    H232148   1.666   2.040   0.598  1.0434 -0.8827  0.6016
 3529TIP3   OH232149   6.408   6.608   7.456  0.3807 -0.0653  0.2897
 3529TIP3    H132150   6.419   6.696   7.493  0.2945 -0.3091  0.9146
 3529TIP3    H232151   6.442   6.549   7.524  1.3837 -0.4714 -0.5391
 3530TIP3   OH232152   0.683   5.582   0.127 -0.8313 -0.1026 -0.3464
 3530TIP3    H132153   0.768   5.565   0.086 -1.0363 -0.6126 -0.5711
 3530TIP3    H232154   0.704   5.613   0.215 -0.4244 -1.1500 -0.0620
 3531TIP3   OH232155   3.463   0.989   0.195  0.2569 -0.2557  0.1796
 3531TIP3    H132156   3.482   0.895   0.199 -1.7190 -0.7228 -0.1894
 3531TIP3    H232157   3.393   1.002   0.260 -0.9340  0.5534 -1.2086
 3532TIP3   OH232158   1.103   0.072   0.067  0.1620  0.2695  0.1711
 3532TIP3    H132159   1.090   0.100   0.158  0.8272  3.5029 -0.5806
 3532TIP3    H232160   1.197   0.054   0.061  0.0726 -0.2052  0.1735
 3533TIP3   OH232161   0.412   5.765   6.200  0.0186 -0.0708  0.3782
 3533TIP3    H132162   0.456   5.814   6.131  2.8382 -1.3749  1.0755
 3533TIP3    H232163   0.456   5.792   6.281 -0.4785 -1.4298  1.1477
 3534TIP3   OH232164   3.870   4.414   7.082  0.1381 -0.7322  0.3799
 3534TIP3    H132165   3.775   4.415   7.070  0.1309  0.0741  0.4874
 3534TIP3    H232166   3.885   4.344   7.146 -0.2224 -2.0076 -0.8702
 3535TIP3   OH232167   1.060   2.814   1.650 -0.2958 -0.6067 -0.1732
 3535TIP3    H132168   1.145   2.810   1.605 -1.0260 -0.5701 -1.6324
 3535TIP3    H232169   1.026   2.901   1.628 -1.7368 -1.4827 -1.6470
 3536TIP3   OH232170   0.231   0.277   2.301  0.3370  0.3488  0.1758
 3536TIP3    H132171   0.317   0.249   2.331 -0.3181 -0.0121  1.8422
 3536TIP3    H232172   0.222   0.240   2.214  1.2277 -0.9703  0.6147
 3537TIP3   OH232173   2.837   6.129   8.031 -0.2939  0.2734  0.3408
 3537TIP3    H132174   2.883   6.051   7.998 -2.4403 -2.2520  2.7903
 3537TIP3    H232175   2.801   6.171   7.953 -0.1355 -1.9326 -1.0034
 3538TIP3   OH232176   4.651   2.349   6.928 -0.3315  0.2249  0.1273
 3538TIP3    H132177   4.676   2.357   6.836  1.2678  0.4601  0.5659
 3538TIP3    H232178   4.608   2.263   6.933  2.4163 -1.2705 -0.2459
 3539TIP3   OH232179   4.738   1.772   0.185  0.0632 -0.1225  0.3735
 3539TIP3    H132180   4.826   1.810   0.181  0.0497  0.5460  3.7834
 3539TIP3    H232181   4.683   1.835   0.137  0.7108  2.1614  2.4392
 3540TIP3   OH232182   0.863   0.600   1.981  0.4320  0.1639 -0.1451
 3540TIP3    H132183   0.859   0.660   2.056 -1.7979  0.6680 -0.6009
 3540TIP3    H232184   0.918   0.528   2.012 -0.2667  0.4447  1.9242
 3541TIP3   OH232185   3.151   1.667   0.547  0.2316  0.2877  0.2570
 3541TIP3    H132186   3.182   1.715   0.470 -0.0259 -1.1554 -0.7815
 3541TIP3    H232187   3.185   1.717   0.621 -0.7019  2.5357 -0.7223
 3542TIP3   OH232188   6.341   2.882   0.706 -0.1992 -0.0945 -0.0625
 3542TIP3    H132189   6.431   2.900   0.679  0.0168 -0.8587  0.0949
 3542TIP3    H232190   6.342   2.789   0.729 -1.1667 -0.2511 -0.5976
 3543TIP3   OH232191   3.002   2.045   6.320 -0.4104 -0.1172  1.0669
 3543TIP3    H132192   3.016   1.952   6.299 -0.6643 -0.2534  1.5026
 3543TIP3    H232193   3.066   2.091   6.265  0.8098 -0.6494  1.9915
 3544TIP3   OH232194   2.151   4.934   8.271  0.5287 -0.1943 -0.2678
 3544TIP3    H132195   2.175   5.027   8.266  0.1428  0.0263  1.4834
 3544TIP3    H232196   2.073   4.926   8.216 -1.0083  1.1094  1.5966
 3545TIP3   OH232197   6.125   3.809   8.049 -0.6077 -0.1251  0.0001
 3545TIP3    H132198   6.171   3.884   8.087  0.3506 -0.2958 -0.7627
 3545TIP3    H232199   6.188   3.772   7.986 -1.4607 -0.9276 -0.4095
 3546TIP3   OH232200   0.016   4.605   0.439  0.2010  0.0890 -0.1451
 3546TIP3    H132201  -0.014   4.515   0.426  2.8003 -0.7536 -0.7706
 3546TIP3    H232202   0.038   4.609   0.532  0.2187  0.0547 -0.1479
 3547TIP3   OH232203   6.680   5.362   7.423  0.1632 -0.0625 -0.2770
 3547TIP3    H132204   6.737   5.288   7.447 -1.3120 -0.5256  2.1270
 3547TIP3    H232205   6.623   5.326   7.355  0.1821 -0.8168  0.0915
 3548TIP3   OH232206   0.662   0.978   7.687 -0.4234 -0.2070  0.0571
 3548TIP3    H132207   0.567   0.994   7.681 -0.6955 -1.3059  1.0760
 3548TIP3    H232208   0.697   1.056   7.729 -1.2029 -0.6750  1.6472
 3549TIP3   OH232209   4.688   5.214   2.093  0.3559  0.3003 -0.6971
 3549TIP3    H132210   4.636   5.234   2.015 -1.1295  1.7015  0.5646
 3549TIP3    H232211   4.672   5.121   2.110 -0.7550  0.4024 -1.0721
 3550TIP3   OH232212   4.893   5.618   0.507  0.6896  0.1340  0.0563
 3550TIP3    H132213   4.858   5.605   0.419  0.2466  0.7294  0.1426
 3550TIP3    H232214   4.886   5.712   0.522  1.1926  0.0945  0.5517
 3551TIP3   OH232215   5.203   1.946   6.977  0.1352 -0.1473  0.0138
 3551TIP3    H132216   5.191   2.037   7.003 -1.1135 -0.5910  1.0914
 3551TIP3    H232217   5.234   1.951   6.886  2.1598  1.3698  0.7312
 3552TIP3   OH232218   4.571   3.958   7.645  0.8360 -0.4392 -0.3112
 3552TIP3    H132219   4.587   4.030   7.706  1.1483  0.4173 -1.3739
 3552TIP3    H232220   4.526   3.999   7.571  1.3859 -1.2549 -1.1118
 3553TIP3   OH232221   5.422   2.809   8.035  0.1934 -0.4426  0.1418
 3553TIP3    H132222   5.447   2.801   7.943 -0.8996  1.4220 -0.3577
 3553TIP3    H232223   5.332   2.778   8.037 -0.1989  0.6819  0.3305
 3554TIP3   OH232224   5.207   5.842   7.630  0.4727 -0.3639  0.2691
 3554TIP3    H132225   5.297   5.811   7.646  0.2390 -0.1230  2.2646
 3554TIP3    H232226   5.214   5.937   7.629  0.0812 -0.2959  1.7305
 3555TIP3   OH232227   0.423   2.153   7.229 -0.3038  0.4727  0.1689
 3555TIP3    H132228   0.386   2.087   7.171  0.1978  1.3961 -1.2634
 3555TIP3    H232229   0.512   2.167   7.197  0.8716 -0.6781  2.6557
 3556TIP3   OH232230   2.461   6.783   2.023  0.2408  0.0562  0.4678
 3556TIP3    H132231   2.411   6.850   2.069  0.7781 -0.1594  1.3772
 3556TIP3    H232232   2.477   6.715   2.088  2.2304  0.3804  0.3869
 3557TIP3   OH232233   1.187   6.010   1.655 -0.9070  0.4491  0.3814
 3557TIP3    H132234   1.199   5.920   1.686  0.9711  0.2112 -0.8413
 3557TIP3    H232235   1.249   6.062   1.706 -1.4693  0.9304  0.5829
 3558TIP3   OH232236   5.288   5.368   0.895  0.1170 -1.2700  0.3005
 3558TIP3    H132237   5.336   5.344   0.816 -2.0124 -1.8129 -0.8957
 3558TIP3    H232238   5.295   5.291   0.951  0.5862 -1.3534  0.1360
 3559TIP3   OH232239   0.942   4.170   7.940  0.3167 -0.1570  0.0788
 3559TIP3    H132240   0.975   4.239   7.882  2.1465 -0.7496  0.3452
 3559TIP3    H232241   0.979   4.089   7.905 -1.1322 -0.9241  0.2501
 3560TIP3   OH232242   5.398   4.878   0.379 -0.4841  0.2163 -0.1737
 3560TIP3    H132243   5.313   4.874   0.335 -0.2317 -1.0671 -0.5754
 3560TIP3    H232244   5.449   4.808   0.339  0.6762  0.7830  0.2711
 3561TIP3   OH232245   1.534   6.359   8.006 -0.3091  0.5121  0.4591
 3561TIP3    H132246   1.578   6.370   7.922  2.4138 -0.4072  1.6523
 3561TIP3    H232247   1.512   6.448   8.033  0.4212  0.9778 -0.4147
 3562TIP3   OH232248   4.845   2.514   7.607 -0.2756 -0.5103 -0.1679
 3562TIP3    H132249   4.887   2.599   7.618 -0.9501 -0.2698  0.6154
 3562TIP3    H232250   4.794   2.522   7.526 -1.6658  0.4038  0.7624
 3563TIP3   OH232251   2.937   6.809   2.303 -0.2224 -0.2595  0.1454
 3563TIP3    H132252   2.918   6.774   2.390  0.5163  1.0098  0.8543
 3563TIP3    H232253   3.028   6.782   2.286  0.4851  1.5234  0.8605
 3564TIP3   OH232254   4.661   3.358   0.620 -0.1344  0.4110  0.9506
 3564TIP3    H132255   4.627   3.383   0.706 -0.1897  0.4696  0.9119
 3564TIP3    H232256   4.751   3.393   0.619 -0.3771  1.0324  0.7099
 3565TIP3   OH232257   5.698   1.802   0.272 -0.4795 -0.1038  0.2702
 3565TIP3    H132258   5.694   1.881   0.325 -1.1549 -0.3484  0.5970
 3565TIP3    H232259   5.612   1.762   0.282 -0.2363 -0.7404 -0.1062
 3566TIP3   OH232260   4.243   1.421   7.555 -0.5889 -0.0730 -0.3051
 3566TIP3    H132261   4.217   1.384   7.639 -0.5841  0.0350 -0.2553
 3566TIP3    H232262   4.338   1.413   7.553 -0.4654  0.9809  0.2110
 3567TIP3   OH232263   5.134   2.637   6.202  0.3885 -0.0602  0.5265
 3567TIP3    H132264   5.126   2.663   6.293  1.9645  0.0136  0.6833
 3567TIP3    H232265   5.165   2.546   6.206 -0.4780 -0.3888  0.0442
 3568TIP3   OH232266   0.397   6.365   1.988  0.1674 -0.2397  0.3536
 3568TIP3    H132267   0.322   6.424   1.977  0.1818 -0.2318  0.2980
 3568TIP3    H232268   0.431   6.353   1.900  2.2064  2.3276  0.6763
 3569TIP3   OH232269   1.752   0.331   8.471 -0.3193  0.3667  0.0691
 3569TIP3    H132270   1.797   0.311   8.553  1.0129 -0.7369 -0.9020
 3569TIP3    H232271   1.717   0.247   8.442 -2.3616  1.0589  0.3768
 3570TIP3   OH232272   6.499   2.218   1.807  0.2547  0.3823  0.0503
 3570TIP3    H132273   6.499   2.136   1.758  2.2763 -0.0861  0.7349
 3570TIP3    H232274   6.560   2.203   1.879 -1.0842  1.7242  1.5565
 3571TIP3   OH232275   6.667   3.377   7.532 -0.2989  0.2321 -0.7296
 3571TIP3    H132276   6.613   3.414   7.602 -0.0495  0.3540 -0.6006
 3571TIP3    H232277   6.713   3.452   7.495 -0.9832  0.2782 -1.5136
 3572TIP3   OH232278   3.226   1.794   7.212  0.4061 -0.1962 -0.7978
 3572TIP3    H132279   3.176   1.740   7.152 -0.0471 -2.4733  1.4265
 3572TIP3    H232280   3.285   1.732   7.256  1.3189  1.4921  0.4688
 3573TIP3   OH232281   4.031   0.946   1.502  0.7447  0.3465 -0.2189
 3573TIP3    H132282   3.975   0.870   1.514  2.8212 -1.4506 -1.3768
 3573TIP3    H232283   4.006   0.982   1.418 -2.1735  2.7904  1.4931
 3574TIP3   OH232284   0.568   6.115   7.703  0.2487  0.1351 -0.4891
 3574TIP3    H132285   0.537   6.169   7.776 -0.1392 -0.1474 -0.4388
 3574TIP3    H232286   0.585   6.029   7.742 -0.6997 -0.2411 -0.8643
 3575TIP3   OH232287   5.376   5.387   0.098 -0.1853  0.6107  0.3292
 3575TIP3    H132288   5.300   5.349   0.052  0.1051  1.2439 -0.7285
 3575TIP3    H232289   5.451   5.361   0.045 -0.0107  2.9490 -0.7312
 3576TIP3   OH232290   6.135   0.485   6.467 -0.1594  0.2614 -0.9050
 3576TIP3    H132291   6.204   0.422   6.488 -2.0274 -1.8402 -0.6680
 3576TIP3    H232292   6.150   0.507   6.375  0.3012 -0.8925 -1.1242
 3577TIP3   OH232293   5.528   2.415   7.762  0.1976 -0.3445 -0.0267
 3577TIP3    H132294   5.490   2.337   7.721  0.9773 -1.9302  2.1148
 3577TIP3    H232295   5.545   2.474   7.688 -0.4015 -2.1741 -1.7263
 3578TIP3   OH232296   6.689   2.741   8.688  0.0173 -0.4272 -0.3022
 3578TIP3    H132297   6.595   2.731   8.672 -0.5012  0.9210  1.5817
 3578TIP3    H232298   6.723   2.652   8.682 -1.4365 -1.0025 -0.6476
 3579TIP3   OH232299   3.508   6.283   6.540 -0.3306 -0.7269 -0.0534
 3579TIP3    H132300   3.601   6.302   6.527 -0.3453 -0.9452 -0.5037
 3579TIP3    H232301   3.464   6.366   6.523 -0.2037 -0.5633  0.3926
 3580TIP3   OH232302   1.234   6.667   1.117 -0.5123  0.7289 -0.4287
 3580TIP3    H132303   1.313   6.677   1.064 -0.2387  0.4495 -0.0776
 3580TIP3    H232304   1.206   6.757   1.135  0.2482  0.8519  0.2107
 3581TIP3   OH232305   0.339   3.239   0.973 -0.0328 -0.1842  0.2393
 3581TIP3    H132306   0.316   3.314   0.918 -0.7425 -0.8763 -0.4294
 3581TIP3    H232307   0.423   3.210   0.938  0.8248  0.9763  1.2426
 3582TIP3   OH232308   0.780   4.752   7.236 -0.1079 -0.4444 -0.3473
 3582TIP3    H132309   0.737   4.776   7.317 -0.6183 -1.6742 -0.2378
 3582TIP3    H232310   0.713   4.764   7.168 -0.6178 -2.1455 -0.2036
 3583TIP3   OH232311   4.759   1.942   1.936  0.4768 -0.3375 -0.2419
 3583TIP3    H132312   4.842   1.956   1.891  0.0329  1.8120 -0.4915
 3583TIP3    H232313   4.782   1.888   2.012  1.8815 -0.7625 -0.9396
 3584TIP3   OH232314   6.478   0.545   1.603 -0.5999 -0.4754  0.0291
 3584TIP3    H132315   6.538   0.524   1.674 -0.6035 -0.8464 -0.0786
 3584TIP3    H232316   6.464   0.640   1.611  0.0705 -0.3661 -0.0060
 3585TIP3   OH232317   5.867   4.785   8.792 -0.5042  0.5993 -0.5577
 3585TIP3    H132318   5.959   4.807   8.780 -0.3795  0.2820 -0.1775
 3585TIP3    H232319   5.863   4.738   8.875 -0.9109  0.0212 -0.8938
 3586TIP3   OH232320   0.950   4.406   1.978  0.0297  0.3679  0.4117
 3586TIP3    H132321   0.913   4.335   1.926 -0.7137  0.3547  0.9338
 3586TIP3    H232322   0.888   4.417   2.051 -0.9844  2.8601 -0.7166
 3587TIP3   OH232323   3.449   5.050   1.327  0.1338  0.2605 -0.4612
 3587TIP3    H132324   3.416   5.078   1.413 -0.6528  1.7153 -1.1836
 3587TIP3    H232325   3.543   5.038   1.340 -0.3512 -2.2425  1.2313
 3588TIP3   OH232326   1.593   2.348   8.533  0.4608 -0.0738 -0.1868
 3588TIP3    H132327   1.655   2.275   8.542 -0.8558 -1.2181  0.0131
 3588TIP3    H232328   1.545   2.348   8.616  0.1038  0.6964 -0.3939
 3589TIP3   OH232329   2.272   6.139   8.157 -0.5290  0.2892  0.3144
 3589TIP3    H132330   2.202   6.077   8.132 -0.4880  0.8886 -1.4385
 3589TIP3    H232331   2.246   6.170   8.244 -1.5929 -0.7048  0.3899
 3590TIP3   OH232332   2.663   6.081   1.995  0.0252  0.0430 -0.0946
 3590TIP3    H132333   2.570   6.062   2.008  0.0332 -0.8250 -1.1284
 3590TIP3    H232334   2.704   6.061   2.079 -0.7574  0.7498  0.4713
 3591TIP3   OH232335   3.170   5.197   6.987  0.4831 -0.0737  0.1047
 3591TIP3    H132336   3.204   5.234   6.906  1.2148 -1.1965 -0.1346
 3591TIP3    H232337   3.197   5.105   6.984 -1.1862 -0.6224  0.6928
 3592TIP3   OH232338   0.898   6.038   7.062 -0.0284 -0.1815 -0.3193
 3592TIP3    H132339   0.952   6.082   7.128  0.3767  0.5547 -1.1201
 3592TIP3    H232340   0.904   6.094   6.985 -0.6965 -0.8998 -0.9093
 3593TIP3   OH232341   5.701   5.022   8.727  0.3237  0.3198 -0.2080
 3593TIP3    H132342   5.745   5.079   8.664 -0.5153  0.4232 -0.7214
 3593TIP3    H232343   5.768   4.959   8.753  0.8349  0.6044 -0.8042
 3594TIP3   OH232344   2.372   4.315   0.132  0.6604  0.0105  0.5760
 3594TIP3    H132345   2.321   4.349   0.206 -0.7684  0.6107 -0.6399
 3594TIP3    H232346   2.449   4.371   0.129  0.5821  0.1805  1.4122
 3595TIP3   OH232347   1.974   2.578   7.150  0.2046  0.3264  0.5610
 3595TIP3    H132348   1.962   2.639   7.078  0.7653 -1.5355 -1.2165
 3595TIP3    H232349   1.914   2.506   7.129  1.3515 -0.8554  1.2180
 3596TIP3   OH232350   1.753   5.582   6.917  0.3583  0.5598 -0.2956
 3596TIP3    H132351   1.797   5.503   6.886  1.5294  0.8889  0.4458
 3596TIP3    H232352   1.739   5.635   6.839 -0.3348 -0.3193 -0.7792
 3597TIP3   OH232353   3.332   6.104   0.505 -0.0220 -0.0587  0.3918
 3597TIP3    H132354   3.350   6.015   0.536  0.9342 -0.4970 -1.2842
 3597TIP3    H232355   3.338   6.097   0.410 -0.0831  1.7723  0.2352
 3598TIP3   OH232356   4.172   5.188   1.902  0.8413  0.1779  0.0253
 3598TIP3    H132357   4.232   5.114   1.910 -0.8704 -1.2644  0.1274
 3598TIP3    H232358   4.149   5.191   1.809  1.4241  1.0494 -0.1075
 3599TIP3   OH232359   1.477   0.755   0.872  0.4389 -0.2895 -0.0992
 3599TIP3    H132360   1.530   0.720   0.944  1.4930  0.1456 -0.6336
 3599TIP3    H232361   1.424   0.681   0.842  0.1448 -0.5294  0.9794
 3600TIP3   OH232362   2.346   1.551   1.587 -0.0326  0.0302  0.0231
 3600TIP3    H132363   2.438   1.570   1.605 -1.0150  2.4888  3.6170
 3600TIP3    H232364   2.309   1.635   1.561 -1.7147 -0.2531  1.2974
 3601TIP3   OH232365   0.393   4.008   8.272 -0.0234 -0.2425  0.3233
 3601TIP3    H132366   0.393   3.912   8.278 -2.6491 -0.2567  2.1197
 3601TIP3    H232367   0.461   4.035   8.333  1.3312 -0.9290 -0.8302
 3602TIP3   OH232368   1.541   2.883   8.423  0.1809 -0.1882  0.5370
 3602TIP3    H132369   1.501   2.802   8.454  0.3810 -0.1489  0.9076
 3602TIP3    H232370   1.542   2.874   8.327  0.1612 -0.6053  0.5722
 3603TIP3   OH232371   2.287   4.465   8.305  0.0910  0.3870 -0.2484
 3603TIP3    H132372   2.203   4.479   8.349  0.4912  1.2696  0.2562
 3603TIP3    H232373   2.277   4.381   8.261 -1.4145  0.9304 -1.0222
 3604TIP3   OH232374   4.922   4.402   1.442 -0.7387 -0.1732  0.4257
 3604TIP3    H132375   4.865   4.450   1.382  0.6999  0.3911 -0.5615
 3604TIP3    H232376   4.894   4.429   1.530  0.3325  3.0155 -0.0654
 3605TIP3   OH232377   0.434   6.753   1.666  0.4020  0.4081 -0.2361
 3605TIP3    H132378   0.510   6.712   1.624 -0.5009  0.1623 -1.7022
 3605TIP3    H232379   0.359   6.718   1.618 -0.6523  0.5719  1.2552
 3606TIP3   OH232380   1.075   2.719   8.685 -0.5609 -0.3295  0.3454
 3606TIP3    H132381   1.154   2.677   8.652 -0.1014 -2.5803  3.7776
 3606TIP3    H232382   1.100   2.755   8.770 -2.3161  2.5529 -0.1852
 3607TIP3   OH232383   1.178   3.307   6.740  0.7119 -0.2028 -0.3613
 3607TIP3    H132384   1.100   3.251   6.733  0.9399 -0.3716 -1.6962
 3607TIP3    H232385   1.212   3.288   6.828 -1.5297  0.9323  0.8421
 3608TIP3   OH232386   1.826   0.377   7.697 -0.2752 -0.0122  0.6222
 3608TIP3    H132387   1.750   0.359   7.753  0.1187  0.3919  1.3024
 3608TIP3    H232388   1.894   0.319   7.730 -0.3156 -0.4655 -0.0727
 3609TIP3   OH232389   5.753   0.934   0.292 -0.4084  0.1462  0.2570
 3609TIP3    H132390   5.704   0.865   0.336  0.5045  0.1739  1.3759
 3609TIP3    H232391   5.755   1.006   0.354  0.9963  0.1544  0.2384
 3610TIP3   OH232392   6.313   4.627   1.135 -0.8585 -0.4561  0.4275
 3610TIP3    H132393   6.317   4.534   1.160 -1.1307 -0.6575 -0.2614
 3610TIP3    H232394   6.281   4.626   1.045 -1.0505  0.3195  0.4830
 3611TIP3   OH232395   6.765   2.520   2.230  0.0490 -0.5312 -0.6342
 3611TIP3    H132396   6.830   2.556   2.290 -1.2200 -0.3719  0.6968
 3611TIP3    H232397   6.771   2.425   2.242  0.8726 -0.5938 -1.4411
 3612TIP3   OH232398   6.822   3.047   8.745  0.5111  0.1147  0.3336
 3612TIP3    H132399   6.740   3.010   8.777  0.8160 -0.5494  0.3797
 3612TIP3    H232400   6.849   3.107   8.814 -0.8092  1.7024 -0.4670
 3613TIP3   OH232401   0.239   6.277   7.027 -0.8537  0.5685  0.5614
 3613TIP3    H132402   0.291   6.267   6.947 -0.8018 -0.5698  0.7221
 3613TIP3    H232403   0.231   6.372   7.038 -0.7644  0.7524 -0.7240
 3614TIP3   OH232404   3.898   6.044   8.505 -0.3255  0.3163  0.6256
 3614TIP3    H132405   3.857   6.114   8.454 -0.6204 -0.6219 -0.4622
 3614TIP3    H232406   3.833   5.974   8.507  0.6185 -0.6136  0.1696
 3615TIP3   OH232407   5.959   4.473   8.667 -0.1937 -0.6894  0.3288
 3615TIP3    H132408   5.917   4.398   8.711 -0.4972  0.1907  1.5879
 3615TIP3    H232409   5.945   4.547   8.726  0.5483  0.2708 -0.6497
 3616TIP3   OH232410   3.188   1.082   6.950  0.1967 -0.6395  0.0195
 3616TIP3    H132411   3.093   1.072   6.945  0.3167 -1.7749 -0.4524
 3616TIP3    H232412   3.206   1.163   6.904 -0.6151  0.0735  0.9117
 3617TIP3   OH232413   0.668   5.612   1.134 -0.5628  0.2000 -0.1655
 3617TIP3    H132414   0.661   5.695   1.086 -0.5234  0.8884  0.9621
 3617TIP3    H232415   0.579   5.576   1.131 -0.5880  0.2930 -0.6481
 3618TIP3   OH232416   5.163   2.278   0.007  0.0987 -0.0490 -0.2593
 3618TIP3    H132417   5.234   2.256   0.068 -1.9137 -1.0684  1.8731
 3618TIP3    H232418   5.129   2.194  -0.022 -2.0652  0.2701  1.1008
 3619TIP3   OH232419   0.208   2.524   0.823  0.0974 -0.4006  0.7213
 3619TIP3    H132420   0.295   2.547   0.789 -0.5970  0.8107 -0.2950
 3619TIP3    H232421   0.180   2.450   0.768  1.0122 -1.7076  1.9351
 3620TIP3   OH232422   5.547   1.644   7.642  0.1247  0.3889  0.7478
 3620TIP3    H132423   5.548   1.686   7.556  0.6234  1.0057  1.0483
 3620TIP3    H232424   5.623   1.586   7.642  0.0442  0.2827  0.7236
 3621TIP3   OH232425   2.768   5.318   6.588 -0.3376 -0.0600  0.0665
 3621TIP3    H132426   2.857   5.338   6.617 -0.5770  0.2927  0.5644
 3621TIP3    H232427   2.775   5.230   6.551 -0.0094 -0.5088  1.1488
 3622TIP3   OH232428   2.620   4.123   7.128 -0.5265  0.2355  0.0383
 3622TIP3    H132429   2.620   4.203   7.076 -0.2051  1.0345  1.2364
 3622TIP3    H232430   2.555   4.139   7.197 -0.2788 -0.4408  0.4330
 3623TIP3   OH232431   0.610   4.371   7.025 -0.3016  0.1910  0.2553
 3623TIP3    H132432   0.538   4.396   6.968  0.3479 -2.2224 -1.7933
 3623TIP3    H232433   0.677   4.438   7.009 -0.1308 -0.4094 -1.9396
 3624TIP3   OH232434   6.506   5.108   6.994 -0.1029  0.4281 -0.0669
 3624TIP3    H132435   6.457   5.122   6.912  0.4401 -1.4312 -0.7566
 3624TIP3    H232436   6.585   5.061   6.967  1.2380  1.8081  1.2623
 3625TIP3   OH232437   1.682   3.030   7.541 -0.1600 -0.1384 -0.0171
 3625TIP3    H132438   1.730   3.059   7.463  0.3489  0.8421  0.6332
 3625TIP3    H232439   1.738   2.962   7.579  0.6316  0.8401  0.6114
 3626TIP3   OH232440   2.395   3.821   7.375  0.3518  0.6708 -0.5788
 3626TIP3    H132441   2.404   3.745   7.317  0.8913  0.6157 -0.4299
 3626TIP3    H232442   2.307   3.855   7.356 -0.3066 -0.5766  0.0678
 3627TIP3   OH232443   5.285   0.871   1.804 -0.0615 -0.6224  0.1591
 3627TIP3    H132444   5.314   0.808   1.870  0.1090  0.1719  0.8541
 3627TIP3    H232445   5.276   0.953   1.851  0.7321  0.1282 -0.9466
 3628TIP3   OH232446   3.375   2.260   7.561  0.5105  0.6999  0.3137
 3628TIP3    H132447   3.305   2.244   7.498  0.1708 -1.2532  1.1312
 3628TIP3    H232448   3.346   2.336   7.611  0.0431  1.2828 -0.8035
 3629TIP3   OH232449   5.689   4.234   0.813 -0.2696 -0.3787 -0.6106
 3629TIP3    H132450   5.694   4.294   0.888  0.8531 -0.9726 -0.1880
 3629TIP3    H232451   5.699   4.290   0.737 -1.1312  0.1971 -0.3219
 3630TIP3   OH232452   4.137   3.924   0.394 -0.4903  0.7857  0.4847
 3630TIP3    H132453   4.113   3.979   0.319 -0.5885 -0.5837 -0.5317
 3630TIP3    H232454   4.185   3.850   0.355 -1.2779 -0.3926  1.6616
 3631TIP3   OH232455   4.849   3.579   7.789 -0.2982  0.3274  0.3421
 3631TIP3    H132456   4.809   3.661   7.762 -3.3500 -0.8853  0.7186
 3631TIP3    H232457   4.909   3.603   7.860  0.1655  2.3708 -0.6822
 3632TIP3   OH232458   2.650   6.719   6.417 -0.4350 -0.6942  0.0554
 3632TIP3    H132459   2.595   6.684   6.488  0.2122  0.8977  1.4004
 3632TIP3    H232460   2.614   6.679   6.338 -2.4035 -1.0640  1.0647
 3633TIP3   OH232461   6.441   6.582   1.032 -0.2019 -0.5795  0.0099
 3633TIP3    H132462   6.504   6.652   1.047 -0.2739 -0.3097 -0.8825
 3633TIP3    H232463   6.377   6.591   1.103  0.6661 -0.7646  0.8431
 3634TIP3   OH232464   0.849   1.208   7.724 -0.1469  0.2965 -0.0226
 3634TIP3    H132465   0.795   1.183   7.799  2.2281 -0.2039  1.6363
 3634TIP3    H232466   0.855   1.303   7.728 -0.8925  0.3572 -0.2414
 3635TIP3   OH232467   1.662   1.370   0.423  0.0721  0.3738  0.3676
 3635TIP3    H132468   1.738   1.359   0.366  0.0973  0.2822  0.4183
 3635TIP3    H232469   1.588   1.382   0.363  0.0400 -0.1028  0.3095
 3636TIP3   OH232470   3.821   1.760   0.285  0.2625  0.0525 -0.4233
 3636TIP3    H132471   3.810   1.705   0.208 -0.7963  0.2275 -0.4032
 3636TIP3    H232472   3.824   1.698   0.358 -1.9697  0.0327 -0.2904
 3637TIP3   OH232473   5.029   5.906   7.411  0.0778 -0.0307 -0.2517
 3637TIP3    H132474   5.114   5.868   7.432  0.7385  2.4764  2.2471
 3637TIP3    H232475   5.047   5.966   7.338 -0.0556 -1.1170 -1.2035
 3638TIP3   OH232476   0.573   4.421   7.324  0.1861 -0.2744  0.2405
 3638TIP3    H132477   0.500   4.432   7.263  1.1455  0.2673 -0.8627
 3638TIP3    H232478   0.555   4.483   7.395  0.4051  1.1306 -0.8760
 3639TIP3   OH232479   3.848   0.623   7.790 -0.5111 -0.6483  0.2905
 3639TIP3    H132480   3.812   0.615   7.878  0.6106  1.0722  0.9437
 3639TIP3    H232481   3.914   0.555   7.785  0.7267  0.4180  1.4889
 3640TIP3   OH232482   5.361   3.157   8.192  0.0521  0.0016 -0.1669
 3640TIP3    H132483   5.268   3.145   8.170 -0.0190  2.4600 -1.5671
 3640TIP3    H232484   5.362   3.232   8.250  1.1759 -0.1120 -0.0271
 3641TIP3   OH232485   1.848   2.042   7.325  0.3367  0.0642 -0.0985
 3641TIP3    H132486   1.813   1.994   7.400 -0.7112 -0.3554 -0.8169
 3641TIP3    H232487   1.776   2.040   7.261  1.1569  0.5141 -1.0513
 3642TIP3   OH232488   3.040   5.725   8.268 -0.3104  0.2886  0.0792
 3642TIP3    H132489   3.039   5.642   8.220  1.8431  0.0364  0.3555
 3642TIP3    H232490   3.130   5.757   8.258 -0.1139  0.8398  2.8774
 3643TIP3   OH232491   5.175   0.557   0.591 -0.2637 -0.5962 -0.2522
 3643TIP3    H132492   5.200   0.627   0.651 -0.5153 -0.3912 -0.3817
 3643TIP3    H232493   5.196   0.477   0.637  1.3435 -0.4394 -0.6720
 3644TIP3   OH232494   2.869   0.591   7.721 -0.3173  0.5809 -0.0669
 3644TIP3    H132495   2.930   0.662   7.741 -0.5954  0.5360  1.0039
 3644TIP3    H232496   2.816   0.624   7.649  1.8423  0.0996 -1.9956
 3645TIP3   OH232497   0.625   4.917   1.942 -0.0105 -0.0427 -0.0229
 3645TIP3    H132498   0.533   4.908   1.964 -0.1340  0.4636 -0.3141
 3645TIP3    H232499   0.663   4.832   1.963 -0.4141 -0.0464  0.7001
 3646TIP3   OH232500   5.783   4.860   0.547  0.3987 -0.1839  0.5983
 3646TIP3    H132501   5.694   4.894   0.532  0.2084  0.5819  3.0020
 3646TIP3    H232502   5.840   4.930   0.516  0.1435 -0.3016 -0.1464
 3647TIP3   OH232503   1.540   1.492   1.577  0.3110  0.1334  0.0441
 3647TIP3    H132504   1.484   1.447   1.514 -2.4804 -0.1889  2.5165
 3647TIP3    H232505   1.487   1.497   1.657  2.5727  2.9556  1.5689
 3648TIP3   OH232506   2.320   0.550   0.582  0.2222  0.2352 -0.1811
 3648TIP3    H132507   2.327   0.456   0.596  0.7071  0.4843  1.3613
 3648TIP3    H232508   2.226   0.569   0.591  0.2044  0.0023  0.1116
 3649TIP3   OH232509   2.265   0.421   0.307  0.3569  0.0213  0.0223
 3649TIP3    H132510   2.211   0.359   0.259  0.1565  0.9531 -1.0171
 3649TIP3    H232511   2.203   0.483   0.345  0.5239 -0.6325  1.4227
 3650TIP3   OH232512   5.597   4.550   1.493  0.8170 -0.2147 -0.1753
 3650TIP3    H132513   5.662   4.620   1.488  1.0156 -0.3596  0.3791
 3650TIP3    H232514   5.544   4.562   1.414 -0.8525  2.2497  1.1866
 3651TIP3   OH232515   2.530   3.545   8.572  0.3503 -0.2241 -0.1079
 3651TIP3    H132516   2.593   3.547   8.501 -1.2204  1.0858 -1.5452
 3651TIP3    H232517   2.514   3.452   8.588  2.0402 -0.5561 -0.2215
 3652TIP3   OH232518   4.207   2.351   0.495 -0.0859  0.3259 -0.0473
 3652TIP3    H132519   4.281   2.393   0.451 -0.6997  0.2140 -1.2139
 3652TIP3    H232520   4.162   2.422   0.539 -0.0139  0.5940 -0.4030
 3653TIP3   OH232521   0.084   3.120   2.412 -0.3492 -0.1070 -0.3859
 3653TIP3    H132522   0.151   3.155   2.471 -0.1816 -1.6873  0.4196
 3653TIP3    H232523   0.011   3.097   2.469 -0.8417 -0.1522 -1.0165
 3654TIP3   OH232524   1.307   6.646   1.542 -0.2146  0.3016 -0.2338
 3654TIP3    H132525   1.273   6.710   1.479 -0.8300  0.8662  0.6453
 3654TIP3    H232526   1.245   6.574   1.539  0.1497  0.0041 -0.7865
 3655TIP3   OH232527   5.984   3.266   6.966 -0.3422 -0.4054 -0.0680
 3655TIP3    H132528   5.908   3.325   6.960 -0.2091 -0.1869  0.3304
 3655TIP3    H232529   5.946   3.178   6.969 -0.5973 -0.2853  0.3747
 3656TIP3   OH232530   2.506   0.543   0.171 -0.0048  0.9766  0.2604
 3656TIP3    H132531   2.447   0.513   0.240  0.9126  1.4085  1.2562
 3656TIP3    H232532   2.557   0.465   0.148  0.8133  1.2020  1.2453
 3657TIP3   OH232533   6.667   0.952   7.417  0.5115 -0.0556 -0.1673
 3657TIP3    H132534   6.760   0.934   7.423  0.5332  0.3396  0.7085
 3657TIP3    H232535   6.657   1.043   7.445 -0.4565 -0.9203  2.6623
 3658TIP3   OH232536   0.162   0.260   7.867 -0.0095 -0.4945 -0.4342
 3658TIP3    H132537   0.245   0.285   7.827  0.8029 -0.2320  1.3279
 3658TIP3    H232538   0.167   0.165   7.876 -0.2862 -0.5775 -1.1388
 3659TIP3   OH232539   0.020   4.665   6.976 -0.2642 -0.3659  0.2397
 3659TIP3    H132540   0.002   4.571   6.969 -1.2892 -0.2824  1.2855
 3659TIP3    H232541   0.058   4.689   6.892  3.5512 -2.4204  1.1334
 3660TIP3   OH232542   6.754   1.710   1.374  0.2379 -0.0788  0.5923
 3660TIP3    H132543   6.734   1.617   1.370 -0.2288 -0.0088  1.1551
 3660TIP3    H232544   6.840   1.715   1.416  0.0556 -0.2421  0.9967
 3661TIP3   OH232545   1.387   0.575   8.132 -1.3641 -0.1291 -0.6797
 3661TIP3    H132546   1.473   0.535   8.118 -2.4849 -2.8443 -0.5451
 3661TIP3    H232547   1.376   0.578   8.227 -1.6894 -0.5209 -0.6978
 3662TIP3   OH232548   1.472   3.464   1.288  0.3912  0.2153 -0.8397
 3662TIP3    H132549   1.552   3.486   1.240  0.4052  2.0014 -0.0956
 3662TIP3    H232550   1.422   3.408   1.228  2.3751 -1.3265 -1.1386
 3663TIP3   OH232551   1.057   6.391   7.073  0.2973 -0.0610  0.4510
 3663TIP3    H132552   1.028   6.386   6.982 -0.2229 -0.4918  0.6343
 3663TIP3    H232553   1.067   6.484   7.091 -1.2454  0.1187  0.4634
 3664TIP3   OH232554   4.169   5.933   8.483  0.0354 -0.1573  0.4609
 3664TIP3    H132555   4.147   5.840   8.477  1.1396 -0.3677 -0.6185
 3664TIP3    H232556   4.087   5.975   8.512 -1.0062 -1.2335 -0.7718
 3665TIP3   OH232557   3.823   3.247   6.501  0.0291  0.3214 -0.6600
 3665TIP3    H132558   3.730   3.258   6.518 -0.3011 -1.0257 -1.4392
 3665TIP3    H232559   3.843   3.159   6.534  1.6138  1.4927  1.7556
 3666TIP3   OH232560   5.732   3.086   1.644  0.2255 -0.1633 -0.5781
 3666TIP3    H132561   5.715   3.055   1.733  0.5324  2.6090  0.5613
 3666TIP3    H232562   5.818   3.128   1.649  0.0143  0.5058 -2.0544
 3667TIP3   OH232563   4.341   3.430   8.818 -0.1275  0.2395  0.3034
 3667TIP3    H132564   4.305   3.359   8.765  0.3537  0.2186 -0.0011
 3667TIP3    H232565   4.296   3.509   8.787  1.2607  0.4764 -1.2543
 3668TIP3   OH232566   0.535   5.983   0.660  0.3272 -0.2614  0.2565
 3668TIP3    H132567   0.520   6.065   0.614  0.1625 -0.3778  0.0983
 3668TIP3    H232568   0.625   5.989   0.692  0.4637 -0.2033 -0.1338
 3669TIP3   OH232569   5.834   0.942   7.481  0.0989  0.1064  0.8256
 3669TIP3    H132570   5.804   0.855   7.506 -0.0290  0.3374  1.5025
 3669TIP3    H232571   5.863   0.982   7.563  3.9520 -0.7177  0.0908
 3670TIP3   OH232572   6.137   6.761   1.674  0.2886  0.0620  0.2182
 3670TIP3    H132573   6.077   6.711   1.729 -1.4240  0.7666 -0.9396
 3670TIP3    H232574   6.153   6.706   1.598 -1.2597  1.0232 -0.8550
 3671TIP3   OH232575   5.447   6.581   0.210  0.2969 -0.0881 -0.0380
 3671TIP3    H132576   5.477   6.507   0.156 -0.8317 -0.0044 -0.7991
 3671TIP3    H232577   5.352   6.581   0.200  0.3781  3.0495 -2.1853
 3672TIP3   OH232578   3.692   5.538   1.632 -0.1053 -0.4828 -0.4476
 3672TIP3    H132579   3.688   5.446   1.605 -0.9436 -0.5317 -0.1754
 3672TIP3    H232580   3.677   5.535   1.727  2.9764 -0.3427  0.1614
 3673TIP3   OH232581   0.709   1.991   1.197 -0.4474 -0.5632  0.6597
 3673TIP3    H132582   0.691   1.943   1.278  0.6145 -1.4515  0.3926
 3673TIP3    H232583   0.796   2.028   1.210 -0.1882 -0.8721 -0.1417
 3674TIP3   OH232584   5.913   1.866   7.570  0.6537  0.1608  0.4371
 3674TIP3    H132585   6.006   1.881   7.585  1.6601 -5.1686  1.4521
 3674TIP3    H232586   5.874   1.865   7.657 -0.2436  1.2207  0.0851
 3675TIP3   OH232587   2.663   6.324   7.614 -0.1418 -0.1157  0.0384
 3675TIP3    H132588   2.672   6.246   7.669  1.0051  1.3287  2.0355
 3675TIP3    H232589   2.696   6.297   7.528 -0.4929 -2.0163  0.4586
 3676TIP3   OH232590   2.438   6.139   7.946  0.2756 -0.1018 -0.3842
 3676TIP3    H132591   2.383   6.114   7.872  0.0305 -2.7994  0.5933
 3676TIP3    H232592   2.376   6.165   8.014  0.4701  1.6314 -0.8368
 3677TIP3   OH232593   1.286   1.357   0.909  0.5917  0.0247 -0.1586
 3677TIP3    H132594   1.346   1.306   0.963  1.0911  1.4412  0.6935
 3677TIP3    H232595   1.261   1.298   0.838  2.2483 -0.9297 -0.0133
 3678TIP3   OH232596   4.278   1.082   7.543  0.2544 -0.3849  0.8725
 3678TIP3    H132597   4.192   1.044   7.560  0.7013 -2.1001 -0.4072
 3678TIP3    H232598   4.322   1.080   7.628 -0.3121 -1.2326  1.1594
 3679TIP3   OH232599   5.527   4.713   6.616 -0.1002  0.3596 -0.1359
 3679TIP3    H132600   5.497   4.719   6.525 -0.2364 -1.0930 -0.2115
 3679TIP3    H232601   5.614   4.673   6.610 -0.7754 -1.2674  0.4455
 3680TIP3   OH232602   6.292   5.243   0.236 -0.0677 -0.7063 -0.4619
 3680TIP3    H132603   6.305   5.148   0.229  0.9506 -0.5804 -0.4533
 3680TIP3    H232604   6.347   5.280   0.167  0.5062 -0.0662  0.3140
 3681TIP3   OH232605   5.334   6.764   6.663 -0.1314  0.2187  0.3704
 3681TIP3    H132606   5.269   6.835   6.667  0.0897  0.5515 -1.1908
 3681TIP3    H232607   5.419   6.809   6.666  0.1217 -0.2674  3.3275
 3682TIP3   OH232608   3.100   3.917   7.902  0.1195 -0.2396  0.4768
 3682TIP3    H132609   3.174   3.873   7.945  0.8328 -1.6448 -1.9883
 3682TIP3    H232610   3.035   3.848   7.891 -0.4220  0.3133  0.1577
 3683TIP3   OH232611   2.226   1.731   8.708 -0.1890  0.3640 -0.1923
 3683TIP3    H132612   2.155   1.741   8.644 -0.1030 -2.1822 -0.7768
 3683TIP3    H232613   2.288   1.801   8.686 -1.4154  1.2075 -1.1303
 3684TIP3   OH232614   6.056   3.084   8.283 -0.2114 -0.0758  0.2167
 3684TIP3    H132615   5.990   3.029   8.241 -3.2263  2.6561  0.9944
 3684TIP3    H232616   6.021   3.100   8.371  0.2639  3.2829 -0.0784
 3685TIP3   OH232617   0.335   4.749   7.404 -0.4421  0.3322 -0.7598
 3685TIP3    H132618   0.333   4.838   7.369 -1.0367  1.4735  1.9153
 3685TIP3    H232619   0.424   4.738   7.439 -0.4262 -0.0852 -0.9153
 3686TIP3   OH232620   1.070   0.667   7.376  0.6162  0.3122 -0.0717
 3686TIP3    H132621   1.157   0.635   7.351  0.8860  0.9519  0.0164
 3686TIP3    H232622   1.087   0.728   7.448  0.1133  0.5553 -0.1519
 3687TIP3   OH232623   1.448   4.078   0.083 -0.0206  0.1063 -0.5594
 3687TIP3    H132624   1.505   4.013   0.040  0.5323 -0.4839  0.9779
 3687TIP3    H232625   1.386   4.026   0.133  2.2613  0.5393  3.1541
 3688TIP3   OH232626   2.076   0.213   0.520  0.2306  0.6896  0.5306
 3688TIP3    H132627   1.993   0.170   0.535  0.6099 -0.5632 -0.7763
 3688TIP3    H232628   2.126   0.153   0.465  0.8052  2.7302 -1.3650
 3689TIP3   OH232629   4.643   2.966   1.263  0.2023  0.0068 -0.0337
 3689TIP3    H132630   4.736   2.943   1.262 -0.2235 -2.0156 -1.9565
 3689TIP3    H232631   4.607   2.915   1.335  0.0423 -2.0134 -1.4776
 3690TIP3   OH232632   2.034   5.155   0.329  0.5608 -0.6300 -0.1357
 3690TIP3    H132633   2.011   5.063   0.344  0.9992 -0.8095 -0.5458
 3690TIP3    H232634   1.969   5.204   0.378 -0.7333 -1.1221 -1.2899
 3691TIP3   OH232635   1.934   4.218   2.552 -0.0780 -0.6989 -0.2865
 3691TIP3    H132636   1.895   4.133   2.573 -1.4596 -0.7788 -2.7739
 3691TIP3    H232637   2.018   4.217   2.596 -1.4445 -1.9372  2.5576
 3692TIP3   OH232638   0.197   0.353   1.696  0.4451 -0.0171  0.8412
 3692TIP3    H132639   0.184   0.304   1.615  0.7787 -0.0698  0.8183
 3692TIP3    H232640   0.149   0.435   1.683  2.1787  0.8710 -0.2324
 3693TIP3   OH232641   0.117   0.763   0.597 -0.3502 -0.1658  0.3769
 3693TIP3    H132642   0.098   0.784   0.689  1.0723 -0.1198  0.6842
 3693TIP3    H232643   0.073   0.832   0.547 -0.9167 -0.0381  1.0354
 3694TIP3   OH232644   5.248   2.326   0.399 -0.2033  0.1166 -0.2690
 3694TIP3    H132645   5.243   2.421   0.410  2.0712  0.2564 -0.0743
 3694TIP3    H232646   5.260   2.293   0.488  0.1052 -0.2673 -0.4541
 3695TIP3   OH232647   4.112   3.646   1.091  0.1518 -0.4780  0.7291
 3695TIP3    H132648   4.088   3.634   1.183 -5.2676 -0.7274 -0.3939
 3695TIP3    H232649   4.092   3.738   1.073 -0.2453 -0.7877 -0.4933
 3696TIP3   OH232650   2.035   4.335   8.287 -0.3387 -0.2059  0.0012
 3696TIP3    H132651   2.075   4.268   8.231  2.0436  1.0062  0.1261
 3696TIP3    H232652   1.997   4.398   8.226  1.5639  0.7083 -0.3106
 3697TIP3   OH232653   3.701   0.913   8.783 -0.1686 -0.2629  0.1823
 3697TIP3    H132654   3.789   0.925   8.817 -0.4725 -0.4130  1.0305
 3697TIP3    H232655   3.667   0.836   8.827 -0.2575 -1.0094 -1.1255
 3698TIP3   OH232656   4.275   4.526   0.255  0.1901  0.4469 -0.1982
 3698TIP3    H132657   4.243   4.615   0.266  1.6359  1.2667 -2.0813
 3698TIP3    H232658   4.366   4.529   0.287  0.3413 -0.2734 -0.5412
 3699TIP3   OH232659   0.481   3.437   0.451 -0.0841 -0.0591  0.5524
 3699TIP3    H132660   0.546   3.379   0.411  0.0406 -0.9555  1.9709
 3699TIP3    H232661   0.464   3.504   0.384  0.0516 -1.4992 -0.9819
 3700TIP3   OH232662   0.029   2.807   7.319 -0.1866  0.5375  0.4968
 3700TIP3    H132663   0.020   2.840   7.230  0.2676 -0.2407  0.1493
 3700TIP3    H232664  -0.055   2.827   7.361 -0.2725  1.2315  0.0104
 3701TIP3   OH232665   4.311   3.891   0.105 -0.1740 -0.4250 -0.0683
 3701TIP3    H132666   4.232   3.843   0.130  0.2634 -0.9787  0.2572
 3701TIP3    H232667   4.279   3.961   0.048 -0.8396 -0.9973 -0.4134
 3702TIP3   OH232668   2.554   5.981   1.632  0.0709  0.0884 -0.6246
 3702TIP3    H132669   2.475   5.953   1.585 -0.6493  0.1908  0.4791
 3702TIP3    H232670   2.571   5.910   1.693 -0.1547  0.8185  0.3031
 3703TIP3   OH232671   0.366   0.883   7.919 -0.6400  0.0204 -0.0389
 3703TIP3    H132672   0.431   0.813   7.909 -0.1389  0.7164 -2.2569
 3703TIP3    H232673   0.404   0.942   7.984  0.4041 -0.1973 -0.4369
 3704TIP3   OH232674   1.142   0.460   1.794 -0.4985  0.3914 -0.1063
 3704TIP3    H132675   1.146   0.467   1.890  1.4676 -0.3966 -0.0742
 3704TIP3    H232676   1.113   0.370   1.778 -0.8282  0.5241 -0.2498
 3705TIP3   OH232677   1.874   1.180   7.921 -0.4725  0.3241 -0.2380
 3705TIP3    H132678   1.805   1.246   7.924 -0.3592  0.4040  1.1693
 3705TIP3    H232679   1.921   1.191   8.004  0.9350 -0.0414 -0.9565
 3706TIP3   OH232680   0.413   4.909   0.469 -0.3144 -0.4120 -0.0957
 3706TIP3    H132681   0.483   4.882   0.529 -2.6557 -1.3305  2.4438
 3706TIP3    H232682   0.359   4.968   0.521 -1.7360 -0.1431 -1.7933
 3707TIP3   OH232683   6.238   0.751   0.904 -0.0223  0.2551  0.2806
 3707TIP3    H132684   6.162   0.810   0.902 -0.3132  0.0116  2.4136
 3707TIP3    H232685   6.231   0.702   0.822 -2.0237  0.4308  0.2892
 3708TIP3   OH232686   1.606   0.779   1.260 -0.0194  0.2008  0.4846
 3708TIP3    H132687   1.619   0.729   1.180 -0.3008 -0.0289  0.5782
 3708TIP3    H232688   1.693   0.789   1.297 -0.0685 -1.2229  1.0574
 3709TIP3   OH232689   2.452   6.615   2.230  0.2281 -0.1169  0.0543
 3709TIP3    H132690   2.364   6.579   2.242  0.0910  0.2245  0.0729
 3709TIP3    H232691   2.511   6.543   2.256 -0.0247 -0.7607 -1.1071
 3710TIP3   OH232692   4.733   4.896   0.428  0.2626 -0.0960 -0.3164
 3710TIP3    H132693   4.725   4.897   0.523  0.7501  1.5377 -0.2640
 3710TIP3    H232694   4.665   4.835   0.399 -1.7362  1.4290  0.9398
 3711TIP3   OH232695   2.463   2.329   1.130 -0.0985 -0.3687  0.1724
 3711TIP3    H132696   2.379   2.327   1.176 -0.5738 -1.2138 -0.6957
 3711TIP3    H232697   2.474   2.241   1.096 -0.3026  0.4507 -2.2355
 3712TIP3   OH232698   2.576   5.592   0.807  0.1919 -0.2747  0.5398
 3712TIP3    H132699   2.591   5.546   0.889  0.1965  0.5183  0.9947
 3712TIP3    H232700   2.513   5.538   0.760 -1.1637  0.1229  1.8204
 3713TIP3   OH232701   6.557   3.858   0.081  0.3199  0.1936  0.4036
 3713TIP3    H132702   6.629   3.916   0.054 -0.1111  0.3945 -0.3612
 3713TIP3    H232703   6.510   3.908   0.148 -0.1267  0.8092 -0.3442
 3714TIP3   OH232704   2.765   3.836   1.849  0.3710 -0.0346 -0.8810
 3714TIP3    H132705   2.700   3.900   1.878  2.6095  1.5933  0.9112
 3714TIP3    H232706   2.806   3.805   1.930  1.0121 -1.9385 -1.8733
 3715TIP3   OH232707   4.314   6.295   7.246  0.0573 -0.6666 -0.1887
 3715TIP3    H132708   4.391   6.334   7.287 -0.7071 -2.0113  2.7760
 3715TIP3    H232709   4.252   6.367   7.236 -0.0346 -0.4090  1.9333
 3716TIP3   OH232710   2.140   1.439   6.920 -0.2575  0.2077 -0.0252
 3716TIP3    H132711   2.208   1.410   6.858  0.2688  0.4814  0.4151
 3716TIP3    H232712   2.060   1.442   6.868  0.6439  3.1305 -1.4516
 3717TIP3   OH232713   3.889   0.385   1.204  0.3106  0.3530 -0.5338
 3717TIP3    H132714   3.896   0.459   1.143  0.4633  0.9856  0.2253
 3717TIP3    H232715   3.798   0.385   1.231  0.1229 -0.2483 -1.1378
 3718TIP3   OH232716   4.365   6.157   8.539  0.9054 -0.0724  0.3980
 3718TIP3    H132717   4.275   6.182   8.520  1.2734  0.3364 -0.9786
 3718TIP3    H232718   4.374   6.069   8.503  1.5630  0.6426 -1.3437
 3719TIP3   OH232719   4.141   0.198   2.082  0.0634 -0.1389 -0.6900
 3719TIP3    H132720   4.222   0.247   2.095 -0.5395  0.3014  2.0566
 3719TIP3    H232721   4.078   0.263   2.049  0.1547  0.1300 -0.3337
 3720TIP3   OH232722   3.617   6.028   7.246 -0.0235 -0.0016 -0.2432
 3720TIP3    H132723   3.659   6.114   7.245  0.0334 -0.0229  0.2549
 3720TIP3    H232724   3.686   5.969   7.277 -0.5262  0.0166  0.9275
 3721TIP3   OH232725   4.962   4.240   8.637 -0.0979 -0.0548  0.4770
 3721TIP3    H132726   4.924   4.291   8.709 -1.0490 -0.1096  0.0351
 3721TIP3    H232727   4.922   4.153   8.647  0.3782 -0.2908  0.3516
 3722TIP3   OH232728   1.966   4.068   6.506 -0.3025  0.0017  0.2521
 3722TIP3    H132729   2.020   4.094   6.432  0.2345  0.3486  0.7596
 3722TIP3    H232730   1.962   4.146   6.561 -1.4436  0.0349  0.1578
 3723TIP3   OH232731   0.875   0.770   7.217 -0.1207  0.4954 -0.4516
 3723TIP3    H132732   0.954   0.739   7.261  1.0921  3.5098 -0.2793
 3723TIP3    H232733   0.821   0.806   7.287 -0.4541  0.7860 -0.8560
 3724TIP3   OH232734   3.838   0.086   1.676  0.2123  0.1833  0.7978
 3724TIP3    H132735   3.871   0.069   1.764  2.0086 -1.0900 -0.0576
 3724TIP3    H232736   3.878   0.170   1.651  0.2572  0.2041  0.9405
 3725TIP3   OH232737   6.170   0.612   8.354 -0.2569  0.2572 -0.2119
 3725TIP3    H132738   6.150   0.537   8.298 -1.6501  0.9128 -0.6113
 3725TIP3    H232739   6.105   0.608   8.424 -0.6695  1.3767 -0.5179
 3726TIP3   OH232740   0.109   3.284   7.703  0.2544  0.4233  0.9700
 3726TIP3    H132741   0.129   3.373   7.731  0.4156  1.1806 -1.3296
 3726TIP3    H232742   0.129   3.283   7.609 -1.0223 -1.6457  0.6418
 3727TIP3   OH232743   1.005   0.242   7.344  0.0273 -0.3109  0.4123
 3727TIP3    H132744   1.098   0.222   7.357  0.1970  0.1815 -0.0141
 3727TIP3    H232745   0.989   0.320   7.398 -0.0635 -0.2051  0.2313
 3728TIP3   OH232746   2.786   2.169   0.912  0.2254 -0.4144  0.0587
 3728TIP3    H132747   2.714   2.184   0.973 -0.4163 -0.6938 -0.6158
 3728TIP3    H232748   2.756   2.098   0.855  0.8649 -0.2544 -0.4978
 3729TIP3   OH232749   3.574   5.329   8.101  0.0010 -0.6089 -0.1941
 3729TIP3    H132750   3.650   5.326   8.160  0.6340 -0.2813 -0.9641
 3729TIP3    H232751   3.578   5.417   8.063  0.2635 -1.1938 -1.5645
 3730TIP3   OH232752   4.010   1.495   1.593 -0.2277 -0.1832 -0.8212
 3730TIP3    H132753   4.061   1.566   1.556  1.8338 -0.7047  0.7840
 3730TIP3    H232754   3.926   1.534   1.615  0.9733  1.9189  0.3821
 3731TIP3   OH232755   3.886   1.692   1.981  0.7477  0.2784 -0.1405
 3731TIP3    H132756   3.963   1.733   1.943 -0.4441  0.5918 -2.3155
 3731TIP3    H232757   3.820   1.760   1.983  0.5531  0.1144  2.0447
 3732TIP3   OH232758   4.261   3.519   0.254  0.6482  0.2896 -0.2397
 3732TIP3    H132759   4.240   3.496   0.163  0.7478  0.1148 -0.2181
 3732TIP3    H232760   4.346   3.479   0.270  1.8554  2.4488 -0.8928
 3733TIP3   OH232761   4.142   3.729   6.602 -0.1224 -0.3948  0.0702
 3733TIP3    H132762   4.203   3.656   6.606  0.5346 -0.0715 -2.3123
 3733TIP3    H232763   4.184   3.792   6.543 -1.4728  1.1124  0.6449
 3734TIP3   OH232764   1.955   6.425   7.254 -0.1566  0.2558 -0.2695
 3734TIP3    H132765   1.926   6.510   7.287 -1.4591  0.1708 -1.0939
 3734TIP3    H232766   2.050   6.432   7.248 -0.2114  1.5198  0.0186
 3735TIP3   OH232767   4.093   6.390   0.297  0.0026  0.0301 -0.1159
 3735TIP3    H132768   4.141   6.472   0.306  0.3619 -0.1972  0.0606
 3735TIP3    H232769   4.159   6.325   0.273 -0.2405 -0.2555 -0.0314
 3736TIP3   OH232770   4.495   4.826   0.307 -0.1237 -0.3353 -0.2679
 3736TIP3    H132771   4.485   4.788   0.220  1.2027 -0.8970 -0.1908
 3736TIP3    H232772   4.496   4.921   0.291 -0.7851 -0.4011 -0.7488
 3737TIP3   OH232773   5.206   1.337   1.025  0.2357  1.1239  0.3113
 3737TIP3    H132774   5.147   1.262   1.024  0.3024  1.0146  1.9028
 3737TIP3    H232775   5.235   1.346   0.935  0.9003 -1.2966  0.2174
 3738TIP3   OH232776   3.564   0.906   8.303  0.1161 -0.4112  0.2129
 3738TIP3    H132777   3.593   0.864   8.384  0.6261  0.6590  0.6025
 3738TIP3    H232778   3.642   0.949   8.269 -0.6582  1.3256  0.5258
 3739TIP3   OH232779   6.402   3.640   8.478  0.0701  0.3187  0.3063
 3739TIP3    H132780   6.432   3.553   8.453 -1.7787  0.0682 -1.3598
 3739TIP3    H232781   6.426   3.696   8.404 -1.5308  0.5200 -0.1118
 3740TIP3   OH232782   0.168   1.276   0.345  0.2420 -0.2547 -0.0389
 3740TIP3    H132783   0.084   1.323   0.337  0.8235  1.2517  1.8455
 3740TIP3    H232784   0.167   1.213   0.273 -1.2180  1.7291 -1.9072
 3741TIP3   OH232785   0.059   1.041   1.038 -0.1618  0.0959 -0.3283
 3741TIP3    H132786   0.130   1.045   1.102  0.7919 -1.8324 -1.1540
 3741TIP3    H232787   0.021   1.128   1.037  2.4677  1.3270 -0.1251
 3742TIP3   OH232788   4.337   5.140   0.621  0.1374 -0.3794 -0.4682
 3742TIP3    H132789   4.358   5.233   0.621 -0.0564 -0.3343  0.0676
 3742TIP3    H232790   4.415   5.098   0.656 -0.6743 -0.1937  1.7275
 3743TIP3   OH232791   4.444   0.263   0.292 -0.3070 -0.3923 -0.1313
 3743TIP3    H132792   4.372   0.203   0.309 -0.8165 -0.1429 -1.2619
 3743TIP3    H232793   4.418   0.309   0.212  1.0534 -0.2061 -0.4998
 3744TIP3   OH232794   0.868   0.490   7.445  0.1306  0.1744  0.3802
 3744TIP3    H132795   0.786   0.531   7.416  0.6963  0.6710 -0.5925
 3744TIP3    H232796   0.936   0.546   7.408  0.9415 -1.5975 -0.9482
 3745TIP3   OH232797   0.072   2.774   0.266  0.2337  0.8482 -0.0686
 3745TIP3    H132798   0.158   2.798   0.300  0.8935 -0.4028 -0.7734
 3745TIP3    H232799   0.061   2.828   0.188  1.8999 -1.3169 -1.9030
 3746TIP3   OH232800   4.998   0.075   0.953 -0.0737 -0.2122  0.2493
 3746TIP3    H132801   5.083   0.089   0.911 -0.3530 -0.0541 -0.2736
 3746TIP3    H232802   5.014   0.005   1.016  0.4131 -0.2932  0.0411
 3747TIP3   OH232803   4.476   2.211   1.677  0.0079 -0.2301  0.1829
 3747TIP3    H132804   4.555   2.181   1.633 -0.7079 -1.7135 -0.1718
 3747TIP3    H232805   4.498   2.211   1.770 -0.4182 -3.6863  0.4063
 3748TIP3   OH232806   2.879   6.120   1.572 -0.6331 -0.1518 -0.1099
 3748TIP3    H132807   2.946   6.060   1.539 -1.1000  0.3747 -2.1519
 3748TIP3    H232808   2.806   6.062   1.596 -2.2029 -0.4935 -4.6818
 3749TIP3   OH232809   5.434   5.320   8.212 -0.7476  0.3955 -0.2724
 3749TIP3    H132810   5.465   5.257   8.148 -1.0432  1.5549 -1.6017
 3749TIP3    H232811   5.493   5.395   8.203 -1.3456  0.9363  0.1697
 3750TIP3   OH232812   5.581   2.222   7.268  0.2009 -0.0498  0.0590
 3750TIP3    H132813   5.514   2.291   7.266  1.4264  1.2252  1.0395
 3750TIP3    H232814   5.653   2.257   7.217  1.7584  0.4665  2.4273
 3751TIP3   OH232815   4.173   5.617   7.693 -0.2108  0.6871 -0.2618
 3751TIP3    H132816   4.114   5.603   7.619 -0.6899  1.3763 -0.0193
 3751TIP3    H232817   4.260   5.601   7.657 -0.5353 -0.3460 -0.6229
 3752TIP3   OH232818   5.318   5.955   0.942 -0.0957 -0.2078 -0.5442
 3752TIP3    H132819   5.227   5.985   0.950  0.3844  0.9024  1.4863
 3752TIP3    H232820   5.319   5.870   0.986  0.1745  0.6190  1.1263
 3753TIP3   OH232821   0.890   4.734   0.642  0.1877  0.1691  0.0591
 3753TIP3    H132822   0.831   4.718   0.715  0.8674 -1.4232  0.2956
 3753TIP3    H232823   0.924   4.648   0.618  0.4832  0.7273 -1.7218
 3754TIP3   OH232824   5.050   0.927   6.402  0.3276 -0.1696  0.1496
 3754TIP3    H132825   5.128   0.982   6.397  0.0732  0.3208  1.2984
 3754TIP3    H232826   4.980   0.987   6.426 -0.1469 -0.8285  0.4395
 3755TIP3   OH232827   2.797   2.115   2.399 -0.2735  0.2842 -0.6860
 3755TIP3    H132828   2.791   2.209   2.380  1.0200  0.3552 -0.8630
 3755TIP3    H232829   2.863   2.083   2.337  0.1616 -0.5095  0.1664
 3756TIP3   OH232830   5.733   1.791   1.862 -0.1438 -0.2057 -0.1666
 3756TIP3    H132831   5.704   1.762   1.775 -1.6102  2.6877 -0.7745
 3756TIP3    H232832   5.652   1.796   1.914  0.0997  1.8079  0.1044
 3757TIP3   OH232833   3.910   6.820   1.915  0.3907 -0.5001  0.1504
 3757TIP3    H132834   3.896   6.816   2.010  1.1904  0.6743  0.3511
 3757TIP3    H232835   4.004   6.802   1.905  0.4765  0.1633 -0.3235
 3758TIP3   OH232836   2.869   5.547   0.887 -0.1732 -0.0082  0.7348
 3758TIP3    H132837   2.950   5.576   0.846  1.9723 -2.7788  2.6270
 3758TIP3    H232838   2.857   5.457   0.857 -3.2423  0.6202 -0.3059
 3759TIP3   OH232839   5.507   2.468   1.179 -0.7199 -0.6807 -0.0614
 3759TIP3    H132840   5.549   2.498   1.098 -1.3735  1.4751  0.3427
 3759TIP3    H232841   5.484   2.377   1.161  3.1274 -1.7415 -0.6741
 3760TIP3   OH232842   4.702   6.745   0.089  0.4868 -0.3718 -0.3178
 3760TIP3    H132843   4.733   6.803   0.020  2.1354 -0.7419  0.0663
 3760TIP3    H232844   4.668   6.668   0.042 -1.7009  0.8297 -0.8245
 3761TIP3   OH232845   6.199   3.486   0.157 -0.0558  0.0220  0.5367
 3761TIP3    H132846   6.266   3.479   0.088  0.3135  0.7354  0.8066
 3761TIP3    H232847   6.243   3.535   0.226 -1.3060  1.7930  0.1377
 3762TIP3   OH232848   2.072   4.610   0.804 -0.1802 -0.0483 -0.0556
 3762TIP3    H132849   2.015   4.538   0.778 -0.2961 -0.5716  1.5183
 3762TIP3    H232850   2.091   4.594   0.897  0.5466  1.4437  0.0994
 3763TIP3   OH232851   4.726   5.374   0.810 -0.4129  0.9182 -0.3525
 3763TIP3    H132852   4.684   5.365   0.895 -0.9378 -3.2901 -0.8325
 3763TIP3    H232853   4.654   5.386   0.748 -0.1874  1.8935 -0.4462
 3764TIP3   OH232854   4.799   0.927   7.544 -0.0432 -0.0108  0.4830
 3764TIP3    H132855   4.740   0.996   7.514 -0.1894  0.2172  1.2714
 3764TIP3    H232856   4.791   0.859   7.478  1.4297  1.4149 -1.2617
 3765TIP3   OH232857   1.185   6.374   1.678 -0.1628 -0.0651 -0.2564
 3765TIP3    H132858   1.183   6.437   1.751 -3.9617 -1.6815  1.3012
 3765TIP3    H232859   1.222   6.295   1.716 -1.1349 -0.5832 -0.3561
 3766TIP3   OH232860   4.813   2.253   8.122  0.9661  0.0274 -0.0057
 3766TIP3    H132861   4.896   2.252   8.075  0.3717 -0.3944 -1.0809
 3766TIP3    H232862   4.794   2.161   8.139  0.2641  0.0492 -0.6160
 3767TIP3   OH232863   3.557   4.067   8.713 -0.1838 -0.3422 -0.1483
 3767TIP3    H132864   3.633   4.124   8.715 -1.3824  1.2971  0.6047
 3767TIP3    H232865   3.572   4.003   8.783  0.8900 -0.6029 -0.6040
 3768TIP3   OH232866   3.503   3.978   0.887  0.2571  0.3990 -0.4058
 3768TIP3    H132867   3.533   4.044   0.950  0.5794  1.1083 -1.2751
 3768TIP3    H232868   3.520   4.017   0.802 -1.6383  0.1316 -0.9563
 3769TIP3   OH232869   6.276   6.586   0.285 -0.2851 -0.0732 -0.0926
 3769TIP3    H132870   6.271   6.557   0.194  0.2805  0.8049 -0.4159
 3769TIP3    H232871   6.336   6.661   0.283 -2.5038  1.8223  0.5384
 3770TIP3   OH232872   1.873   0.533   1.045 -0.3028 -0.1497  0.3880
 3770TIP3    H132873   1.896   0.451   1.089  0.9954  0.3211  0.6334
 3770TIP3    H232874   1.925   0.532   0.965  0.5986  0.9416  0.9403
 3771TIP3   OH232875   5.828   4.011   1.698  0.2992  0.1956  0.2138
 3771TIP3    H132876   5.788   3.952   1.762 -0.8647 -1.1177 -1.6356
 3771TIP3    H232877   5.785   4.095   1.713  2.1999  0.8134  3.0976
 3772TIP3   OH232878   2.428   5.153   6.830 -0.3901  0.4476  0.2886
 3772TIP3    H132879   2.489   5.118   6.765 -0.0354  1.4618  0.0656
 3772TIP3    H232880   2.414   5.080   6.891 -0.5615 -0.4519 -0.7889
 3773TIP3   OH232881   0.162   1.813   7.531 -0.0983  0.2142  0.7009
 3773TIP3    H132882   0.203   1.735   7.494 -0.4402 -0.1704  1.1147
 3773TIP3    H232883   0.219   1.885   7.506  1.6801 -0.4795  2.5190
 3774TIP3   OH232884   3.718   6.278   7.273 -0.0215  0.4013 -0.4189
 3774TIP3    H132885   3.722   6.373   7.260 -1.3312  0.6883  0.9656
 3774TIP3    H232886   3.771   6.263   7.351  0.7861 -0.1207 -1.0565
 3775TIP3   OH232887   4.814   1.425   7.581 -0.4437 -0.0060 -0.2479
 3775TIP3    H132888   4.790   1.517   7.586  1.6317  0.6549 -1.1904
 3775TIP3    H232889   4.783   1.397   7.494 -1.3044 -0.3035  0.1400
 3776TIP3   OH232890   2.020   4.226   0.445  0.0457 -0.3458  0.2508
 3776TIP3    H132891   2.071   4.265   0.516 -0.0094  0.6473 -0.2325
 3776TIP3    H232892   1.962   4.164   0.488 -0.4350  0.7143  1.1615
 3777TIP3   OH232893   3.950   4.630   2.467 -0.2408  0.2336  0.0328
 3777TIP3    H132894   4.007   4.571   2.517  0.4888 -0.1245 -1.1989
 3777TIP3    H232895   3.989   4.716   2.478 -0.3305  0.2282  0.4207
 3778TIP3   OH232896   2.392   3.889   6.545 -0.2547 -0.0363  0.0044
 3778TIP3    H132897   2.372   3.829   6.473  0.8699 -0.6319  0.1647
 3778TIP3    H232898   2.438   3.962   6.503  2.3761 -1.3822  0.2995
 3779TIP3   OH232899   6.038   3.842   7.526 -0.2459 -0.1534  0.7286
 3779TIP3    H132900   5.981   3.896   7.581 -0.0865 -0.1572  0.8993
 3779TIP3    H232901   6.047   3.760   7.575  2.4479  0.9542  2.2926
 3780TIP3   OH232902   6.135   6.116   6.626 -0.0153  0.2726 -0.0566
 3780TIP3    H132903   6.182   6.190   6.586 -0.4774 -0.4457 -2.0854
 3780TIP3    H232904   6.062   6.156   6.672  0.2171  1.1388 -0.4180
 3781TIP3   OH232905   5.466   5.978   1.307  0.0755  0.4198 -0.3519
 3781TIP3    H132906   5.532   5.911   1.326  0.3217  0.8032  0.1599
 3781TIP3    H232907   5.420   5.990   1.390 -0.5351  0.2770 -0.6626
 3782TIP3   OH232908   2.286   6.812   6.565  0.7462 -0.1345  0.3002
 3782TIP3    H132909   2.208   6.782   6.518  1.9214 -1.1772 -1.0644
 3782TIP3    H232910   2.295   6.750   6.637  1.2701 -1.0850 -0.5588
 3783TIP3   OH232911   4.755   3.708   0.557  0.0295  0.0890 -0.0642
 3783TIP3    H132912   4.681   3.714   0.496  0.1387  1.0548 -0.1158
 3783TIP3    H232913   4.798   3.793   0.551 -0.4065  0.4889  1.9340
 3784TIP3   OH232914   2.333   0.955   7.493 -0.2141  0.2353  0.1330
 3784TIP3    H132915   2.361   0.868   7.465 -1.0094  0.1136 -0.3226
 3784TIP3    H232916   2.303   0.943   7.583  1.7907  0.5087  0.8947
 3785TIP3   OH232917   6.241   2.162   0.734 -0.1015  0.2800 -0.4602
 3785TIP3    H132918   6.193   2.080   0.746 -0.1109  0.3830  0.2428
 3785TIP3    H232919   6.333   2.136   0.734 -0.0488  0.3766  0.8804
 3786TIP3   OH232920   5.181   3.455   6.360  0.2354  0.4592 -0.1220
 3786TIP3    H132921   5.098   3.418   6.332 -0.7634 -0.5339  3.5652
 3786TIP3    H232922   5.167   3.550   6.361 -0.4063  0.3774 -0.6707
 3787TIP3   OH232923   5.356   5.897   1.823 -0.4431  1.1730  0.0964
 3787TIP3    H132924   5.349   5.828   1.889  2.4386 -0.9387 -1.5634
 3787TIP3    H232925   5.447   5.927   1.829 -0.0411  0.8445 -2.8235
 3788TIP3   OH232926   6.251   4.181   1.059 -0.3665  0.2185  0.1839
 3788TIP3    H132927   6.238   4.102   1.111  0.5342  0.2930  0.5399
 3788TIP3    H232928   6.281   4.247   1.121  3.0427 -0.3115 -0.6857
 3789TIP3   OH232929   1.234   3.512   6.962  1.1341  0.2103 -0.3115
 3789TIP3    H132930   1.180   3.540   6.889  0.4329 -0.9140 -0.2334
 3789TIP3    H232931   1.174   3.502   7.035  1.3303 -1.4834 -0.3351
 3790TIP3   OH232932   2.827   3.090   0.158  0.4648  0.0433 -0.2513
 3790TIP3    H132933   2.742   3.051   0.140  0.6804 -0.7916  0.4495
 3790TIP3    H232934   2.882   3.016   0.183  0.9574  0.7559  0.8544
 3791TIP3   OH232935   1.073   5.511   2.287  0.5453 -0.4010  0.3133
 3791TIP3    H132936   1.126   5.557   2.352 -1.2574  0.4976  1.2485
 3791TIP3    H232937   1.130   5.443   2.252  2.3843  0.7406  0.9826
 3792TIP3   OH232938   3.217   4.009   0.584 -0.5944 -0.0154  0.3455
 3792TIP3    H132939   3.131   4.008   0.625 -0.2358 -0.4977  1.0980
 3792TIP3    H232940   3.220   3.930   0.530 -0.0592 -0.8502  1.5444
 3793TIP3   OH232941   0.780   3.354   6.379 -0.1875  0.3428 -1.0265
 3793TIP3    H132942   0.866   3.383   6.346 -0.1248  0.2435 -0.9514
 3793TIP3    H232943   0.739   3.434   6.411  0.0268  0.3359 -0.7256
 3794TIP3   OH232944   5.795   0.311   6.415  0.1394  0.1989  0.3558
 3794TIP3    H132945   5.832   0.351   6.494  0.0570  0.0007  0.4961
 3794TIP3    H232946   5.771   0.223   6.442  1.5749 -0.4242 -0.2875
 3795TIP3   OH232947   5.299   3.782   0.074 -0.3676 -0.2649 -0.5406
 3795TIP3    H132948   5.219   3.774   0.124 -0.3526 -1.6787 -0.6895
 3795TIP3    H232949   5.297   3.871   0.038 -0.6278  0.6002  1.4817
 3796TIP3   OH232950   0.862   3.613   2.116 -0.0470  0.4203  0.3614
 3796TIP3    H132951   0.823   3.697   2.093  0.3147  1.2757  2.6346
 3796TIP3    H232952   0.951   3.618   2.082 -0.2721  0.6187 -0.2110
 3797TIP3   OH232953   4.043   0.039   0.568  0.1099 -0.0100 -0.3498
 3797TIP3    H132954   4.038  -0.034   0.630  1.5382 -2.3197 -2.7696
 3797TIP3    H232955   4.126   0.083   0.589 -0.8647  1.1748  1.2662
 3798TIP3   OH232956   4.542   3.862   8.284  0.1918 -0.4461 -0.4017
 3798TIP3    H132957   4.535   3.905   8.199  1.3406  1.1148  0.2236
 3798TIP3    H232958   4.485   3.913   8.342  0.1376 -0.9156 -0.0332
 3799TIP3   OH232959   2.168   4.847   0.645 -0.4472 -0.5207  0.5438
 3799TIP3    H132960   2.119   4.827   0.724 -0.1078 -0.5175  0.7543
 3799TIP3    H232961   2.108   4.824   0.573 -0.9156 -0.1268  0.7999
 3800TIP3   OH232962   2.837   5.243   2.234 -0.1034 -0.0378 -0.2280
 3800TIP3    H132963   2.885   5.255   2.316  0.3638 -0.0018 -0.5029
 3800TIP3    H232964   2.830   5.330   2.196  1.6284 -0.3198 -1.2965
 3801TIP3   OH232965   1.313   0.909   8.262  0.2267 -0.2179  0.0449
 3801TIP3    H132966   1.240   0.895   8.323  1.4872 -2.0993  1.2559
 3801TIP3    H232967   1.375   0.839   8.283  1.9278  0.6867 -1.6347
 3802TIP3   OH232968   3.926   5.090   7.474  0.2560 -0.4353  0.7739
 3802TIP3    H132969   3.989   5.021   7.456  0.8182  0.3289 -0.2986
 3802TIP3    H232970   3.871   5.093   7.395 -0.0933 -0.0011  1.0286
 3803TIP3   OH232971   1.125   6.301   8.431 -0.3975 -0.3031  0.0697
 3803TIP3    H132972   1.125   6.338   8.343  0.4703  1.5903  0.7960
 3803TIP3    H232973   1.218   6.294   8.454 -0.3512 -4.9050 -0.6909
 3804TIP3   OH232974   5.808   2.661   6.807 -0.1341  0.0540  0.2678
 3804TIP3    H132975   5.829   2.585   6.752 -1.7464 -0.4160  0.2213
 3804TIP3    H232976   5.797   2.733   6.745  0.4239  0.0881  0.2099
 3805TIP3   OH232977   0.038   0.862   1.729  0.3180  0.2753  0.2380
 3805TIP3    H132978   0.122   0.906   1.722 -0.0804  1.1185  0.6086
 3805TIP3    H232979  -0.026   0.927   1.699 -0.1222 -0.7248 -1.1230
 3806TIP3   OH232980   5.536   5.268   8.464  0.2654 -0.4116 -0.2361
 3806TIP3    H132981   5.500   5.273   8.375  1.7493  0.7979 -0.8050
 3806TIP3    H232982   5.519   5.177   8.491  0.5008 -1.0449 -2.0653
 3807TIP3   OH232983   4.311   6.813   8.033  0.0265 -1.3043 -0.0828
 3807TIP3    H132984   4.383   6.760   8.068  2.3906 -0.7732 -3.5655
 3807TIP3    H232985   4.282   6.764   7.956 -0.9397  0.2194 -0.7177
 3808TIP3   OH232986   5.749   0.698   1.331  1.2313  0.3165 -0.4141
 3808TIP3    H132987   5.707   0.682   1.246 -0.8937  0.8618  0.4741
 3808TIP3    H232988   5.798   0.618   1.349  0.5433 -0.3695 -1.4853
 3809TIP3   OH232989   1.778   5.099   0.083  0.0608  0.0403 -0.1945
 3809TIP3    H132990   1.819   5.185   0.096  1.0345 -0.3514 -0.5855
 3809TIP3    H232991   1.715   5.113   0.013 -1.2317  0.8843  1.0796
 3810TIP3   OH232992   6.745   3.912   6.652 -0.7344 -0.2455 -0.2220
 3810TIP3    H132993   6.732   3.877   6.564  0.3321 -0.2636 -0.3870
 3810TIP3    H232994   6.665   3.888   6.699 -0.5574 -1.8364 -0.6706
 3811TIP3   OH232995   0.207   1.160   7.762  0.3638 -0.3265  0.5427
 3811TIP3    H132996   0.237   1.091   7.702 -0.9788 -0.8378  0.4214
 3811TIP3    H232997   0.288   1.200   7.794  1.1448 -0.8454 -0.6675
 3812TIP3   OH232998   5.162   3.157   6.704 -0.2327 -0.1693 -0.4818
 3812TIP3    H132999   5.143   3.244   6.669  0.2923 -0.2142 -0.8847
 3812TIP3    H233000   5.158   3.099   6.628  0.4131 -0.3437 -0.3835
 3813TIP3   OH233001   6.364   5.417   7.055 -0.1611 -0.1175  0.2383
 3813TIP3    H133002   6.399   5.503   7.033 -0.2795  0.1951  1.2265
 3813TIP3    H233003   6.307   5.394   6.981  0.5647  0.2393 -0.4537
 3814TIP3   OH233004   3.237   5.398   1.149  0.2201 -0.3529 -0.0512
 3814TIP3    H133005   3.155   5.434   1.184 -1.6878 -2.3096 -2.1389
 3814TIP3    H233006   3.280   5.472   1.107 -2.0937  0.1914 -1.6413
 3815TIP3   OH233007   5.895   4.970   8.110  0.1317 -0.0492 -0.9015
 3815TIP3    H133008   5.894   4.875   8.101  1.3036 -0.0008 -1.8658
 3815TIP3    H233009   5.951   4.986   8.186  0.9701 -0.1163 -1.4869
 3816TIP3   OH233010   1.746   6.332   0.262 -0.6337  0.2395 -0.0230
 3816TIP3    H133011   1.804   6.314   0.336 -1.2758  0.1560  0.4682
 3816TIP3    H233012   1.805   6.348   0.188  0.0263  0.8763  0.6300
 3817TIP3   OH233013   2.623   6.334   8.183  0.0387  0.3750  0.4554
 3817TIP3    H133014   2.707   6.375   8.162 -0.4548  0.8199 -0.6937
 3817TIP3    H233015   2.642   6.240   8.180  0.3062  0.4520 -0.6579
 3818TIP3   OH233016   1.850   3.587   0.954 -0.0052 -0.1365 -0.4661
 3818TIP3    H133017   1.916   3.575   1.022  0.5236  0.8825 -0.7850
 3818TIP3    H233018   1.826   3.680   0.959 -3.4154 -0.9499  1.4536
 3819TIP3   OH233019   4.819   0.847   7.127 -0.0585  0.0389  0.4610
 3819TIP3    H133020   4.900   0.816   7.169 -1.1117 -2.0942  1.0922
 3819TIP3    H233021   4.777   0.767   7.096 -1.2944  1.2227 -1.0639
 3820TIP3   OH233022   2.079   1.762   8.444  0.0774  0.1211  0.1738
 3820TIP3    H133023   1.984   1.749   8.447  0.1298 -0.5326 -0.6131
 3820TIP3    H233024   2.090   1.849   8.405 -0.2148  1.0591  2.0833
 3821TIP3   OH233025   1.440   5.060   7.836 -0.2199  0.0963 -0.2943
 3821TIP3    H133026   1.431   5.018   7.750 -1.9000  0.3529 -0.2926
 3821TIP3    H233027   1.531   5.048   7.860  0.6145  1.0998 -2.6888
 3822TIP3   OH233028   1.303   6.561   8.614 -0.6662 -0.1647  0.2807
 3822TIP3    H133029   1.373   6.611   8.572 -0.7865 -0.9164 -0.8668
 3822TIP3    H233030   1.318   6.572   8.708 -1.9287  3.7636  0.1959
 3823TIP3   OH233031   0.222   1.432   7.663 -0.5077  0.2296 -0.0465
 3823TIP3    H133032   0.185   1.453   7.577 -3.3563  0.0906  1.0639
 3823TIP3    H233033   0.184   1.348   7.686  0.9384 -0.1839  1.0092
 3824TIP3   OH233034   2.164   4.539   2.094  0.0815  0.1754 -0.1781
 3824TIP3    H133035   2.126   4.455   2.122  1.0613 -0.1840  0.1321
 3824TIP3    H233036   2.088   4.595   2.077 -0.5909 -0.7102 -0.1959
 3825TIP3   OH233037   0.919   2.889   8.541  0.7260  0.0466  0.0636
 3825TIP3    H133038   0.952   2.806   8.576  0.3325 -1.1050 -2.0981
 3825TIP3    H233039   0.996   2.933   8.506  0.6051 -0.7456 -1.2870
 3826TIP3   OH233040   4.478   5.993   1.529 -0.3957 -0.3607  0.1188
 3826TIP3    H133041   4.457   6.083   1.553 -0.3228 -0.2432 -0.2490
 3826TIP3    H233042   4.552   5.970   1.585 -1.2231 -0.6394  1.1275
 3827TIP3   OH233043   4.204   4.867   8.216 -0.3083 -0.3017  0.0198
 3827TIP3    H133044   4.277   4.927   8.203  0.9909 -1.4250  1.7343
 3827TIP3    H233045   4.150   4.878   8.138  1.3954  0.9476 -1.0532
 3828TIP3   OH233046   5.486   0.975   0.112 -0.1224  0.5066  0.2099
 3828TIP3    H133047   5.544   0.927   0.171  0.7019  1.4587  0.2146
 3828TIP3    H233048   5.511   0.944   0.024 -1.9002 -1.5084  0.3275
 3829TIP3   OH233049   3.953   4.906   7.852 -0.3766 -0.1028  0.2188
 3829TIP3    H133050   4.020   4.971   7.833 -0.6124 -0.2386 -1.1393
 3829TIP3    H233051   4.002   4.826   7.873 -0.1074  0.0321  0.0991
 3830TIP3   OH233052   1.402   6.054   6.307 -0.2082  0.1984 -0.8064
 3830TIP3    H133053   1.457   6.065   6.229  0.0025 -0.4163 -0.7509
 3830TIP3    H233054   1.451   6.097   6.377 -0.1572  0.3129 -0.9121
 3831TIP3   OH233055   4.312   4.534   7.642  0.0701  0.2232  0.2619
 3831TIP3    H133056   4.369   4.564   7.572  0.5698 -0.7472  0.2368
 3831TIP3    H233057   4.303   4.440   7.627 -0.3013  0.1058  1.1505
 3832TIP3   OH233058   3.875   2.705   7.673  0.2905  0.2284 -0.2448
 3832TIP3    H133059   3.805   2.665   7.622  0.8405  0.8182 -1.4827
 3832TIP3    H233060   3.914   2.631   7.720 -0.9148 -0.1579  0.2036
 3833TIP3   OH233061   5.355   5.269   7.353 -0.0089  0.2447  0.1914
 3833TIP3    H133062   5.445   5.268   7.384  0.2037 -1.3897 -0.3820
 3833TIP3    H233063   5.362   5.284   7.259 -0.3541  0.4346  0.1942
 3834TIP3   OH233064   6.039   0.024   6.232 -0.3968 -0.1850 -0.2100
 3834TIP3    H133065   5.970   0.008   6.168  0.4631 -1.1804 -0.9345
 3834TIP3    H233066   6.005  -0.008   6.315 -2.6351  3.5825  0.5610
 3835TIP3   OH233067   2.099   6.613   0.701  0.6417 -0.1993  0.6750
 3835TIP3    H133068   2.032   6.677   0.676  0.1501 -0.7162  0.6410
 3835TIP3    H233069   2.089   6.605   0.796  0.9550  0.0464  0.7315
 3836TIP3   OH233070   3.730   3.332   0.796  0.0632  0.0111  0.4355
 3836TIP3    H133071   3.648   3.379   0.786 -0.6561 -1.2458  0.1430
 3836TIP3    H233072   3.771   3.337   0.709  1.3426  2.4036  1.0912
 3837TIP3   OH233073   4.679   4.157   6.999 -0.1468 -0.4143 -0.0334
 3837TIP3    H133074   4.649   4.067   7.009 -0.8216 -0.5015 -2.1204
 3837TIP3    H233075   4.770   4.150   6.973  0.3721 -0.3723  1.6797
 3838TIP3   OH233076   0.368   6.203   7.267  0.7948  0.4502  0.6896
 3838TIP3    H133077   0.314   6.126   7.286 -0.8369  1.9109  2.2817
 3838TIP3    H233078   0.346   6.226   7.177 -2.9012  2.1107  1.8036
 3839TIP3   OH233079   2.337   0.877   8.730 -0.1440  0.1307 -0.4842
 3839TIP3    H133080   2.251   0.886   8.771  0.3657  1.5384  0.3447
 3839TIP3    H233081   2.396   0.858   8.803  0.2763 -0.7170 -1.0343
 3840TIP3   OH233082   2.005   6.205   0.986 -0.5670  0.6305 -0.0547
 3840TIP3    H133083   1.921   6.242   0.960 -0.8583 -0.3497 -0.5515
 3840TIP3    H233084   2.060   6.211   0.907  0.0381  1.8189  0.4383
 3841TIP3   OH233085   4.978   3.391   0.317  0.4293  0.3388  0.2143
 3841TIP3    H133086   4.979   3.377   0.411  0.5087  1.2295  0.3549
 3841TIP3    H233087   4.913   3.460   0.303  2.2545  2.0925 -0.0810
 3842TIP3   OH233088   3.547   4.325   8.092  0.2616 -0.1006 -0.0618
 3842TIP3    H133089   3.602   4.269   8.148  1.2687 -0.0404 -0.9546
 3842TIP3    H233090   3.590   4.321   8.006 -0.8742  0.3465 -0.6591
 3843TIP3   OH233091   5.095   1.416   1.496  0.4915  0.6444  0.2810
 3843TIP3    H133092   5.097   1.485   1.563  0.2084 -0.1772  1.1573
 3843TIP3    H233093   5.002   1.399   1.483  0.5720 -0.0745  0.6123
 3844TIP3   OH233094   1.844   4.259   8.007 -0.1817 -0.1412 -1.0130
 3844TIP3    H133095   1.833   4.347   7.969 -1.1198 -0.7310 -2.1725
 3844TIP3    H233096   1.766   4.245   8.060 -0.3027 -0.4818 -1.2754
 3845TIP3   OH233097   0.332   2.408   7.249  0.3284  0.4382 -0.0480
 3845TIP3    H133098   0.384   2.328   7.252  2.4546  1.7602  0.7559
 3845TIP3    H233099   0.371   2.460   7.179 -1.6651  0.4426 -1.2604
 3846TIP3   OH233100   2.694   5.401   7.495 -0.2493  0.4969  0.1201
 3846TIP3    H133101   2.629   5.448   7.547 -0.3514 -0.4420  0.8633
 3846TIP3    H233102   2.643   5.333   7.449  0.1257  0.0630  0.3385
 3847TIP3   OH233103   2.105   5.764   8.425 -0.3902 -0.1206  0.7834
 3847TIP3    H133104   2.167   5.837   8.423  1.4583 -1.5938  1.4695
 3847TIP3    H233105   2.086   5.746   8.333  2.2486 -1.2476  0.3917
 3848TIP3   OH233106   2.698   0.607   6.456 -0.7089 -0.5430  0.5201
 3848TIP3    H133107   2.621   0.664   6.463 -0.4515 -0.0608 -0.4511
 3848TIP3    H233108   2.673   0.528   6.504 -1.1709  0.2675  1.6614
 3849TIP3   OH233109   5.224   3.108   7.602  0.0343 -0.1277  0.4954
 3849TIP3    H133110   5.197   3.197   7.624 -0.4153 -0.5494  1.7688
 3849TIP3    H233111   5.314   3.116   7.571 -0.0783  0.7899  0.3870
 3850TIP3   OH233112   6.104   4.744   8.429  0.4029  0.1366 -0.3829
 3850TIP3    H133113   6.182   4.698   8.400  0.0542 -0.5136 -0.3205
 3850TIP3    H233114   6.033   4.681   8.415 -0.1443  0.8195 -0.6990
 3851TIP3   OH233115   5.638   0.543   7.867  0.9127 -0.0519 -0.4854
 3851TIP3    H133116   5.693   0.479   7.912 -1.3437 -0.9443  1.2221
 3851TIP3    H233117   5.562   0.493   7.838  0.4708  1.3137 -1.8008
 3852TIP3   OH233118   3.968   4.142   6.207 -0.8032 -0.0014 -0.0228
 3852TIP3    H133119   3.916   4.063   6.227 -0.4237  0.0351  1.1638
 3852TIP3    H233120   4.056   4.109   6.191 -0.0927  0.3227  2.7327
 3853TIP3   OH233121   3.627   0.515   7.999  0.3202  0.0118 -0.6892
 3853TIP3    H133122   3.569   0.486   7.928  0.6884 -1.4709 -0.4108
 3853TIP3    H233123   3.572   0.517   8.077 -0.2851  2.4078 -1.0956
 3854TIP3   OH233124   5.684   6.765   7.587 -0.3265  0.0605 -0.1347
 3854TIP3    H133125   5.652   6.675   7.594  0.2803 -0.0820  1.1312
 3854TIP3    H233126   5.763   6.758   7.534 -1.5913  0.2309 -2.1533
 3855TIP3   OH233127   1.744   2.522   7.843  0.3040 -0.7855 -0.0677
 3855TIP3    H133128   1.805   2.498   7.774 -1.0689  0.4738 -1.8098
 3855TIP3    H233129   1.799   2.535   7.921  2.1220 -0.6317 -1.3303
 3856TIP3   OH233130   0.166   4.438   1.393 -0.2791  0.0477  0.1626
 3856TIP3    H133131   0.225   4.394   1.333 -2.6343 -1.3120 -1.3363
 3856TIP3    H233132   0.182   4.398   1.478  0.8355 -0.3859 -0.2434
 3857TIP3   OH233133   5.567   4.490   0.431 -0.1697  0.6053 -0.1308
 3857TIP3    H133134   5.569   4.573   0.382 -0.6491  0.8626  0.2682
 3857TIP3    H233135   5.622   4.506   0.507  1.9926 -0.3604 -1.4086
 3858TIP3   OH233136   1.062   4.020   6.351 -0.5525 -0.4103 -0.4338
 3858TIP3    H133137   1.093   4.057   6.434 -0.5344 -1.8226  0.2222
 3858TIP3    H233138   1.141   4.013   6.297  0.4873 -4.0129  1.2376
 3859TIP3   OH233139   1.698   0.342   7.954  0.1792 -0.3084 -0.3966
 3859TIP3    H133140   1.603   0.335   7.952  0.0613  1.2335 -0.8217
 3859TIP3    H233141   1.718   0.365   8.045  0.1474 -0.5632 -0.3237
 3860TIP3   OH233142   4.429   2.878   7.725  0.2043 -0.2799 -0.2501
 3860TIP3    H133143   4.415   2.932   7.803 -1.2749  0.1549 -0.7706
 3860TIP3    H233144   4.384   2.925   7.655 -0.0199 -1.5461 -0.9944
 3861TIP3   OH233145   5.625   5.780   7.072 -0.4714 -0.0177 -0.2878
 3861TIP3    H133146   5.593   5.716   7.136 -0.9965  0.8435  0.3440
 3861TIP3    H233147   5.638   5.730   6.992 -2.9446 -0.5494 -0.4563
 3862TIP3   OH233148   1.996   3.670   2.055  0.0420 -0.1678  0.1640
 3862TIP3    H133149   1.940   3.666   2.133  1.1760 -1.6225  0.9782
 3862TIP3    H233150   2.065   3.731   2.079 -0.0190 -0.0387  0.0087
 3863TIP3   OH233151   1.230   0.059   1.400  0.4182 -0.5526  0.1858
 3863TIP3    H133152   1.238   0.152   1.421  1.3557 -0.6464  0.3074
 3863TIP3    H233153   1.225   0.056   1.305 -3.4768 -0.1498  0.2458
 3864TIP3   OH233154   6.123   0.857   7.807  0.0452  0.4620 -0.4809
 3864TIP3    H133155   6.127   0.765   7.781 -0.9429  0.3448 -0.2593
 3864TIP3    H233156   6.213   0.888   7.800  0.5254 -0.7174  0.1785
 3865TIP3   OH233157   4.408   5.812   0.699 -0.3682 -0.7290 -0.0408
 3865TIP3    H133158   4.417   5.734   0.753 -0.1402 -0.2088  0.6780
 3865TIP3    H233159   4.318   5.840   0.712 -0.3686 -0.7081 -0.0861
 3866TIP3   OH233160   4.306   6.468   8.211 -0.3535 -0.3131  0.7397
 3866TIP3    H133161   4.232   6.529   8.208  0.8924  1.3131  1.2633
 3866TIP3    H233162   4.359   6.499   8.285  1.9253 -0.0695 -0.8792
 3867TIP3   OH233163   4.049   5.720   0.389  0.1855 -0.2577 -0.2279
 3867TIP3    H133164   4.036   5.696   0.298  0.2045  0.8607 -0.5336
 3867TIP3    H233165   4.089   5.642   0.429 -2.7632 -2.0040 -0.3812
 3868TIP3   OH233166   6.433   3.277   7.444  0.2206  0.2663 -0.3833
 3868TIP3    H133167   6.392   3.216   7.506  0.9316 -1.2793 -1.4083
 3868TIP3    H233168   6.517   3.299   7.484  1.0706 -1.4260 -1.1772
 3869TIP3   OH233169   1.711   5.959   1.953 -0.6920 -0.6204 -0.0447
 3869TIP3    H133170   1.625   5.990   1.980 -1.8205 -1.3242 -2.5564
 3869TIP3    H233171   1.714   5.867   1.980 -0.4408 -0.4236  0.6179
 3870TIP3   OH233172   3.203   5.475   0.169  0.2490 -0.3788  0.2633
 3870TIP3    H133173   3.237   5.397   0.212  1.1395 -0.0591  0.1636
 3870TIP3    H233174   3.109   5.461   0.165  0.3517 -1.2474  0.6394
 3871TIP3   OH233175   1.525   1.624   7.750 -0.2724  0.4088 -0.3885
 3871TIP3    H133176   1.608   1.604   7.793 -0.2773 -0.7463 -0.8922
 3871TIP3    H233177   1.542   1.613   7.657 -0.9374  0.3699 -0.5116
 3872TIP3   OH233178   4.788   3.729   1.961 -0.4633 -0.1862  0.1206
 3872TIP3    H133179   4.805   3.682   2.042  1.8011 -1.8189 -1.1862
 3872TIP3    H233180   4.872   3.732   1.916 -1.3811  1.7126 -1.6474
 3873TIP3   OH233181   6.295   4.844   1.572 -0.0906 -0.7283  0.3686
 3873TIP3    H133182   6.291   4.771   1.633  0.6940 -1.1694 -0.0873
 3873TIP3    H233183   6.380   4.835   1.529  1.0063  1.6946  1.8145
 3874TIP3   OH233184   4.526   1.811   1.051  0.2359 -0.4261 -0.1701
 3874TIP3    H133185   4.451   1.821   0.993  0.0576 -1.5944 -0.1646
 3874TIP3    H233186   4.558   1.900   1.064  0.6382 -0.1571 -2.5195
 3875TIP3   OH233187   3.833   5.344   1.010  0.9806 -0.0520  0.3025
 3875TIP3    H133188   3.776   5.323   1.084  0.3867 -1.3593 -0.4956
 3875TIP3    H233189   3.808   5.433   0.985 -1.9391 -1.1416 -1.0526
 3876TIP3   OH233190   6.729   1.080   0.237  0.1128 -0.4552 -0.2549
 3876TIP3    H133191   6.641   1.117   0.233  0.4282  0.3056 -0.2735
 3876TIP3    H233192   6.757   1.076   0.146  0.8269  1.1165 -0.1344
 3877TIP3   OH233193   2.433   1.041   6.833  1.2035 -0.1561  0.0736
 3877TIP3    H133194   2.418   0.948   6.816  0.3346  0.0625 -0.3908
 3877TIP3    H233195   2.525   1.045   6.860  1.9963 -0.8490 -2.2140
 3878TIP3   OH233196   3.851   6.652   7.807  0.2013  0.0215 -0.7782
 3878TIP3    H133197   3.900   6.733   7.817  0.7598 -0.4401  0.5494
 3878TIP3    H233198   3.759   6.678   7.807  0.3544  0.6132  0.3446
 3879TIP3   OH233199   4.470   6.692   1.959  0.2149 -0.0044  0.3599
 3879TIP3    H133200   4.554   6.698   2.004  0.1153 -1.3754  0.7995
 3879TIP3    H233201   4.482   6.621   1.896 -0.1362  0.8582 -0.7047
 3880TIP3   OH233202   4.396   2.267   6.614  0.2928 -0.3600 -0.0841
 3880TIP3    H133203   4.365   2.294   6.700  1.1036 -1.5670  0.6310
 3880TIP3    H233204   4.324   2.216   6.577  0.7990 -1.9068  0.9452
 3881TIP3   OH233205   2.283   4.064   7.905  0.2543  0.1183  0.0366
 3881TIP3    H133206   2.270   4.152   7.870 -0.0763  0.0191 -0.0939
 3881TIP3    H233207   2.279   4.007   7.828 -1.0035 -0.1547  0.2888
 3882TIP3   OH233208   4.152   0.685   7.212 -0.8540 -0.0826  0.2746
 3882TIP3    H133209   4.144   0.779   7.226 -1.8042 -0.4342  2.4238
 3882TIP3    H233210   4.072   0.662   7.163 -0.5887  0.2109 -0.3131
 3883TIP3   OH233211   3.442   6.814   2.409 -0.0169  0.3352  0.0055
 3883TIP3    H133212   3.362   6.766   2.387 -0.1531  0.9772 -0.9782
 3883TIP3    H233213   3.488   6.757   2.470  0.5055 -1.7204 -2.1756
 3884TIP3   OH233214   3.145   2.474   6.142  0.1263  0.0892  0.4458
 3884TIP3    H133215   3.229   2.469   6.188  1.1936 -0.4876 -1.4433
 3884TIP3    H233216   3.136   2.566   6.117  0.1742  0.1653  0.7116
 3885TIP3   OH233217   4.301   0.461   7.138  0.0828  0.1359 -0.2761
 3885TIP3    H133218   4.262   0.426   7.058 -0.5794  0.1206  0.0456
 3885TIP3    H233219   4.270   0.552   7.142  1.2866  0.5976 -0.7800
 3886TIP3   OH233220   0.698   1.771   1.746  0.2387 -0.1544  0.0951
 3886TIP3    H133221   0.684   1.828   1.822 -1.0064  0.4678 -0.5529
 3886TIP3    H233222   0.614   1.774   1.699  0.7238 -1.1580 -0.8789
 3887TIP3   OH233223   6.777   2.209   0.491 -0.1187  0.0344 -0.1224
 3887TIP3    H133224   6.841   2.221   0.421  0.9440  0.0655  0.8277
 3887TIP3    H233225   6.699   2.174   0.447  0.0702  1.2456 -1.4989
 3888TIP3   OH233226   3.298   4.484   7.886  0.7052 -0.1027 -0.3003
 3888TIP3    H133227   3.215   4.530   7.877  0.3034 -0.5237  1.0493
 3888TIP3    H233228   3.347   4.507   7.807 -0.5213  0.4849 -0.9150
 3889TIP3   OH233229   0.171   5.087   1.216 -0.5550  0.2790  0.0157
 3889TIP3    H133230   0.265   5.108   1.219 -0.0780 -1.3548 -1.7644
 3889TIP3    H233231   0.151   5.057   1.305  0.3308  1.6369  0.7194
 3890TIP3   OH233232   5.195   2.133   0.601  0.0875 -0.0368  0.2690
 3890TIP3    H133233   5.152   2.188   0.666 -0.8659 -0.3923 -0.0420
 3890TIP3    H233234   5.136   2.135   0.525  0.5414 -0.6653 -0.1069
 3891TIP3   OH233235   5.834   5.824   8.639 -0.0009 -0.2390 -0.7433
 3891TIP3    H133236   5.824   5.744   8.691 -0.7417 -0.7739 -1.6759
 3891TIP3    H233237   5.766   5.882   8.672 -0.7199 -0.7186 -1.3359
 3892TIP3   OH233238   4.727   0.053   1.796  0.2871  0.1416  0.2451
 3892TIP3    H133239   4.718   0.016   1.708  1.4096  0.1716  0.1100
 3892TIP3    H233240   4.781  -0.010   1.844  0.4447  0.5753  0.6481
 3893TIP3   OH233241   0.817   0.188   8.211 -0.4923 -0.2185 -0.1794
 3893TIP3    H133242   0.741   0.138   8.242 -0.0549 -0.1249  1.0930
 3893TIP3    H233243   0.887   0.166   8.273  0.8247 -1.0723 -1.8658
 3894TIP3   OH233244   3.298   3.634   7.563  0.1429 -0.2833 -0.2321
 3894TIP3    H133245   3.364   3.640   7.494 -0.1068 -0.3034 -0.4737
 3894TIP3    H233246   3.242   3.710   7.550  0.2570 -0.1380  0.1201
 3895TIP3   OH233247   3.336   6.618   8.137  0.5591 -0.0988  0.3860
 3895TIP3    H133248   3.360   6.612   8.230  1.3564  0.2986  0.2135
 3895TIP3    H233249   3.364   6.706   8.111  0.7508 -0.3730 -0.3459
 3896TIP3   OH233250   4.290   4.134   8.771  0.8358 -0.3139 -0.4479
 3896TIP3    H133251   4.331   4.207   8.725  0.4907  0.2046  0.0440
 3896TIP3    H233252   4.262   4.172   8.855  0.7671 -1.0440 -0.1361
 3897TIP3   OH233253   3.052   2.245   8.589 -0.4553  0.1749  0.3185
 3897TIP3    H133254   3.122   2.182   8.576  0.5352  1.1351  0.8415
 3897TIP3    H233255   3.032   2.241   8.683  0.9293  1.9117  0.7560
 3898TIP3   OH233256   3.255   3.372   8.207 -0.9926  0.3893 -0.4880
 3898TIP3    H133257   3.308   3.307   8.252  0.5809  0.6461 -1.8705
 3898TIP3    H233258   3.240   3.335   8.119 -3.2142  0.2913 -0.1418
 3899TIP3   OH233259   5.257   2.172   7.131 -0.2979 -0.2128  0.4589
 3899TIP3    H133260   5.255   2.136   7.219 -1.4320 -0.2078  0.4386
 3899TIP3    H233261   5.267   2.266   7.144  1.4766 -0.3692  0.5274
 3900TIP3   OH233262   2.325   0.475   1.349 -0.4468 -0.1691 -0.0276
 3900TIP3    H133263   2.360   0.409   1.290  0.0256 -1.6651  1.8088
 3900TIP3    H233264   2.389   0.546   1.348 -0.3049 -0.3057 -1.0515
 3901TIP3   OH233265   1.481   2.448   7.500  0.3440 -0.5493  0.2152
 3901TIP3    H133266   1.392   2.454   7.465  0.1849 -1.5837  0.3930
 3901TIP3    H233267   1.529   2.395   7.436  0.2508 -1.8162  1.1548
 3902TIP3   OH233268   0.550   5.717   0.656  0.1103  0.0255 -0.0704
 3902TIP3    H133269   0.521   5.808   0.648  1.0218  0.2300 -1.3928
 3902TIP3    H233270   0.524   5.676   0.574  2.7167  0.0201 -1.0045
 3903TIP3   OH233271   2.720   5.708   7.113  0.1718  0.4553 -0.2205
 3903TIP3    H133272   2.801   5.660   7.130  0.5697  0.1482 -2.6130
 3903TIP3    H233273   2.654   5.664   7.167  0.9144 -1.5735 -0.8790
 3904TIP3   OH233274   4.724   1.310   8.226 -0.1089 -0.0618 -0.7990
 3904TIP3    H133275   4.755   1.228   8.265 -0.1302  0.5164  0.4979
 3904TIP3    H233276   4.735   1.298   8.132 -3.0691 -2.8209 -0.9621
 3905TIP3   OH233277   6.774   3.392   0.021  0.1192 -0.1937 -0.7919
 3905TIP3    H133278   6.687   3.378   0.059  0.4175 -0.7072 -0.2864
 3905TIP3    H233279   6.776   3.486   0.003 -0.8549 -0.3059 -1.6226
 3906TIP3   OH233280   0.712   6.748   0.356 -0.1204  0.4472 -0.4379
 3906TIP3    H133281   0.755   6.701   0.285 -1.3794  0.3643 -1.1763
 3906TIP3    H233282   0.776   6.747   0.427  0.7702 -0.3595 -1.2142
 3907TIP3   OH233283   1.238   1.498   8.481  0.3780 -0.4450  0.2716
 3907TIP3    H133284   1.251   1.409   8.515  1.6163 -0.5858 -0.5116
 3907TIP3    H233285   1.323   1.540   8.491  0.0677  0.3261 -0.2838
 3908TIP3   OH233286   4.706   6.469   8.513 -0.2967  0.2786 -0.3207
 3908TIP3    H133287   4.664   6.500   8.433  0.2259 -0.1918 -0.7911
 3908TIP3    H233288   4.644   6.407   8.551 -0.1424 -0.2459 -0.8964
 3909TIP3   OH233289   2.076   1.423   1.490  0.6686  0.1786  0.0766
 3909TIP3    H133290   2.157   1.373   1.499  1.0079  0.9924  2.1112
 3909TIP3    H233291   2.006   1.360   1.506  1.0765  0.2042  2.2768
 3910TIP3   OH233292   2.858   2.556   0.289 -0.4662 -0.2545 -0.1281
 3910TIP3    H133293   2.937   2.511   0.319 -0.1109  0.4550  0.0067
 3910TIP3    H233294   2.795   2.545   0.360 -0.1985 -0.0741  0.1398
 3911TIP3   OH233295   3.740   4.232   6.848 -0.8721 -0.1642  0.1280
 3911TIP3    H133296   3.692   4.296   6.901 -1.3317  0.2450 -0.7634
 3911TIP3    H233297   3.681   4.213   6.775  0.0041 -0.2513 -0.5641
 3912TIP3   OH233298   2.176   6.565   1.284 -0.1342 -0.1508 -0.4462
 3912TIP3    H133299   2.199   6.535   1.372 -0.7741 -1.5335 -0.7212
 3912TIP3    H233300   2.081   6.578   1.287  0.0358  1.2354 -0.5371
 3913TIP3   OH233301   5.879   0.604   8.153 -0.0157 -0.2155 -0.2144
 3913TIP3    H133302   5.811   0.548   8.190 -0.3634 -1.3732 -2.4625
 3913TIP3    H233303   5.946   0.544   8.121  1.9593  0.8819  1.5352
 3914TIP3   OH233304   2.506   3.315   6.505  0.6271 -0.0137 -1.0526
 3914TIP3    H133305   2.470   3.228   6.489 -1.5185  0.0649  2.3208
 3914TIP3    H233306   2.439   3.375   6.473 -0.6165  0.1954  1.6805
 3915TIP3   OH233307   5.520   4.145   0.528  0.5750  0.3556  0.0386
 3915TIP3    H133308   5.453   4.134   0.596  0.2817  2.3632  0.1450
 3915TIP3    H233309   5.602   4.123   0.572  0.1959 -0.1810  0.4971
 3916TIP3   OH233310   1.303   3.794   1.398 -0.2403  0.0956  0.2094
 3916TIP3    H133311   1.215   3.832   1.393 -0.4430 -0.5178 -1.3301
 3916TIP3    H233312   1.310   3.763   1.489 -2.5253 -1.9080 -0.1840
 3917TIP3   OH233313   4.252   0.156   0.922 -0.4936  0.2922  0.0455
 3917TIP3    H133314   4.348   0.164   0.920 -0.3549 -0.9078  0.5051
 3917TIP3    H233315   4.235   0.111   1.005 -1.4495  0.4022 -0.0885
 3918TIP3   OH233316   1.430   4.747   7.721 -0.2399  0.3393 -0.3748
 3918TIP3    H133317   1.441   4.651   7.718  1.4488  0.4790  0.3338
 3918TIP3    H233318   1.404   4.770   7.632  1.0223 -0.6144 -1.0267
 3919TIP3   OH233319   1.842   6.756   0.715 -0.5361 -0.2968 -0.5785
 3919TIP3    H133320   1.770   6.800   0.760  1.3602  2.8037 -0.2937
 3919TIP3    H233321   1.853   6.805   0.634  2.3635  0.5871  0.2278
 3920TIP3   OH233322   0.520   0.440   0.801  0.2575 -0.5830  0.2268
 3920TIP3    H133323   0.464   0.518   0.799  0.3564 -0.5161  0.1128
 3920TIP3    H233324   0.459   0.368   0.819 -0.3347 -0.9118 -2.6865
 3921TIP3   OH233325   6.446   2.918   8.002  0.4095 -0.4963 -0.0110
 3921TIP3    H133326   6.495   2.854   8.053  0.3599 -0.0087  0.6717
 3921TIP3    H233327   6.365   2.931   8.052  1.5496  2.0760  1.3728
 3922TIP3   OH233328   3.024   0.588   0.542  0.0104  0.6844 -0.9936
 3922TIP3    H133329   3.002   0.552   0.628  1.4076 -2.5393 -1.8237
 3922TIP3    H233330   3.115   0.614   0.550 -0.2363  1.6219 -1.1661
 3923TIP3   OH233331   2.165   0.061   1.001  0.5045  0.1270 -0.1816
 3923TIP3    H133332   2.236   0.017   0.955  3.3756  1.9675  2.1452
 3923TIP3    H233333   2.160   0.148   0.960  1.3374  0.8728  1.2393
 3924TIP3   OH233334   2.285   3.137   7.744  0.3810  0.0576 -0.8339
 3924TIP3    H133335   2.191   3.123   7.748  0.5658 -1.2398 -0.3609
 3924TIP3    H233336   2.307   3.129   7.651  0.5620 -4.0781 -0.6081
 3925TIP3   OH233337   4.867   5.975   8.098  0.0046  0.7968  0.0699
 3925TIP3    H133338   4.944   5.954   8.151  0.5857  1.2958 -0.5636
 3925TIP3    H233339   4.823   6.044   8.147  1.1349  2.0496 -0.5924
 3926TIP3   OH233340   5.606   0.585   1.935  0.3963 -0.5421  0.0253
 3926TIP3    H133341   5.665   0.511   1.948 -2.0660 -2.4082  1.4306
 3926TIP3    H233342   5.577   0.577   1.844 -1.5175 -2.7578  0.7351
 3927TIP3   OH233343   4.177   5.662   8.448 -0.7642 -0.7761  0.6526
 3927TIP3    H133344   4.127   5.610   8.511  0.2744 -3.6692 -0.7547
 3927TIP3    H233345   4.131   5.650   8.365 -2.5950  3.6291  0.7351
 3928TIP3   OH233346   0.868   4.716   0.325 -0.2324  0.0528  0.8558
 3928TIP3    H133347   0.954   4.694   0.361  0.8539 -0.8063 -1.9838
 3928TIP3    H233348   0.824   4.631   0.315 -0.3796  0.2267 -0.0619
 3929TIP3   OH233349   5.976   6.460   0.131  0.1478 -0.0510 -0.7153
 3929TIP3    H133350   5.935   6.511   0.200  0.7230 -0.6190  0.0646
 3929TIP3    H233351   5.909   6.398   0.103 -0.2245  0.4598 -0.9739
 3930TIP3   OH233352   0.003   6.275   7.201  0.4551 -0.2877  0.3304
 3930TIP3    H133353   0.034   6.365   7.186 -0.4899 -0.0168 -0.0201
 3930TIP3    H233354   0.084   6.224   7.207  1.0129  0.2405 -1.6085
 3931TIP3   OH233355   4.308   2.667   0.652 -0.1934 -0.0119  0.9567
 3931TIP3    H133356   4.224   2.685   0.610  0.3492  3.3345  1.0271
 3931TIP3    H233357   4.288   2.602   0.719 -2.7933  0.8802  1.1529
 3932TIP3   OH233358   0.244   3.914   0.969 -0.3477 -0.0468 -0.2662
 3932TIP3    H133359   0.151   3.919   0.950 -0.4720  0.2832  0.4245
 3932TIP3    H233360   0.250   3.910   1.064  0.2710 -1.6497 -0.3451
 3933TIP3   OH233361   6.299   1.957   8.473  0.4863 -0.7544  0.1241
 3933TIP3    H133362   6.219   1.960   8.525  0.6947  0.0238  0.4145
 3933TIP3    H233363   6.369   1.981   8.534  0.5982  1.3191 -0.7466
 3934TIP3   OH233364   4.037   5.625   8.219  0.3274 -0.2398  0.5166
 3934TIP3    H133365   4.017   5.677   8.142 -0.4246 -2.3661 -0.8180
 3934TIP3    H233366   3.953   5.591   8.248  0.8481 -1.2874  0.8766
 3935TIP3   OH233367   4.719   6.391   1.346 -0.1956 -0.3008  0.5236
 3935TIP3    H133368   4.800   6.349   1.377  0.7639 -0.5850 -2.0523
 3935TIP3    H233369   4.652   6.323   1.354  0.8284 -1.6233 -1.3479
 3936TIP3   OH233370   3.932   3.784   1.541 -0.3401 -0.7689  0.3947
 3936TIP3    H133371   3.887   3.845   1.599  0.5031 -1.1361  1.4629
 3936TIP3    H233372   3.878   3.705   1.542 -0.8220 -0.4606 -0.0890
 3937TIP3   OH233373   2.247   0.354   7.863 -0.4224  0.5186 -0.0096
 3937TIP3    H133374   2.287   0.289   7.805  0.6643  1.6654 -0.5736
 3937TIP3    H233375   2.268   0.324   7.951  1.1400  0.7455 -0.2833
 3938TIP3   OH233376   5.360   5.165   1.085  0.0418  0.2864 -0.4669
 3938TIP3    H133377   5.369   5.089   1.143 -0.0975  1.6746  1.4973
 3938TIP3    H233378   5.421   5.229   1.122 -0.7677  1.5622 -1.3114
 3939TIP3   OH233379   4.014   0.324   8.345 -0.0711 -0.2260  0.6605
 3939TIP3    H133380   3.992   0.351   8.255 -1.4524  0.0168  1.0510
 3939TIP3    H233381   4.043   0.405   8.388 -1.0860  0.0173  0.9113
 3940TIP3   OH233382   0.691   1.464   7.287 -0.6853  0.4006  0.2205
 3940TIP3    H133383   0.671   1.530   7.221 -1.5112  0.4511  0.5059
 3940TIP3    H233384   0.756   1.505   7.344  1.7875 -0.4464 -1.8259
 3941TIP3   OH233385   3.452   3.581   7.306  0.4936 -0.3292 -0.4747
 3941TIP3    H133386   3.434   3.549   7.218  0.3420  2.5360 -1.6033
 3941TIP3    H233387   3.547   3.581   7.313  0.6256  1.4663 -1.5660
 3942TIP3   OH233388   1.978   6.235   0.182  0.0491  0.5810  0.1969
 3942TIP3    H133389   1.996   6.320   0.143 -0.3512  0.7274  0.3251
 3942TIP3    H233390   1.943   6.182   0.111  1.0249  0.2692 -0.0742
 3943TIP3   OH233391   5.022   4.710   0.997  0.1112 -0.3574  0.4936
 3943TIP3    H133392   5.053   4.775   0.934  0.4335 -1.1187 -0.1511
 3943TIP3    H233393   4.988   4.639   0.943 -0.6056 -0.5518  1.1888
 3944TIP3   OH233394   5.272   0.284   1.520 -0.2061  0.0816  0.7528
 3944TIP3    H133395   5.311   0.259   1.604 -0.5262  3.1400  1.9368
 3944TIP3    H233396   5.180   0.257   1.529  0.2471 -1.6978  0.3879
 3945TIP3   OH233397   6.619   4.641   7.862 -0.3334 -0.0473  0.2631
 3945TIP3    H133398   6.617   4.601   7.775  1.1862 -0.4277  0.3796
 3945TIP3    H233399   6.556   4.713   7.856  0.6680  0.7468 -1.5842
 3946TIP3   OH233400   5.251   5.836   1.499 -0.6819  0.4065 -0.0074
 3946TIP3    H133401   5.273   5.800   1.585  1.3136  0.2591 -0.5280
 3946TIP3    H233402   5.231   5.759   1.445 -0.6453  0.4015 -0.0136
 3947TIP3   OH233403   2.500   1.598   8.176 -0.3040 -0.6745 -0.2453
 3947TIP3    H133404   2.423   1.608   8.120 -1.4012  1.8094  1.5471
 3947TIP3    H233405   2.467   1.555   8.255 -0.1757  1.4626  1.0264
 3948TIP3   OH233406   0.261   0.320   8.348 -0.0000  0.6716 -0.0638
 3948TIP3    H133407   0.184   0.320   8.292  0.4122  0.6163 -0.6418
 3948TIP3    H233408   0.327   0.366   8.296 -0.0318  1.9111  0.9651
 3949TIP3   OH233409   6.459   0.815   1.360  0.4070  0.5131 -0.2318
 3949TIP3    H133410   6.551   0.791   1.362  1.1002  2.8210  2.2947
 3949TIP3    H233411   6.457   0.906   1.390 -2.7357  0.3221  0.5137
 3950TIP3   OH233412   6.309   0.122   1.400  0.7124 -0.4853 -0.3484
 3950TIP3    H133413   6.221   0.157   1.412  0.7041 -0.7009  0.2381
 3950TIP3    H233414   6.353   0.137   1.484  0.7200 -1.8387 -0.0876
 3951TIP3   OH233415   3.926   4.380   7.863  0.7882  0.0290  0.0666
 3951TIP3    H133416   3.985   4.420   7.800  0.3088 -1.0690 -1.1082
 3951TIP3    H233417   3.839   4.400   7.831  0.5314 -1.9321 -0.5765
 3952TIP3   OH233418   2.659   0.156   7.600 -0.3255  0.1945  0.4540
 3952TIP3    H133419   2.713   0.214   7.546  0.4622  0.5791  1.6126
 3952TIP3    H233420   2.721   0.095   7.639 -1.0486 -0.9155 -0.0989
 3953TIP3   OH233421   2.716   4.529   8.162 -0.4235 -0.2140  0.7095
 3953TIP3    H133422   2.783   4.467   8.132 -0.3119  0.2583 -0.0335
 3953TIP3    H233423   2.687   4.493   8.246 -0.8483 -1.6556 -0.0287
 3954TIP3   OH233424   4.393   3.548   1.813  0.6324 -0.0309  0.1825
 3954TIP3    H133425   4.432   3.470   1.854 -1.0140 -1.2459 -0.4270
 3954TIP3    H233426   4.372   3.520   1.724 -1.1390  0.6777  0.3353
 3955TIP3   OH233427   2.158   3.050   1.350  0.0514  0.5487  1.2991
 3955TIP3    H133428   2.128   2.964   1.379  0.0632  0.8699  2.2892
 3955TIP3    H233429   2.228   3.073   1.411  1.0520  0.6384  0.1690
 3956TIP3   OH233430   5.142   2.962   8.528 -0.4715 -0.0140  0.0021
 3956TIP3    H133431   5.206   2.900   8.494 -0.7455  0.2980 -1.1378
 3956TIP3    H233432   5.065   2.908   8.547 -0.3745 -0.1730 -0.0501
 3957TIP3   OH233433   6.572   2.595   1.018  0.2972 -0.3621  0.0015
 3957TIP3    H133434   6.639   2.622   0.955  0.1651 -2.0691 -0.9525
 3957TIP3    H233435   6.528   2.676   1.043  0.3581  0.3835 -2.1149
 3958TIP3   OH233436   5.078   6.258   1.177 -0.4649  0.5045 -0.4081
 3958TIP3    H133437   5.036   6.233   1.259  1.1113 -0.8326  0.0509
 3958TIP3    H233438   5.162   6.296   1.204 -0.9867  2.4355 -1.3119
 3959TIP3   OH233439   5.893   0.511   1.074 -0.1215  0.6390  0.5968
 3959TIP3    H133440   5.831   0.582   1.090 -1.1305  0.1074 -0.7572
 3959TIP3    H233441   5.840   0.431   1.081  0.4877  0.1530 -0.1829
 3960TIP3   OH233442   4.564   2.332   8.055  0.1674  0.1268 -0.2595
 3960TIP3    H133443   4.591   2.338   7.963  0.4294 -1.3451 -0.3025
 3960TIP3    H233444   4.644   2.307   8.102  0.1691  1.4081  0.4690
 3961TIP3   OH233445   4.349   3.894   0.913 -0.1083 -0.0817 -0.0794
 3961TIP3    H133446   4.427   3.949   0.920  0.6129 -1.0600 -0.0261
 3961TIP3    H233447   4.322   3.880   1.004 -0.3654  0.2825 -0.0995
 3962TIP3   OH233448   6.696   3.301   7.848  0.3329 -0.6685  0.6375
 3962TIP3    H133449   6.773   3.258   7.812 -1.5982 -2.0704 -2.2844
 3962TIP3    H233450   6.699   3.390   7.812 -0.4224 -1.3852 -1.3518
 3963TIP3   OH233451   6.321   6.111   1.289  0.4043 -0.4284 -0.4030
 3963TIP3    H133452   6.378   6.187   1.279  0.6057 -0.5916 -0.5190
 3963TIP3    H233453   6.377   6.045   1.331 -0.1047 -0.1268  0.7944
 3964TIP3   OH233454   5.109   3.921   7.551  0.3113 -0.3394  0.0695
 3964TIP3    H133455   5.030   3.971   7.572  1.1802  1.2860 -0.3040
 3964TIP3    H233456   5.169   3.986   7.514  1.4504 -1.7229 -0.6226
 3965TIP3   OH233457   5.239   4.212   7.176  0.2115 -0.4397 -0.5196
 3965TIP3    H133458   5.303   4.269   7.134  0.1122 -0.8708 -1.2729
 3965TIP3    H233459   5.159   4.265   7.179  0.5075 -0.0147  0.1391
 3966TIP3   OH233460   4.220   4.931   0.790  0.2872 -0.3179  0.6000
 3966TIP3    H133461   4.167   4.922   0.711  2.5083 -1.0054 -0.9061
 3966TIP3    H233462   4.259   5.018   0.783  0.0496 -0.1522  1.2573
 3967TIP3   OH233463   0.900   1.142   1.051 -0.4793  0.6573 -0.3998
 3967TIP3    H133464   0.808   1.134   1.027 -0.0950  1.2424 -2.3006
 3967TIP3    H233465   0.944   1.165   0.968  1.4027  0.1219  0.3999
 3968TIP3   OH233466   3.935   2.086   6.377  0.3729  0.1045  0.1742
 3968TIP3    H133467   3.974   2.151   6.435 -0.1097  0.3339  0.2522
 3968TIP3    H233468   4.006   2.058   6.320  0.4548  1.1213 -0.2420
 3969TIP3   OH233469   4.271   5.451   0.989  0.6896 -0.2801 -0.3631
 3969TIP3    H133470   4.334   5.383   1.012  0.1895 -0.7571 -0.3537
 3969TIP3    H233471   4.214   5.457   1.065 -0.1954 -0.9556 -0.9422
 3970TIP3   OH233472   4.515   4.373   7.898  0.6657 -0.3535 -0.0094
 3970TIP3    H133473   4.531   4.440   7.964  1.1842 -1.6282  1.1977
 3970TIP3    H233474   4.576   4.395   7.827  0.9192  0.3669  0.4190
 3971TIP3   OH233475   4.718   1.495   8.531 -0.1581  0.2874 -0.1433
 3971TIP3    H133476   4.668   1.471   8.453 -1.5602  0.2781  0.7072
 3971TIP3    H233477   4.651   1.522   8.594  0.9231  0.1511  1.1069
 3972TIP3   OH233478   0.255   3.285   2.538  0.0877  0.2003 -0.0565
 3972TIP3    H133479   0.208   3.361   2.573 -0.0550  0.8237 -1.5331
 3972TIP3    H233480   0.346   3.301   2.562 -0.2360 -0.3462  1.6571
 3973TIP3   OH233481   2.736   3.557   2.383  0.1539  0.0623 -0.2189
 3973TIP3    H133482   2.720   3.605   2.464 -0.1176 -0.0096 -0.2296
 3973TIP3    H233483   2.734   3.625   2.315  0.2315  0.1018 -0.1815
 3974TIP3   OH233484   2.639   0.392   1.760  0.1796  0.3163  0.5958
 3974TIP3    H133485   2.578   0.388   1.687 -0.1279  1.7093  0.7541
 3974TIP3    H233486   2.599   0.337   1.827  0.3469 -0.7778 -0.1781
 3975TIP3   OH233487   0.656   4.906   6.264  0.1415  0.2021  0.5800
 3975TIP3    H133488   0.741   4.871   6.289 -0.0441 -0.7797 -0.0935
 3975TIP3    H233489   0.666   5.001   6.270  1.4240  0.1207  0.0514
 3976TIP3   OH233490   0.355   5.645   0.468 -0.2691 -0.1689  0.4379
 3976TIP3    H133491   0.331   5.705   0.397 -0.7084 -0.3241  0.4486
 3976TIP3    H233492   0.276   5.638   0.521  0.0226 -0.1517  0.8740
 3977TIP3   OH233493   1.629   1.897   2.010  0.2180 -0.2211  0.0464
 3977TIP3    H133494   1.664   1.878   1.923  1.0973 -0.7204  0.4907
 3977TIP3    H233495   1.637   1.814   2.057 -2.0224 -0.5055  0.0432
 3978TIP3   OH233496   2.109   6.671   7.381  0.0482 -0.6028  0.0929
 3978TIP3    H133497   2.191   6.717   7.362  0.3901 -1.3017 -0.1645
 3978TIP3    H233498   2.054   6.687   7.304 -0.3608  0.5033  0.5918
 3979TIP3   OH233499   5.617   4.891   7.203  0.3893  0.3172 -0.0402
 3979TIP3    H133500   5.645   4.929   7.120  2.5784 -4.1949 -1.6654
 3979TIP3    H233501   5.525   4.866   7.189  1.0780 -1.4738 -1.6482
 3980TIP3   OH233502   6.717   0.530   8.034 -0.2568 -0.1901  0.3594
 3980TIP3    H133503   6.629   0.517   8.070  0.2238 -0.4590  1.4674
 3980TIP3    H233504   6.772   0.468   8.081  0.6622  0.4575  0.1710
 3981TIP3   OH233505   2.771   4.503   6.456 -0.1695 -0.4149  0.1581
 3981TIP3    H133506   2.782   4.408   6.451 -0.3069 -0.4345  0.2254
 3981TIP3    H233507   2.777   4.532   6.365 -3.0064 -0.8110 -0.2519
 3982TIP3   OH233508   4.481   5.368   0.631 -0.1151 -0.1923 -0.0788
 3982TIP3    H133509   4.472   5.452   0.675  0.1353 -0.1049 -0.1908
 3982TIP3    H233510   4.539   5.386   0.558 -0.5206 -0.3388 -0.4409
 3983TIP3   OH233511   3.803   4.903   8.804  0.2422  0.6684  0.5751
 3983TIP3    H133512   3.843   4.816   8.808  0.5270  0.7489 -0.2983
 3983TIP3    H233513   3.728   4.892   8.745  1.3337  1.4036 -0.9951
 3984TIP3   OH233514   0.688   6.801   7.859  0.1081  0.7168  0.1558
 3984TIP3    H133515   0.618   6.762   7.807 -0.1720 -0.2561  1.2338
 3984TIP3    H233516   0.739   6.851   7.795 -1.4438  1.3048 -0.6786
 3985TIP3   OH233517   0.916   0.504   7.719  0.4155  0.2047 -0.1179
 3985TIP3    H133518   1.004   0.538   7.709  1.5447 -2.6143 -0.6944
 3985TIP3    H233519   0.886   0.487   7.630  0.7785 -2.1826  0.1534
 3986TIP3   OH233520   2.749   6.815   1.887  0.7884  0.1991  0.9618
 3986TIP3    H133521   2.797   6.733   1.897  0.7410 -0.4050 -2.5062
 3986TIP3    H233522   2.659   6.789   1.871  0.6807  0.9108  0.3342
 3987TIP3   OH233523   4.651   1.249   6.949 -0.4064 -0.0575 -1.0106
 3987TIP3    H133524   4.573   1.292   6.915 -0.8603  0.3581  0.4805
 3987TIP3    H233525   4.724   1.292   6.904 -0.8667  1.9810  0.0497
 3988TIP3   OH233526   0.767   6.624   1.979 -0.3756  0.3939 -0.4562
 3988TIP3    H133527   0.678   6.632   2.013 -0.1928  0.6282 -0.0347
 3988TIP3    H233528   0.810   6.706   2.001 -0.0471  0.2786 -0.6480
 3989TIP3   OH233529   1.908   6.356   0.716  0.1356  0.4566 -0.1770
 3989TIP3    H133530   1.841   6.288   0.712 -0.8831  1.4913 -2.8383
 3989TIP3    H233531   1.988   6.310   0.742 -0.6959 -1.5869 -1.0704
 3990TIP3   OH233532   5.992   6.819   0.999  0.2305  0.3361  0.2442
 3990TIP3    H133533   5.989   6.750   1.065 -2.0547 -0.3996 -0.4949
 3990TIP3    H233534   5.907   6.813   0.955  0.2483  3.1547 -0.3693
 3991TIP3   OH233535   0.332   1.508   8.352 -0.1644  0.0332  0.1658
 3991TIP3    H133536   0.399   1.541   8.292  0.5322 -2.0256 -0.2682
 3991TIP3    H233537   0.250   1.515   8.303  0.2265 -0.4972 -0.5852
 3992TIP3   OH233538   2.341   5.667   0.524  0.6028  0.3542  0.2836
 3992TIP3    H133539   2.337   5.742   0.584 -0.3494  0.4601  0.1070
 3992TIP3    H233540   2.419   5.682   0.471  0.7991  0.8633  0.7121
 3993TIP3   OH233541   5.795   5.958   0.149  0.4337  0.1678 -0.3228
 3993TIP3    H133542   5.885   5.991   0.144  0.5489 -0.2985 -2.2422
 3993TIP3    H233543   5.801   5.881   0.205  1.2345  0.1626 -0.3974
 3994TIP3   OH233544   2.273   0.645   1.637 -0.3875  0.0018  0.0467
 3994TIP3    H133545   2.263   0.621   1.544 -2.2803  1.5122 -0.1959
 3994TIP3    H233546   2.337   0.716   1.636  1.4076 -1.5403  0.2159
 3995TIP3   OH233547   1.295   6.076   8.052 -0.4180  0.5626 -0.4363
 3995TIP3    H133548   1.251   6.141   7.997 -0.4833  1.1738  0.3378
 3995TIP3    H233549   1.388   6.090   8.037 -0.2530  3.1381  2.2616
 3996TIP3   OH233550   5.240   2.429   7.036  0.0653 -0.3827  0.2883
 3996TIP3    H133551   5.156   2.423   6.991 -0.3599  0.8390  0.8631
 3996TIP3    H233552   5.243   2.518   7.071  1.3387 -0.5898  0.7986
 3997TIP3   OH233553   0.009   6.250   7.487 -0.3712  0.3133 -0.4374
 3997TIP3    H133554  -0.072   6.219   7.527  0.3980 -2.1560 -0.5912
 3997TIP3    H233555  -0.007   6.244   7.392 -0.0785 -0.0075 -0.4679
 3998TIP3   OH233556   4.671   4.850   1.259  0.1859 -0.3604  0.1232
 3998TIP3    H133557   4.647   4.870   1.350  1.7288  2.8223 -0.0301
 3998TIP3    H233558   4.767   4.851   1.259  0.2814 -2.7129 -1.1507
 3999TIP3   OH233559   2.258   4.473   7.525 -0.1987  0.6288 -0.0146
 3999TIP3    H133560   2.185   4.520   7.568  0.3995  0.7250  0.9375
 3999TIP3    H233561   2.328   4.475   7.590  0.8526  1.0244 -1.1248
 4000TIP3   OH233562   5.082   1.800   7.187 -0.4622 -0.0055 -0.0404
 4000TIP3    H133563   5.135   1.868   7.146 -0.7058  0.6957  0.7810
 4000TIP3    H233564   5.006   1.791   7.129 -0.2275  0.1208 -0.3724
 4001TIP3   OH233565   4.682   6.057   8.447 -0.0432 -0.4619  0.3825
 4001TIP3    H133566   4.618   6.051   8.376  0.1003  0.4882  0.1619
 4001TIP3    H233567   4.669   5.977   8.498 -0.7930 -0.7013 -0.1730
 4002TIP3   OH233568   2.743   1.296   1.078  0.0435  0.3352 -0.1993
 4002TIP3    H133569   2.664   1.262   1.120  1.0109  1.2159  2.5427
 4002TIP3    H233570   2.752   1.384   1.113  1.5228  0.7310 -1.5001
 4003TIP3   OH233571   5.003   5.292   0.767 -0.0110  0.1749 -0.1863
 4003TIP3    H133572   5.049   5.375   0.770  0.0676  0.1449 -0.4764
 4003TIP3    H233573   4.911   5.314   0.778  0.2577 -0.0069  3.3218
 4004TIP3   OH233574   6.632   5.463   2.053 -0.2649 -0.0064  0.1972
 4004TIP3    H133575   6.728   5.460   2.055  0.0198  1.7735 -3.0865
 4004TIP3    H233576   6.605   5.371   2.059  1.7920 -0.7319 -0.7601
 4005TIP3   OH233577   3.642   5.439   7.077  1.0144  0.1782  0.1041
 4005TIP3    H133578   3.735   5.454   7.063  0.7840  1.9186  0.1783
 4005TIP3    H233579   3.612   5.518   7.123 -0.7250  0.1730 -0.9493
 4006TIP3   OH233580   6.133   3.366   0.418 -0.2321  0.2811  0.0002
 4006TIP3    H133581   6.131   3.412   0.334 -0.9962 -1.3074 -0.8879
 4006TIP3    H233582   6.136   3.436   0.483  1.4157  1.5391 -1.3418
 4007TIP3   OH233583   3.550   2.725   0.227  0.6398 -0.0030  0.0298
 4007TIP3    H133584   3.516   2.657   0.285  1.1471 -1.6907 -1.5743
 4007TIP3    H233585   3.473   2.779   0.206 -0.6832 -2.3668 -1.6846
 4008TIP3   OH233586   5.840   2.512   1.560 -0.0076 -0.5581  0.0839
 4008TIP3    H133587   5.834   2.605   1.583  0.9244 -0.8510  1.6720
 4008TIP3    H233588   5.796   2.505   1.475 -3.2069  0.7349  1.4909
 4009TIP3   OH233589   2.499   1.368   8.390 -0.3451  0.2867 -0.6016
 4009TIP3    H133590   2.500   1.392   8.483 -1.5192 -0.7361 -0.3120
 4009TIP3    H233591   2.588   1.336   8.373  0.4297  2.1804 -0.3142
 4010TIP3   OH233592   2.567   5.772   1.808 -0.1603 -0.2468 -0.5019
 4010TIP3    H133593   2.503   5.709   1.775 -0.6218  0.2411 -0.5596
 4010TIP3    H233594   2.568   5.757   1.903 -1.3072  0.5852 -0.3378
 4011TIP3   OH233595   0.674   1.040   0.254  0.1826 -0.0259 -0.4848
 4011TIP3    H133596   0.764   1.071   0.262  0.4072 -0.5910 -0.8151
 4011TIP3    H233597   0.662   0.979   0.327  0.2165 -0.3200 -0.7273
 4012TIP3   OH233598   0.078   3.592   1.462  0.0022  0.6353 -0.5569
 4012TIP3    H133599   0.094   3.562   1.551  2.2313 -1.7369 -1.6398
 4012TIP3    H233600   0.026   3.672   1.473 -1.3008 -0.5020  2.7481
 4013TIP3   OH233601   2.821   4.190   8.073  0.5137 -1.0324  0.2674
 4013TIP3    H133602   2.797   4.166   8.162 -3.0348  0.1252 -0.2190
 4013TIP3    H233603   2.869   4.272   8.082 -0.7678 -0.3443  1.0956
 4014TIP3   OH233604   3.904   0.781   0.824  0.0893 -0.5238 -0.2393
 4014TIP3    H133605   3.911   0.741   0.738 -1.1323  0.4008 -0.7934
 4014TIP3    H233606   3.994   0.786   0.856  0.4744 -1.5910 -1.1144
 4015TIP3   OH233607   0.113   5.037   0.965  0.5525 -0.3285 -0.2935
 4015TIP3    H133608   0.104   5.057   1.058 -0.5509  2.8377 -0.9791
 4015TIP3    H233609   0.197   5.075   0.940 -0.0349  0.5639 -0.9561
 4016TIP3   OH233610   2.393   3.790   0.539 -0.0578  0.3683 -0.2548
 4016TIP3    H133611   2.411   3.707   0.583 -1.2085 -0.5502 -1.4228
 4016TIP3    H233612   2.325   3.831   0.593 -0.8720 -0.3700 -0.6844
 4017TIP3   OH233613   0.406   6.709   2.390 -0.1571  0.5853  0.0791
 4017TIP3    H133614   0.471   6.649   2.426  1.0043  1.1938 -0.9323
 4017TIP3    H233615   0.341   6.719   2.460  0.5732 -0.4193  0.9288
 4018TIP3   OH233616   3.101   6.772   1.399 -0.5040 -0.5253  0.0375
 4018TIP3    H133617   3.185   6.766   1.444  0.0887 -0.7966 -1.0499
 4018TIP3    H233618   3.053   6.841   1.446  0.1883 -0.6030  0.8783
 4019TIP3   OH233619   4.910   6.126   7.081 -0.0729 -0.0357  0.0638
 4019TIP3    H133620   4.941   6.217   7.078 -0.8655  0.2405 -0.0820
 4019TIP3    H233621   4.861   6.120   7.163  0.7310 -0.5945  0.5165
 4020TIP3   OH233622   4.109   1.803   1.858  0.1387 -0.2423 -0.0319
 4020TIP3    H133623   4.105   1.890   1.898 -1.9739 -0.6541  0.7664
 4020TIP3    H233624   4.157   1.817   1.776 -0.9896  1.8855 -0.4114
 4021TIP3   OH233625   2.941   1.316   7.355  0.0444  0.4851  0.1940
 4021TIP3    H133626   3.001   1.390   7.364 -0.7163  1.2312 -0.6222
 4021TIP3    H233627   2.946   1.292   7.262 -0.7610  0.4384  0.1546
 4022TIP3   OH233628   6.395   4.296   7.519  1.0402 -0.1520 -0.1865
 4022TIP3    H133629   6.463   4.337   7.466 -1.1636  1.1168 -2.2366
 4022TIP3    H233630   6.358   4.367   7.571  0.8248 -0.6827  0.3980
 4023TIP3   OH233631   3.179   6.019   6.451  0.1905  0.0504 -0.1651
 4023TIP3    H133632   3.122   6.051   6.382 -0.8365 -2.3636 -0.5421
 4023TIP3    H233633   3.121   6.007   6.526  1.1418  1.8931  0.9513
 4024TIP3   OH233634   5.960   5.301   0.814 -0.4817 -0.2595  0.0720
 4024TIP3    H133635   5.883   5.346   0.849 -0.1088 -0.8129  1.6622
 4024TIP3    H233636   6.021   5.371   0.792 -0.0351  0.0748  2.2207
 4025TIP3   OH233637   2.295   5.590   1.105 -0.6619  0.2525 -0.5762
 4025TIP3    H133638   2.343   5.522   1.058 -0.5967  0.4960 -0.8641
 4025TIP3    H233639   2.348   5.609   1.182 -0.5117  0.2151 -0.6713
 4026TIP3   OH233640   6.404   1.247   7.559 -0.3077 -0.2248 -0.3655
 4026TIP3    H133641   6.319   1.267   7.519  0.8858  2.6333 -1.6949
 4026TIP3    H233642   6.455   1.209   7.488  0.1975  0.0225 -0.1330
 4027TIP3   OH233643   4.126   2.748   0.267  0.2147 -0.0793  0.1890
 4027TIP3    H133644   4.147   2.665   0.223 -2.5419 -0.8100  0.0781
 4027TIP3    H233645   4.040   2.772   0.232  0.1107  1.8407  1.6466
 4028TIP3   OH233646   3.663   5.950   0.499  0.5152  0.1401  0.2744
 4028TIP3    H133647   3.682   6.039   0.530  0.8473  0.7581 -1.6078
 4028TIP3    H233648   3.590   5.961   0.439  0.1904 -0.9619  0.4482
 4029TIP3   OH233649   4.898   4.147   7.594 -0.3838  0.4278 -0.0770
 4029TIP3    H133650   4.890   4.216   7.528 -3.5609  0.5707  0.2962
 4029TIP3    H233651   4.826   4.087   7.576  1.4798 -2.1549  0.4429
 4030TIP3   OH233652   5.413   4.750   7.535 -0.1381  0.1652 -0.4989
 4030TIP3    H133653   5.327   4.785   7.557 -0.9562 -0.0660 -2.9442
 4030TIP3    H233654   5.411   4.739   7.440  2.7158  0.3967 -0.6890
 4031TIP3   OH233655   5.751   5.293   7.467  0.7200  0.5995 -0.2870
 4031TIP3    H133656   5.707   5.253   7.392  0.4918 -1.4647  0.8636
 4031TIP3    H233657   5.681   5.335   7.517  0.2467 -1.1982  0.6392
 4032TIP3   OH233658   2.315   1.848   7.778  0.0876 -0.0163 -0.0172
 4032TIP3    H133659   2.276   1.908   7.841  2.2172  1.5267 -0.0620
 4032TIP3    H233660   2.269   1.866   7.696 -1.2127 -0.5080  0.5681
 4033TIP3   OH233661   4.731   5.533   6.975  0.1583  0.1515  0.8848
 4033TIP3    H133662   4.727   5.532   6.879  0.4565 -1.2286  0.8658
 4033TIP3    H233663   4.770   5.618   6.996 -0.0013  0.5210 -0.2081
 4034TIP3   OH233664   3.177   4.628   8.717  0.2306  0.1205 -0.1789
 4034TIP3    H133665   3.117   4.562   8.683 -0.4472  1.5782 -1.9619
 4034TIP3    H233666   3.263   4.586   8.714 -0.3217 -1.0823 -0.0711
 4035TIP3   OH233667   1.341   4.070   1.274 -0.0797 -0.3950  0.0724
 4035TIP3    H133668   1.318   4.074   1.367  1.5069  0.3900  0.4576
 4035TIP3    H233669   1.400   3.994   1.267  2.0794  1.1741  0.2850
 4036TIP3   OH233670   2.780   3.982   1.237  0.1457  0.4131 -0.4251
 4036TIP3    H133671   2.831   4.008   1.161  0.4684  0.0985 -0.3227
 4036TIP3    H233672   2.738   4.062   1.267 -0.8688  0.3318 -1.5828
 4037TIP3   OH233673   1.303   3.305   1.134 -0.1503  0.4042 -0.1765
 4037TIP3    H133674   1.251   3.319   1.055  0.4930 -0.7149 -0.8263
 4037TIP3    H233675   1.259   3.232   1.179 -0.0186  0.4635  0.0498
 4038TIP3   OH233676   6.056   0.940   6.327 -0.6187 -0.0514 -0.6413
 4038TIP3    H133677   6.010   0.869   6.282 -0.5920 -0.4326 -0.0739
 4038TIP3    H233678   6.014   1.019   6.294 -1.1877 -0.3642 -0.6826
 4039TIP3   OH233679   1.864   0.687   8.063  0.5099 -0.0278  0.0387
 4039TIP3    H133680   1.898   0.773   8.088  3.2643 -0.2092 -2.4689
 4039TIP3    H233681   1.931   0.625   8.093 -0.2715 -1.0360 -0.2470
 4040TIP3   OH233682   1.226   6.256   8.799  0.0607  0.5400 -0.1361
 4040TIP3    H133683   1.289   6.228   8.732 -0.5453  0.7663 -0.8105
 4040TIP3    H233684   1.211   6.348   8.780 -1.2417  0.2418 -0.6163
 4041TIP3   OH233685   2.464   6.313   8.768  0.1089 -0.6157  0.1217
 4041TIP3    H133686   2.455   6.393   8.820 -0.7378  0.0475 -0.9970
 4041TIP3    H233687   2.547   6.323   8.722 -0.6759  0.3614 -1.1627
 4042TIP3   OH233688   6.458   0.587   2.191 -0.1608  0.1805 -0.4914
 4042TIP3    H133689   6.498   0.502   2.175 -0.8689  0.2900 -3.3185
 4042TIP3    H233690   6.517   0.630   2.253  0.1372 -2.3590  1.1178
 4043TIP3   OH233691   5.903   1.293   7.199  0.4146 -0.2777 -0.1572
 4043TIP3    H133692   5.893   1.387   7.181 -0.8649 -0.4058 -0.2129
 4043TIP3    H233693   5.820   1.268   7.239  1.9781 -0.6551  3.1878
 4044TIP3   OH233694   5.237   5.676   0.749 -0.3179  0.0950 -0.5484
 4044TIP3    H133695   5.213   5.597   0.797  0.6097 -0.0336 -0.2603
 4044TIP3    H233696   5.217   5.656   0.658 -0.4487 -0.3287 -0.4306
 4045TIP3   OH233697   5.459   0.610   8.080  0.1462  0.5454  0.1626
 4045TIP3    H133698   5.460   0.706   8.072 -0.8930  0.5049 -0.6504
 4045TIP3    H233699   5.520   0.580   8.013  0.7159  0.6401  0.6310
 4046TIP3   OH233700   4.147   2.936   1.240  0.0855 -0.4386 -0.3979
 4046TIP3    H133701   4.145   3.032   1.233 -1.6369 -0.2988  1.1328
 4046TIP3    H233702   4.217   2.918   1.302  0.7103 -0.2133 -1.0261
 4047TIP3   OH233703   0.796   2.290   1.436 -0.3292 -0.0105  0.1552
 4047TIP3    H133704   0.764   2.227   1.500  0.9075 -0.3298  0.4832
 4047TIP3    H233705   0.852   2.239   1.378  1.4657  0.9082  0.9928
 4048TIP3   OH233706   3.717   2.656   7.256  0.2881 -0.3396 -0.0316
 4048TIP3    H133707   3.789   2.676   7.316  0.8984 -0.5482 -0.6891
 4048TIP3    H233708   3.714   2.731   7.196  0.4530 -0.6800 -0.4692
 4049TIP3   OH233709   0.586   4.935   0.701  0.1488 -0.0446 -0.8595
 4049TIP3    H133710   0.602   4.982   0.782  1.5310  1.4458 -1.9215
 4049TIP3    H233711   0.658   4.961   0.643 -1.1142 -0.5275 -2.7729
 4050TIP3   OH233712   3.569   6.569   0.040 -0.0303 -0.1015 -0.2743
 4050TIP3    H133713   3.589   6.506   0.110 -0.2497  0.0886 -0.0409
 4050TIP3    H233714   3.480   6.599   0.059 -0.1432 -0.1556 -0.7179
 4051TIP3   OH233715   2.797   3.140   0.449 -0.0612  0.0916 -0.3124
 4051TIP3    H133716   2.733   3.072   0.472  0.4141 -0.5391 -0.8039
 4051TIP3    H233717   2.810   3.129   0.354 -0.5872  1.4081 -0.5556
 4052TIP3   OH233718   1.680   0.050   1.175  0.0471 -0.0436 -0.2292
 4052TIP3    H133719   1.643  -0.002   1.247  0.2354 -0.1455 -0.2041
 4052TIP3    H233720   1.774   0.039   1.185  0.2408  2.3200  1.2868
 4053TIP3   OH233721   0.402   0.670   6.688  0.3024 -0.4256  0.5483
 4053TIP3    H133722   0.497   0.678   6.674 -0.0564  1.9141 -1.1567
 4053TIP3    H233723   0.365   0.672   6.600 -1.4557  1.6485  1.2328
 4054TIP3   OH233724   3.410   1.646   1.655  0.3911 -0.1521  0.6602
 4054TIP3    H133725   3.429   1.553   1.668  1.4860 -0.0218  0.1218
 4054TIP3    H233726   3.481   1.691   1.700  0.2341  0.4136  0.3470
 4055TIP3   OH233727   1.986   0.280   7.193  0.4870  0.1186  0.7667
 4055TIP3    H133728   1.901   0.285   7.235  0.0174 -0.7897 -0.0441
 4055TIP3    H233729   2.000   0.367   7.155  0.2512  0.4824  1.5094
 4056TIP3   OH233730   4.350   0.043   6.252  0.3270 -0.1354  0.0133
 4056TIP3    H133731   4.375   0.104   6.322  1.4345  0.5706 -0.9618
 4056TIP3    H233732   4.404   0.069   6.177 -0.7897 -0.9107 -1.0998
 4057TIP3   OH233733   2.313   0.368   6.858 -0.0869  0.6311  0.0758
 4057TIP3    H133734   2.298   0.455   6.895 -0.3466  0.3475  0.6460
 4057TIP3    H233735   2.261   0.367   6.777 -0.4677  0.8355  0.3145
 4058TIP3   OH233736   4.445   0.600   1.415 -0.3610  0.3717 -0.3997
 4058TIP3    H133737   4.369   0.656   1.399 -0.4660  0.3719  0.1088
 4058TIP3    H233738   4.474   0.622   1.503  0.7155  0.9499 -0.8765
 4059TIP3   OH233739   4.557   6.143   7.790 -0.1812  0.3669  0.2212
 4059TIP3    H133740   4.537   6.115   7.879 -0.2108  1.0503  0.4298
 4059TIP3    H233741   4.646   6.178   7.795  0.2549 -0.6260 -0.2522
 4060TIP3   OH233742   4.775   4.939   8.281 -0.4344 -0.0142 -0.1460
 4060TIP3    H133743   4.863   4.968   8.254  0.0846 -0.8525  0.5976
 4060TIP3    H233744   4.765   4.853   8.240  0.5383 -1.5060  2.5362
 4061TIP3   OH233745   1.351   2.227   0.519  0.3035 -0.3806  0.6276
 4061TIP3    H133746   1.385   2.145   0.483 -0.0526 -0.7783  1.1837
 4061TIP3    H233747   1.420   2.259   0.577  0.4211 -0.3154  0.4515
 4062TIP3   OH233748   3.198   5.167   0.049 -0.2158 -0.6717  0.0156
 4062TIP3    H133749   3.250   5.215   0.114 -0.5761 -0.7389  0.3604
 4062TIP3    H233750   3.224   5.076   0.060  1.5067 -0.4272 -1.5994
 4063TIP3   OH233751   2.784   5.190   8.055  0.1523  0.3101 -0.4665
 4063TIP3    H133752   2.755   5.160   8.141 -0.1092  0.0486 -0.6445
 4063TIP3    H233753   2.820   5.112   8.013  0.0227  0.3738 -0.6994
 4064TIP3   OH233754   4.361   3.141   2.134 -0.2355  0.1291  0.2039
 4064TIP3    H133755   4.271   3.171   2.121 -0.5401 -0.5708  0.6439
 4064TIP3    H233756   4.393   3.192   2.208  0.2831  1.5196 -0.9292
 4065TIP3   OH233757   0.777   0.820   7.495 -0.4046  0.0929 -0.4499
 4065TIP3    H133758   0.873   0.820   7.503 -0.3076 -2.3094 -0.8372
 4065TIP3    H233759   0.748   0.887   7.556  1.3941 -1.4227  2.2684
 4066TIP3   OH233760   6.054   1.009   8.561 -0.3961  0.3100 -0.0581
 4066TIP3    H133761   6.105   0.964   8.494  1.2966 -0.0172  1.3699
 4066TIP3    H233762   6.001   0.940   8.602 -1.2961  0.4796 -0.9001
 4067TIP3   OH233763   3.188   2.465   1.365 -0.0123  0.2174  0.3311
 4067TIP3    H133764   3.270   2.502   1.399  1.0787 -1.2561 -0.6017
 4067TIP3    H233765   3.125   2.478   1.435  1.2655  0.5152  1.4570
 4068TIP3   OH233766   6.592   3.924   7.957  0.2949  0.2469  0.1395
 4068TIP3    H133767   6.645   3.914   7.878  0.4008  0.8296  0.1323
 4068TIP3    H233768   6.527   3.991   7.934 -1.1609 -1.2059 -0.2193
 4069TIP3   OH233769   4.518   1.380   1.644 -0.0389 -0.0638  0.2705
 4069TIP3    H133770   4.450   1.323   1.608  0.6843 -0.9682  0.2906
 4069TIP3    H233771   4.597   1.355   1.597  0.3583  0.7339  0.4906
 4070TIP3   OH233772   3.635   6.440   1.547  0.5143 -0.2468 -0.0521
 4070TIP3    H133773   3.548   6.441   1.588  1.0979 -0.9494  1.2836
 4070TIP3    H233774   3.694   6.469   1.617  1.6733 -2.4516 -0.0355
 4071TIP3   OH233775   2.925   6.764   6.559 -0.1898  0.2399 -0.1643
 4071TIP3    H133776   2.867   6.744   6.485  0.5146  0.8829 -0.9197
 4071TIP3    H233777   2.875   6.739   6.637 -1.3576  0.4964 -0.8041
 4072TIP3   OH233778   3.928   2.501   7.466 -0.0911 -0.0218 -0.1436
 4072TIP3    H133779   3.992   2.485   7.397  0.2358 -0.6397  0.2882
 4072TIP3    H233780   3.978   2.488   7.547 -0.9623 -1.3679  0.2010
 4073TIP3   OH233781   5.715   0.402   6.165  0.8078  1.0225 -0.4169
 4073TIP3    H133782   5.767   0.397   6.245  1.4975 -0.9156 -0.9244
 4073TIP3    H233783   5.625   0.387   6.194  1.1855 -0.9265 -0.0746
 4074TIP3   OH233784   3.660   6.053   6.689 -0.4605  0.0186  0.2039
 4074TIP3    H133785   3.677   6.056   6.783 -1.5328  0.8942  0.3822
 4074TIP3    H233786   3.745   6.031   6.651 -0.0531 -0.5897  1.3759
 4075TIP3   OH233787   2.748   0.059   7.922  0.1995  0.7656 -0.1325
 4075TIP3    H133788   2.799   0.044   7.842 -0.9511 -0.0522 -0.7538
 4075TIP3    H233789   2.801   0.119   7.974  1.7778 -0.0316 -0.7462
 4076TIP3   OH233790   3.541   3.535   0.742  0.1766 -0.0756 -0.2073
 4076TIP3    H133791   3.449   3.513   0.732 -0.0472  0.7720 -0.1302
 4076TIP3    H233792   3.548   3.624   0.708  1.1135 -0.3911 -0.8877
 4077TIP3   OH233793   4.363   4.062   7.061  0.3345 -0.4814  0.6244
 4077TIP3    H133794   4.343   3.970   7.078 -0.6907  0.1000  2.9181
 4077TIP3    H233795   4.279   4.106   7.070  0.7029  0.6527 -1.0557
 4078TIP3   OH233796   0.817   2.618   7.634  0.1907  0.2558 -0.8228
 4078TIP3    H133797   0.776   2.562   7.568 -0.7323  0.0232 -0.0637
 4078TIP3    H233798   0.881   2.670   7.585  1.4478 -1.7802 -1.5003
 4079TIP3   OH233799   6.491   0.991   0.526 -0.2314  0.2824 -0.3203
 4079TIP3    H133800   6.436   0.956   0.456 -0.9261  0.5548  0.0736
 4079TIP3    H233801   6.525   0.914   0.571  0.0113  0.1081 -0.7964
 4080TIP3   OH233802   1.702   1.319   0.859 -0.6236 -0.4355  0.2446
 4080TIP3    H133803   1.759   1.387   0.897 -1.0903 -1.0464  2.1751
 4080TIP3    H233804   1.683   1.261   0.933 -0.9269 -2.2093 -1.1656
 4081TIP3   OH233805   4.499   6.457   2.726 -0.3792  0.3338 -0.2041
 4081TIP3    H133806   4.518   6.486   2.816 -1.2157  0.9273 -0.2048
 4081TIP3    H233807   4.454   6.532   2.687  0.3035  0.2202 -1.2467
 4082TIP3   OH233808   4.385   1.917   0.778 -0.0736 -0.0095  0.2998
 4082TIP3    H133809   4.293   1.941   0.771 -0.1693 -0.4139  0.1289
 4082TIP3    H233810   4.404   1.868   0.697  0.7330  1.4780 -0.4464
 4083TIP3   OH233811   5.764   1.081   8.050  0.1077  0.4393 -0.1597
 4083TIP3    H133812   5.775   1.101   8.143 -0.8694 -2.1229  0.5911
 4083TIP3    H233813   5.819   1.005   8.035  0.8416  1.2680 -1.9202
 4084TIP3   OH233814   5.096   3.799   8.607 -0.1762 -0.1982  0.2987
 4084TIP3    H133815   5.047   3.817   8.526 -0.0466 -0.8566  0.0690
 4084TIP3    H233816   5.035   3.823   8.677 -0.6843 -0.6286  0.0122
 4085TIP3   OH233817   2.836   0.082   6.273  0.9141  0.2760 -0.1352
 4085TIP3    H133818   2.758   0.042   6.311 -0.5914  2.0133 -1.2067
 4085TIP3    H233819   2.812   0.098   6.182  2.5139  0.8965 -0.4770
 4086TIP3   OH233820   4.086   1.955   2.090 -0.6139 -0.2612  0.0316
 4086TIP3    H133821   4.104   1.864   2.115  0.5071 -0.3979 -1.1649
 4086TIP3    H233822   4.153   2.006   2.135 -1.1990 -0.0301  0.6457
 4087TIP3   OH233823   6.456   6.748   8.748 -0.7589 -0.3403  0.4482
 4087TIP3    H133824   6.526   6.717   8.804  0.2431  2.8127  1.1743
 4087TIP3    H233825   6.404   6.806   8.804 -3.4735 -1.8540 -0.3207
 4088TIP3   OH233826   3.029   1.246   8.161 -0.6079  0.2619  0.2183
 4088TIP3    H133827   3.123   1.250   8.177 -0.6434 -1.0883  0.8502
 4088TIP3    H233828   2.999   1.336   8.174  0.6409  0.7743 -0.3412
 4089TIP3   OH233829   1.328   2.663   1.504 -1.0759  0.1147  0.4698
 4089TIP3    H133830   1.260   2.599   1.483  0.0786 -0.6163 -1.2931
 4089TIP3    H233831   1.318   2.731   1.438  0.2588 -0.3182 -0.2111
 4090TIP3   OH233832   4.456   3.269   6.884  0.4520  0.1413 -0.2062
 4090TIP3    H133833   4.497   3.315   6.811  1.2045 -0.6706 -0.3208
 4090TIP3    H233834   4.397   3.205   6.843 -1.7353  1.9327 -0.0350
 4091TIP3   OH233835   1.856   4.452   0.385 -0.0057 -0.0075  0.3206
 4091TIP3    H133836   1.876   4.470   0.293  0.1689 -1.1304  0.1310
 4091TIP3    H233837   1.895   4.366   0.403 -0.6364 -0.1222  1.2515
 4092TIP3   OH233838   3.504   1.119   1.162  0.1935 -0.2789 -0.0052
 4092TIP3    H133839   3.568   1.125   1.091  1.7779  0.0727  1.3660
 4092TIP3    H233840   3.475   1.209   1.176 -1.9351 -0.6256 -1.6976
 4093TIP3   OH233841   4.334   6.642   0.080  0.4017 -0.5810  0.3057
 4093TIP3    H133842   4.248   6.651   0.120 -0.1914  3.1756 -1.4326
 4093TIP3    H233843   4.394   6.635   0.154 -1.2287 -2.7957  1.5659
 4094TIP3   OH233844   0.180   6.410   6.562 -0.3958 -0.8880  1.3856
 4094TIP3    H133845   0.241   6.354   6.515  1.0206  0.5924  1.3766
 4094TIP3    H233846   0.114   6.433   6.497  0.6768 -0.1369  0.5260
 4095TIP3   OH233847   0.890   5.955   0.206  0.5773 -0.0877  0.2019
 4095TIP3    H133848   0.962   6.018   0.210  1.8686 -1.5722  2.3478
 4095TIP3    H233849   0.832   5.980   0.277 -0.7532  0.6893 -1.0953
 4096TIP3   OH233850   6.479   5.265   7.237  0.0567 -0.3542  0.7013
 4096TIP3    H133851   6.508   5.201   7.172  1.3960 -0.1972  1.1188
 4096TIP3    H233852   6.422   5.324   7.188  0.1873 -0.8513 -0.0830
 4097TIP3   OH233853   0.605   0.878   1.510 -0.0750  0.2590 -0.1292
 4097TIP3    H133854   0.591   0.971   1.522 -1.5806  0.1204 -0.6125
 4097TIP3    H233855   0.644   0.848   1.592  1.7966  1.5310 -0.4872
 4098TIP3   OH233856   1.923   6.161   8.235 -0.4433 -0.3201 -0.0933
 4098TIP3    H133857   1.970   6.172   8.318  0.2404  0.9211 -0.6178
 4098TIP3    H233858   1.978   6.101   8.184  0.5052  0.9483 -0.6156
 4099TIP3   OH233859   0.076   2.140   7.522  0.1202 -0.0025 -0.7540
 4099TIP3    H133860  -0.002   2.111   7.571 -0.7882  3.4765  0.1178
 4099TIP3    H233861   0.046   2.148   7.432  0.5970 -2.2622 -1.1669
 4100TIP3   OH233862   1.059   3.598   0.429  0.2330 -0.3084  0.9249
 4100TIP3    H133863   1.141   3.646   0.417  1.8083 -2.7266  1.3517
 4100TIP3    H233864   1.047   3.596   0.524  1.4243 -2.5430  1.1022
 4101TIP3   OH233865   3.545   3.497   8.794 -0.5475 -0.1676 -0.1516
 4101TIP3    H133866   3.503   3.414   8.818  0.6579 -0.2093  1.9911
 4101TIP3    H233867   3.637   3.486   8.817 -0.1147  1.3648 -0.9724
 4102TIP3   OH233868   1.223   3.755   7.273  0.2732 -0.2635 -0.9634
 4102TIP3    H133869   1.136   3.738   7.309  0.0914  1.2007 -0.6527
 4102TIP3    H233870   1.282   3.702   7.327 -0.1683  0.6885  0.5337
 4103TIP3   OH233871   5.663   5.614   2.437  0.6099 -0.0152  0.1291
 4103TIP3    H133872   5.735   5.589   2.378  0.2415  1.4320 -1.0021
 4103TIP3    H233873   5.689   5.580   2.522  1.0838 -2.3357 -0.8707
 4104TIP3   OH233874   4.477   1.976   1.327  0.4219  0.0592  0.2592
 4104TIP3    H133875   4.553   1.984   1.269 -0.1493 -1.0419 -0.6883
 4104TIP3    H233876   4.488   1.890   1.368  1.1402  1.0748  2.3058
 4105TIP3   OH233877   1.153   2.916   1.048  1.0907 -0.4934  0.3661
 4105TIP3    H133878   1.149   2.981   1.119  2.0352  0.0591 -0.0618
 4105TIP3    H233879   1.063   2.884   1.039  0.3487  1.5462 -0.1116
 4106TIP3   OH233880   1.174   2.732   6.314 -0.4913 -0.5697 -0.5182
 4106TIP3    H133881   1.100   2.751   6.257 -0.3746 -1.2867 -0.9089
 4106TIP3    H233882   1.178   2.637   6.319  1.2302 -0.5866 -1.5881
 4107TIP3   OH233883   6.625   0.714   0.386  0.2113  0.9664  0.2376
 4107TIP3    H133884   6.707   0.669   0.365 -0.1553  0.3783  0.0436
 4107TIP3    H233885   6.634   0.739   0.478 -0.6545 -1.9102  1.1787
 4108TIP3   OH233886   0.688   0.404   1.163  0.6166 -0.3522 -0.1797
 4108TIP3    H133887   0.728   0.382   1.247  1.6008 -0.3895 -0.6511
 4108TIP3    H233888   0.713   0.495   1.147  0.3974 -0.3310 -0.4158
 4109TIP3   OH233889   3.851   3.238   0.559  0.5176  0.2326  0.3656
 4109TIP3    H133890   3.925   3.180   0.545  2.3872  2.3560  0.7881
 4109TIP3    H233891   3.867   3.312   0.501 -1.0559  0.9549  0.7928
 4110TIP3   OH233892   4.777   3.526   8.571  0.0278 -0.1968 -0.0625
 4110TIP3    H133893   4.714   3.465   8.609  1.5288 -1.8688 -0.1484
 4110TIP3    H233894   4.856   3.516   8.624  0.7622  0.6454 -0.9418
 4111TIP3   OH233895   0.798   6.452   0.826 -0.4241  0.3523  0.0894
 4111TIP3    H133896   0.798   6.390   0.753  1.0085  2.3073 -1.6892
 4111TIP3    H233897   0.890   6.473   0.839 -0.9094  2.6724  0.0897
 4112TIP3   OH233898   1.188   3.938   6.820  0.3676  0.3381  0.7221
 4112TIP3    H133899   1.282   3.949   6.808  0.7508 -1.8679  1.3234
 4112TIP3    H233900   1.177   3.931   6.915 -0.7166  2.6691  0.8414
 4113TIP3   OH233901   6.274   4.087   6.901  1.0288  0.2302  0.1995
 4113TIP3    H133902   6.334   4.114   6.832  0.7559  1.3949  0.3977
 4113TIP3    H233903   6.202   4.044   6.854  1.2885  0.1894 -0.1674
 4114TIP3   OH233904   5.646   0.143   7.756 -0.2035 -0.1395 -0.2061
 4114TIP3    H133905   5.653   0.087   7.679  1.4572  1.5941 -1.3766
 4114TIP3    H233906   5.702   0.100   7.821 -0.2692 -0.7144 -0.5214
 4115TIP3   OH233907   3.363   5.417   7.361 -0.6993  0.2622  0.3771
 4115TIP3    H133908   3.383   5.333   7.321  2.8287  1.9077 -1.7071
 4115TIP3    H233909   3.317   5.467   7.293 -1.4463  0.5721  1.0792
 4116TIP3   OH233910   1.436   0.058   8.031  0.1820  0.5236  0.1947
 4116TIP3    H133911   1.440   0.126   7.963  1.0140  0.8396  0.5463
 4116TIP3    H233912   1.403   0.103   8.108 -1.8598 -0.0850 -0.2661
 4117TIP3   OH233913   4.283   5.886   7.548  0.2437  0.0740  0.3616
 4117TIP3    H133914   4.306   5.937   7.471 -0.9116  0.7561  0.4598
 4117TIP3    H233915   4.366   5.845   7.575  0.9592  1.0312 -0.3374
 4118TIP3   OH233916   3.285   4.528   1.238  0.2795 -0.0112  0.3181
 4118TIP3    H133917   3.292   4.621   1.215 -0.8907 -0.3256 -1.4708
 4118TIP3    H233918   3.270   4.528   1.332  0.1007  1.6187  0.3133
 4119TIP3   OH233919   1.394   1.868   6.726 -0.3640 -0.7544  0.0261
 4119TIP3    H133920   1.434   1.955   6.720 -1.1014 -0.3492  0.7504
 4119TIP3    H233921   1.410   1.828   6.641  1.2165 -0.4504  0.1546
 4120TIP3   OH233922   0.851   6.053   1.020 -0.5231  0.2792  0.8369
 4120TIP3    H133923   0.945   6.065   1.031 -0.5103  1.7468 -0.5428
 4120TIP3    H233924   0.812   6.132   1.058 -0.9632  1.2562 -1.5127
 4121TIP3   OH233925   1.099   3.991   1.127 -0.1075 -0.5037  0.7399
 4121TIP3    H133926   1.094   4.009   1.033 -0.1625  2.5501  1.2140
 4121TIP3    H233927   1.193   3.988   1.145 -0.0015  1.9987  0.9722
 4122TIP3   OH233928   4.686   5.290   8.213  0.0726  0.1658 -0.0183
 4122TIP3    H133929   4.766   5.332   8.244 -0.4087 -0.1290  1.6980
 4122TIP3    H233930   4.651   5.351   8.148 -0.0275  1.9227  1.6049
 4123TIP3   OH233931   2.095   4.890   6.603 -0.2299 -0.7069 -0.1965
 4123TIP3    H133932   2.190   4.897   6.612  0.0547 -1.8225 -2.0289
 4123TIP3    H233933   2.065   4.981   6.601  0.7793 -0.3424  0.3684
 4124TIP3   OH233934   1.577   1.003   8.541 -0.2514  0.9357 -0.7139
 4124TIP3    H133935   1.612   1.072   8.485  3.8390  0.6352  1.1087
 4124TIP3    H233936   1.553   1.048   8.622  0.5117  0.5254 -0.2476
 4125TIP3   OH233937   0.475   0.386   0.471 -0.0548 -0.2731 -0.3109
 4125TIP3    H133938   0.509   0.315   0.416 -0.4518 -1.0288  0.4018
 4125TIP3    H233939   0.509   0.367   0.558  0.7767  1.0540 -0.3101
 4126TIP3   OH233940   0.967   2.090   1.267  0.2934  0.0753 -0.7504
 4126TIP3    H133941   0.994   2.069   1.357 -0.4654 -0.5906 -0.6599
 4126TIP3    H233942   1.045   2.076   1.214  0.6401  0.0794 -0.2449
 4127TIP3   OH233943   6.309   0.986   0.289 -1.0399  0.4779 -0.0209
 4127TIP3    H133944   6.340   1.023   0.206 -0.2531 -2.9222 -1.4080
 4127TIP3    H233945   6.214   0.996   0.286 -1.2590 -1.5182 -2.4766
 4128TIP3   OH233946   0.599   3.802   0.144 -0.5634 -0.5485 -0.3443
 4128TIP3    H133947   0.546   3.791   0.066 -0.4266 -2.4560 -0.2224
 4128TIP3    H233948   0.685   3.830   0.112 -0.6489 -0.8488 -0.8300
 4129TIP3   OH233949   1.185   4.922   8.822  0.3543 -0.0700 -0.4451
 4129TIP3    H133950   1.181   5.012   8.856  2.7144  0.0765 -0.3397
 4129TIP3    H233951   1.094   4.898   8.806 -0.4584  1.7659  1.0204
 4130TIP3   OH233952   6.255   2.879   8.222  0.0896  0.5467 -0.1618
 4130TIP3    H133953   6.311   2.890   8.299 -1.2148 -1.0477  1.0807
 4130TIP3    H233954   6.199   2.956   8.222 -1.6615 -0.6175  2.0772
 4131TIP3   OH233955   4.171   2.409   8.338 -0.2042 -0.2996  0.1574
 4131TIP3    H133956   4.220   2.425   8.418 -0.1093  0.3119 -0.0208
 4131TIP3    H233957   4.228   2.441   8.268  0.1387 -1.7123 -0.2518
 4132TIP3   OH233958   4.881   4.848   7.099 -0.0375 -0.1110  0.6292
 4132TIP3    H133959   4.900   4.755   7.087 -4.5842 -1.2159  0.2123
 4132TIP3    H233960   4.843   4.854   7.186 -0.6534  1.2152  0.2940
 4133TIP3   OH233961   4.423   3.181   0.245 -0.1080  0.5277 -0.2789
 4133TIP3    H133962   4.349   3.122   0.257 -0.6375  0.8358 -1.7563
 4133TIP3    H233963   4.399   3.235   0.170  0.4116  2.5804  0.9666
 4134TIP3   OH233964   4.751   4.687   6.272 -0.1545 -0.1981 -0.1601
 4134TIP3    H133965   4.659   4.712   6.262 -0.2213 -0.5275 -0.3714
 4134TIP3    H233966   4.800   4.759   6.234 -0.3400 -0.2581 -0.5165
 4135TIP3   OH233967   6.145   0.367   8.207 -0.6548  0.1977  0.0434
 4135TIP3    H133968   6.142   0.393   8.115 -2.9305  0.4895  0.1425
 4135TIP3    H233969   6.192   0.284   8.207 -0.9693 -0.0039 -1.4553
 4136TIP3   OH233970   3.867   1.381   6.807  0.1328  0.2728  1.3240
 4136TIP3    H133971   3.944   1.335   6.839  0.0575 -0.0392  1.0641
 4136TIP3    H233972   3.887   1.473   6.818  1.3033  0.2720 -0.4718
 4137TIP3   OH233973   1.235   5.535   0.502 -0.3131 -0.1556 -0.6394
 4137TIP3    H133974   1.283   5.616   0.486 -0.3536 -0.2369 -1.1646
 4137TIP3    H233975   1.184   5.520   0.423  1.0107 -1.6154 -1.2714
 4138TIP3   OH233976   4.317   6.648   6.584 -0.0194  0.0295 -0.1165
 4138TIP3    H133977   4.395   6.597   6.563 -0.0413 -1.0664  2.2195
 4138TIP3    H233978   4.345   6.712   6.649 -0.6208  1.1458 -0.9133
 4139TIP3   OH233979   2.955   6.822   1.711  0.5078  0.6829 -0.3333
 4139TIP3    H133980   2.889   6.853   1.772  0.3282  0.3267 -0.3427
 4139TIP3    H233981   3.038   6.848   1.750  0.4831 -0.8627  0.8590
 4140TIP3   OH233982   5.987   5.049   0.524 -0.0307  0.3414 -0.2741
 4140TIP3    H133983   6.047   5.120   0.500  2.0445 -1.3592 -0.4201
 4140TIP3    H233984   6.013   5.024   0.612  0.2066 -1.1031 -0.7221
 4141TIP3   OH233985   3.976   3.651   7.775 -0.7903 -0.0688 -0.1163
 4141TIP3    H133986   4.007   3.654   7.865  1.1991  1.7683 -0.7620
 4141TIP3    H233987   4.020   3.576   7.736 -2.3985 -1.4538  0.6216
 4142TIP3   OH233988   6.267   3.923   7.747 -0.5494  0.0205  0.3820
 4142TIP3    H133989   6.241   3.849   7.692 -0.8840  0.1749  0.3335
 4142TIP3    H233990   6.324   3.884   7.814  1.8788  0.1479 -1.4448
 4143TIP3   OH233991   2.936   0.289   8.698 -0.1309  0.4700  0.0885
 4143TIP3    H133992   2.975   0.206   8.725  0.7175  0.7742 -0.1717
 4143TIP3    H233993   2.930   0.281   8.602 -0.4880  0.5269  0.1040
 4144TIP3   OH233994   0.871   6.269   0.598  0.2190  0.5422  0.5917
 4144TIP3    H133995   0.908   6.283   0.511  1.4726 -2.4135  0.5163
 4144TIP3    H233996   0.778   6.254   0.583  0.5120 -0.4989 -0.3659
 4145TIP3   OH233997   0.164   4.169   8.257 -0.5160 -0.3739  0.1276
 4145TIP3    H133998   0.137   4.121   8.335  0.1266  1.4400  1.5416
 4145TIP3    H233999   0.252   4.136   8.238  0.1491  0.5743  1.4239
 4146TIP3   OH234000   0.494   4.256   2.012 -0.2960 -0.1042 -0.0874
 4146TIP3    H134001   0.411   4.298   2.037  0.0714 -0.8821  2.8798
 4146TIP3    H234002   0.521   4.208   2.091  2.1861 -1.1870 -1.4821
 4147TIP3   OH234003   2.846   6.532   8.108  0.0025  0.0512  0.0046
 4147TIP3    H134004   2.785   6.527   8.035  1.4124 -0.8705 -1.1792
 4147TIP3    H234005   2.896   6.612   8.093 -0.8712  0.8083  0.9732
 4148TIP3   OH234006   2.590   2.563   7.130 -0.1773 -0.0061 -0.3036
 4148TIP3    H134007   2.542   2.580   7.211  0.1523  1.1483 -0.3365
 4148TIP3    H234008   2.550   2.622   7.066 -0.2072 -0.6665 -0.9137
 4149TIP3   OH234009   1.782   5.660   1.373 -0.0574  0.5318 -0.0242
 4149TIP3    H134010   1.732   5.666   1.454  1.5707 -0.1486  1.0786
 4149TIP3    H234011   1.873   5.674   1.399  0.7547 -1.6674 -1.4015
 4150TIP3   OH234012   5.345   5.261   7.070  0.1947  0.5699 -0.1340
 4150TIP3    H134013   5.419   5.305   7.028  0.4143 -0.6735 -1.1281
 4150TIP3    H234014   5.358   5.168   7.050 -1.0312  0.2039  0.6427
 4151TIP3   OH234015   6.686   3.267   8.107 -0.1063 -0.2996 -0.2701
 4151TIP3    H134016   6.677   3.260   8.012 -0.6008  1.0460 -0.3434
 4151TIP3    H234017   6.774   3.303   8.120 -0.8283  1.6493 -0.3726
 4152TIP3   OH234018   2.646   5.705   2.095  0.1306 -0.0537 -0.5389
 4152TIP3    H134019   2.724   5.759   2.083  0.4846 -0.8549 -2.2253
 4152TIP3    H234020   2.680   5.621   2.126  0.1403 -0.8544 -2.5751
 4153TIP3   OH234021   3.166   3.098   8.206 -0.0680  0.0111  0.2637
 4153TIP3    H134022   3.140   3.007   8.187  0.6153  0.0312 -0.8355
 4153TIP3    H234023   3.223   3.122   8.133  0.6662  0.9508  1.1317
 4154TIP3   OH234024   1.761   2.909   1.307  0.1373  0.6130 -0.4270
 4154TIP3    H134025   1.690   2.901   1.243 -0.3066  1.5291 -0.0634
 4154TIP3    H234026   1.732   2.857   1.381  0.0913  0.5423 -0.4944
 4155TIP3   OH234027   0.330   3.993   7.014 -0.0220 -0.5025  0.1709
 4155TIP3    H134028   0.259   3.935   6.987 -1.6661  1.2353  0.5171
 4155TIP3    H234029   0.296   4.039   7.091  0.7947  1.5573 -0.6081
 4156TIP3   OH234030   0.200   1.092   0.703  0.5616 -0.5489 -0.4708
 4156TIP3    H134031   0.264   1.023   0.719 -0.2902 -1.4030 -0.6962
 4156TIP3    H234032   0.119   1.060   0.742  0.0857  0.2190 -0.7992
 4157TIP3   OH234033   6.016   2.756   0.722 -0.3725 -0.0810  0.2914
 4157TIP3    H134034   5.982   2.758   0.633  1.7333 -0.7916 -0.5870
 4157TIP3    H234035   6.100   2.712   0.715  0.7276  1.5284  2.3285
 4158TIP3   OH234036   3.307   6.364   0.014 -0.0490 -0.2124  0.2543
 4158TIP3    H134037   3.300   6.290   0.073  1.0356  0.9397  1.9091
 4158TIP3    H234038   3.246   6.429   0.049  2.8890  1.7445  2.2302
 4159TIP3   OH234039   0.197   5.668   1.976  0.0118 -0.1358 -0.6094
 4159TIP3    H134040   0.173   5.607   2.046  0.2099  0.4002 -0.0658
 4159TIP3    H234041   0.114   5.706   1.948  0.1669  2.3577  1.8545
 4160TIP3   OH234042   2.632   0.283   8.571 -0.3596  0.0774 -0.1804
 4160TIP3    H134043   2.545   0.280   8.533 -0.2795 -1.8301 -0.3361
 4160TIP3    H234044   2.691   0.302   8.497 -0.5960  1.1072 -0.1194
 4161TIP3   OH234045   2.838   6.428   8.825 -0.4940 -0.6434 -0.0470
 4161TIP3    H134046   2.883   6.488   8.766  0.4040 -0.1926  1.0518
 4161TIP3    H234047   2.746   6.449   8.816 -0.3364 -0.3341 -1.0028
 4162TIP3   OH234048   3.741   2.741   6.136 -0.1464  0.1968 -0.5777
 4162TIP3    H134049   3.688   2.662   6.149 -3.4226  2.6764  3.6672
 4162TIP3    H234050   3.692   2.793   6.072 -0.6643  0.7691  0.2686
 4163TIP3   OH234051   2.794   2.807   8.644 -0.5188  0.7030 -0.3837
 4163TIP3    H134052   2.767   2.763   8.564  1.7333  0.9366 -1.3492
 4163TIP3    H234053   2.821   2.736   8.703  1.4191  0.6526 -1.2783
 4164TIP3   OH234054   1.894   4.366   7.440 -0.1748 -0.0739 -0.0374
 4164TIP3    H134055   1.815   4.406   7.477  0.1635  1.6720 -1.0976
 4164TIP3    H234056   1.949   4.440   7.414  2.0126 -1.2395  1.0201
 4165TIP3   OH234057   0.332   6.436   6.768  0.4527 -0.6282  0.3997
 4165TIP3    H134058   0.347   6.341   6.768 -2.2482 -1.1497  1.0754
 4165TIP3    H234059   0.267   6.450   6.699 -0.2267  0.4923  1.2357
 4166TIP3   OH234060   4.826   4.349   0.014 -0.1998 -0.6274  0.2171
 4166TIP3    H134061   4.771   4.422  -0.015 -0.6564 -0.1110  2.2676
 4166TIP3    H234062   4.763   4.280   0.035  0.1370 -1.0239 -0.0590
 4167TIP3   OH234063   2.615   3.149   8.416  0.6120  0.4044 -0.2220
 4167TIP3    H134064   2.692   3.155   8.359  0.2702  2.0783 -0.5419
 4167TIP3    H234065   2.544   3.188   8.366 -0.1417  0.1476  0.6165
 4168TIP3   OH234066   6.654   6.630   6.747 -0.2757 -0.6419 -0.4142
 4168TIP3    H134067   6.574   6.582   6.723 -1.8969 -0.1567  3.2807
 4168TIP3    H234068   6.640   6.718   6.713 -0.5645 -0.9518 -1.1275
 4169TIP3   OH234069   3.437   3.227   7.596 -0.2566 -0.4038  0.3111
 4169TIP3    H134070   3.375   3.299   7.605  0.2261 -0.1078  1.5797
 4169TIP3    H234071   3.386   3.156   7.558 -1.0074  0.2755  0.0136
 4170TIP3   OH234072   3.219   4.912   0.134  0.4380 -0.8281 -0.2629
 4170TIP3    H134073   3.215   4.819   0.157  2.1789 -0.8152  0.2823
 4170TIP3    H234074   3.217   4.958   0.217 -1.1000 -0.3047 -0.5606
 4171TIP3   OH234075   4.946   2.545   8.101 -0.0184 -0.4445  0.1432
 4171TIP3    H134076   4.924   2.558   8.194  0.7249 -1.9705  0.5571
 4171TIP3    H234077   4.871   2.583   8.054  0.0704  1.3041  1.3098
 4172TIP3   OH234078   1.122   5.902   1.081 -0.1126 -0.2640  0.5308
 4172TIP3    H134079   1.072   5.821   1.085  0.9630 -0.9111  1.6821
 4172TIP3    H234080   1.130   5.930   1.172  2.2271 -0.6134  0.5072
 4173TIP3   OH234081   4.212   6.605   7.861 -0.1367 -0.1858  0.2459
 4173TIP3    H134082   4.253   6.519   7.851  1.5038  0.2639  2.3014
 4173TIP3    H234083   4.265   6.663   7.806 -0.0896 -0.1746  0.3033
 4174TIP3   OH234084   4.798   0.537   7.369 -0.1002  0.2395  0.8467
 4174TIP3    H134085   4.756   0.463   7.325 -0.4187  0.8425  0.1143
 4174TIP3    H234086   4.730   0.604   7.374  0.4443  0.8214  0.6592
 4175TIP3   OH234087   0.188   2.242   1.960 -0.4209  0.5449  0.1676
 4175TIP3    H134088   0.199   2.187   2.038 -4.0979 -1.3618 -0.3927
 4175TIP3    H234089   0.254   2.210   1.899  0.3761 -0.2025  1.3663
 4176TIP3   OH234090   0.463   5.838   6.452 -0.3363 -0.1184 -0.7294
 4176TIP3    H134091   0.374   5.805   6.460 -0.6974  0.8786 -0.4734
 4176TIP3    H234092   0.466   5.914   6.510  0.7659 -0.2962 -0.5165
 4177TIP3   OH234093   2.081   1.338   8.801 -0.2299 -0.4342  0.2826
 4177TIP3    H134094   2.017   1.268   8.796 -0.2202 -0.3632 -1.4268
 4177TIP3    H234095   2.163   1.294   8.825 -0.7400 -0.6189  1.7780
 4178TIP3   OH234096   2.525   0.647   1.400  0.2457  0.0269 -0.0142
 4178TIP3    H134097   2.607   0.689   1.375  0.1069  1.0819  1.2334
 4178TIP3    H234098   2.496   0.693   1.478 -1.0097 -1.0209  0.1864
 4179TIP3   OH234099   5.219   1.263   0.296  0.3852 -0.2020  0.3925
 4179TIP3    H134100   5.146   1.259   0.359  0.3476 -3.0480  0.2601
 4179TIP3    H234101   5.190   1.210   0.222  3.0759 -2.5884  0.8999
 4180TIP3   OH234102   3.192   2.596   0.081  0.1263 -0.0194 -0.4289
 4180TIP3    H134103   3.217   2.534   0.012  1.4979  0.4768 -0.3970
 4180TIP3    H234104   3.224   2.555   0.162  0.4045  0.3964 -0.3286
 4181TIP3   OH234105   4.573   4.161   1.149 -0.4212  0.2834 -0.3524
 4181TIP3    H134106   4.483   4.158   1.116  0.1172  0.1228 -1.8555
 4181TIP3    H234107   4.627   4.176   1.072  1.0371 -1.7651  0.1784
 4182TIP3   OH234108   4.673   3.114   0.956 -0.3347  0.1713  0.3307
 4182TIP3    H134109   4.582   3.098   0.979 -0.1069 -1.3460  0.2811
 4182TIP3    H234110   4.711   3.153   1.034 -0.5976 -0.9302  1.0384
 4183TIP3   OH234111   6.212   2.869   1.792  0.0103  0.2126  0.0292
 4183TIP3    H134112   6.304   2.843   1.797  0.2148  0.8475 -0.4057
 4183TIP3    H234113   6.214   2.964   1.790 -0.6446  0.2227 -0.2659
 4184TIP3   OH234114   4.489   3.187   1.182 -0.2634  0.0202 -0.2614
 4184TIP3    H134115   4.546   3.115   1.208 -0.7426 -0.5218 -0.6904
 4184TIP3    H234116   4.485   3.244   1.259  0.5181 -0.1446 -0.0899
 4185TIP3   OH234117   3.795   2.731   8.018 -0.2298  0.0485  0.2457
 4185TIP3    H134118   3.771   2.724   8.110  1.7724 -1.4888  0.7107
 4185TIP3    H234119   3.776   2.822   7.995 -2.8182 -0.0700  1.5152
 4186TIP3   OH234120   1.937   2.468   7.672 -0.2299 -0.0775  0.7299
 4186TIP3    H134121   1.985   2.398   7.627  0.1620 -0.2107  1.3525
 4186TIP3    H234122   2.005   2.524   7.709 -0.4503  1.8554 -1.5240
 4187TIP3   OH234123   5.026   6.629   0.833 -0.1510 -0.2507 -0.2485
 4187TIP3    H134124   5.055   6.686   0.904 -1.4015 -0.9927  0.9111
 4187TIP3    H234125   4.982   6.557   0.877 -3.2152  0.5088 -1.8139
 4188TIP3   OH234126   6.612   1.489   2.142 -0.2885  0.3780  0.1319
 4188TIP3    H134127   6.690   1.459   2.189  0.2133 -0.1852 -1.0242
 4188TIP3    H234128   6.560   1.535   2.208  0.6554  0.0870  1.0967
 4189TIP3   OH234129   3.588   1.819   6.321 -0.6262  0.1450 -0.4866
 4189TIP3    H134130   3.650   1.768   6.372  0.3638 -0.8232 -2.5207
 4189TIP3    H234131   3.642   1.886   6.278 -1.4806  1.1627 -0.0322
 4190TIP3   OH234132   6.633   4.916   8.353  0.0288 -0.3434  0.3822
 4190TIP3    H134133   6.602   4.866   8.278 -0.2293 -1.6073  1.3056
 4190TIP3    H234134   6.698   4.976   8.316 -1.0259 -0.0226 -1.0425
 4191TIP3   OH234135   2.243   2.359   1.271  0.0223 -0.5292 -0.0461
 4191TIP3    H134136   2.315   2.349   1.334  1.1362  0.6169 -1.1021
 4191TIP3    H234137   2.172   2.306   1.308 -0.5390  2.5118  3.8815
 4192TIP3   OH234138   0.452   3.637   8.061  0.2790 -0.3760 -0.3278
 4192TIP3    H134139   0.384   3.692   8.022  0.8913  0.0561 -0.7934
 4192TIP3    H234140   0.418   3.616   8.148 -0.2129  0.2708 -0.3570
 4193TIP3   OH234141   2.230   2.976   0.996  0.3945  0.2404 -0.2955
 4193TIP3    H134142   2.189   2.952   0.913 -1.7600 -0.8955  1.0170
 4193TIP3    H234143   2.211   3.069   1.006  0.1060  0.2344 -0.7700
 4194TIP3   OH234144   3.724   2.547   6.549  0.5519 -0.5070  0.0466
 4194TIP3    H134145   3.754   2.475   6.605  1.2053 -0.0832  0.2590
 4194TIP3    H234146   3.629   2.542   6.553  0.4095  1.3282  3.6771
 4195TIP3   OH234147   5.650   0.811   2.552 -0.3289  0.3475 -0.3035
 4195TIP3    H134148   5.581   0.839   2.492 -0.3136  0.4136 -0.2901
 4195TIP3    H234149   5.705   0.888   2.564  0.9906 -0.2783 -1.9947
 4196TIP3   OH234150   0.199   1.083   6.886 -0.0184  0.0572 -0.4511
 4196TIP3    H134151   0.137   1.110   6.819 -0.4871 -0.7622 -0.3658
 4196TIP3    H234152   0.147   1.030   6.947  0.6064 -0.0301  0.0170
 4197TIP3   OH234153   3.205   6.418   7.554 -0.4360 -0.2550  0.5126
 4197TIP3    H134154   3.118   6.411   7.514  0.3489 -0.0941 -1.3133
 4197TIP3    H234155   3.201   6.497   7.607 -1.3296 -0.1268  0.2720
 4198TIP3   OH234156   6.745   0.314   2.603  0.3072 -0.0204  0.4668
 4198TIP3    H134157   6.753   0.390   2.661  0.8019  0.1755  0.1568
 4198TIP3    H234158   6.810   0.330   2.534  1.8785 -1.6766  1.4610
 4199TIP3   OH234159   6.518   2.262   8.810 -0.2832  0.0591  0.1862
 4199TIP3    H134160   6.499   2.346   8.767 -1.7758 -0.5351 -0.3640
 4199TIP3    H234161   6.613   2.261   8.817  0.0046  0.5328 -2.4185
 4200TIP3   OH234162   0.127   3.143   1.130 -0.1076 -0.3118  0.0280
 4200TIP3    H134163   0.209   3.162   1.084 -1.0819 -2.2553 -2.8020
 4200TIP3    H234164   0.122   3.210   1.199  2.8563  1.0699 -0.9190
 4201TIP3   OH234165   4.021   1.193   7.109  0.6731  0.3925  0.8238
 4201TIP3    H134166   4.028   1.242   7.028 -2.1912  2.1125  1.4645
 4201TIP3    H234167   4.103   1.210   7.155  1.8153  0.4045 -1.1177
 4202TIP3   OH234168   2.038   1.667   7.041  0.4001  0.2245  0.1768
 4202TIP3    H134169   2.063   1.724   6.968 -0.0214 -0.3551 -0.4303
 4202TIP3    H234170   2.103   1.597   7.040  0.7356  0.5205  0.7294
 4203TIP3   OH234171   4.365   6.210   8.246  0.2786  0.0167 -0.1715
 4203TIP3    H134172   4.320   6.293   8.231 -2.6096 -1.4888 -0.5563
 4203TIP3    H234173   4.367   6.201   8.342 -1.2615 -0.3230 -0.1375
 4204TIP3   OH234174   6.700   2.045   6.453 -0.3692  0.5107 -0.0759
 4204TIP3    H134175   6.632   2.109   6.437 -0.0940  0.7687 -0.2159
 4204TIP3    H234176   6.671   1.966   6.407  0.0778  1.0279 -1.2733
 4205TIP3   OH234177   0.436   4.758   8.257 -0.4608  0.6592  0.3594
 4205TIP3    H134178   0.487   4.838   8.242  0.9201 -0.1064  0.7285
 4205TIP3    H234179   0.385   4.776   8.336  1.3421  0.5296  1.6286
 4206TIP3   OH234180   1.364   2.946   1.700  0.0877  0.1498 -0.1142
 4206TIP3    H134181   1.406   3.031   1.711 -0.2216  0.4292 -0.9725
 4206TIP3    H234182   1.303   2.959   1.627 -0.2910 -0.6853  0.0425
 4207TIP3   OH234183   2.340   3.154   8.291  0.2713  0.0207 -0.2251
 4207TIP3    H134184   2.245   3.144   8.302  0.2451  1.0713  0.7347
 4207TIP3    H234185   2.366   3.078   8.239 -0.9239 -0.8787  0.4246
 4208TIP3   OH234186   4.710   4.467   6.639  0.0046  0.1480  0.0185
 4208TIP3    H134187   4.764   4.546   6.640  1.1477 -0.6077 -0.4221
 4208TIP3    H234188   4.701   4.445   6.546 -0.7634  0.0584  0.1060
 4209TIP3   OH234189   6.720   0.849   8.802  0.4705 -0.5748  0.2457
 4209TIP3    H134190   6.813   0.859   8.825  1.0129 -2.3669 -0.9516
 4209TIP3    H234191   6.721   0.833   8.707 -1.3710  2.7238 -0.4697
 4210TIP3   OH234192   2.877   0.802   0.425 -0.0872  0.0881 -0.3974
 4210TIP3    H134193   2.917   0.739   0.484 -2.7074  0.8228  2.4406
 4210TIP3    H234194   2.910   0.887   0.455 -0.4959  0.4015 -0.8244
 4211TIP3   OH234195   0.304   4.411   7.422 -0.1408  0.1891 -0.4090
 4211TIP3    H134196   0.225   4.458   7.447 -0.9085  0.0952 -2.5352
 4211TIP3    H234197   0.298   4.328   7.471 -1.4345  0.1174 -0.6595
 4212TIP3   OH234198   3.997   0.352   7.791 -0.5533 -0.6197  0.4470
 4212TIP3    H134199   4.089   0.347   7.818 -0.2612  0.4020 -0.3190
 4212TIP3    H234200   3.994   0.307   7.707 -0.6804 -0.3724  0.3166
 4213TIP3   OH234201   4.445   0.161   1.306  0.0800 -0.0991  0.1432
 4213TIP3    H134202   4.470   0.155   1.214  0.4338  0.4085  0.2053
 4213TIP3    H234203   4.353   0.188   1.304  0.6852  2.2075 -0.0714
 4214TIP3   OH234204   2.389   0.809   7.777 -0.4846  0.3315 -0.4988
 4214TIP3    H134205   2.438   0.880   7.818 -0.6138 -0.4837  1.1875
 4214TIP3    H234206   2.303   0.812   7.818 -0.2941 -1.1492  0.1126
 4215TIP3   OH234207   4.823   0.437   7.641 -0.2378 -0.1913 -0.7570
 4215TIP3    H134208   4.824   0.342   7.634 -1.9491 -0.3146  0.1560
 4215TIP3    H234209   4.847   0.468   7.554 -0.4237 -1.4626 -1.2757
 4216TIP3   OH234210   4.347   1.640   0.200  0.0600 -0.0403  0.5927
 4216TIP3    H134211   4.300   1.685   0.129  0.3949 -0.5285  0.0464
 4216TIP3    H234212   4.279   1.620   0.265  0.0074  1.8085  1.1605
 4217TIP3   OH234213   4.379   6.534   0.783  0.2235 -0.0142  0.2470
 4217TIP3    H134214   4.449   6.492   0.733  0.2828  1.5358 -1.0451
 4217TIP3    H234215   4.425   6.574   0.858  0.6032  0.2520 -0.1216
 4218TIP3   OH234216   5.856   3.465   0.506 -0.0536 -0.4413  0.4337
 4218TIP3    H134217   5.773   3.473   0.459 -0.5657 -2.0153  1.0073
 4218TIP3    H234218   5.842   3.393   0.568  1.7058 -0.6728  0.6128
 4219TIP3   OH234219   3.920   5.736   1.731 -0.1382 -0.0507  0.0685
 4219TIP3    H134220   3.837   5.702   1.764  0.5876 -0.6249  1.4099
 4219TIP3    H234221   3.903   5.828   1.714 -0.9691 -0.0832  0.6439
 4220TIP3   OH234222   3.109   3.949   6.753 -0.2232 -0.3922  0.1152
 4220TIP3    H134223   3.188   3.980   6.709 -1.1041 -0.2272 -1.4072
 4220TIP3    H234224   3.063   3.898   6.686 -1.5922 -0.1579  0.8533
 4221TIP3   OH234225   6.721   0.618   6.226  0.1858 -0.1516 -0.0028
 4221TIP3    H134226   6.726   0.609   6.321  0.5182 -1.5470 -0.1278
 4221TIP3    H234227   6.789   0.681   6.203  0.1503  0.1311  0.6713
 4222TIP3   OH234228   4.827   1.990   7.626  0.0184  0.3141  0.2407
 4222TIP3    H134229   4.829   2.054   7.697 -1.4416 -0.6074  1.1685
 4222TIP3    H234230   4.881   1.918   7.658 -0.2145  0.1202  0.2002
 4223TIP3   OH234231   1.656   4.458   7.496 -0.2177 -0.8026  0.4464
 4223TIP3    H134232   1.566   4.475   7.524 -0.8896  0.1076 -2.0254
 4223TIP3    H234233   1.668   4.512   7.418  3.1754  0.6873  1.7629
 4224TIP3   OH234234   0.847   4.460   7.259  0.0753 -0.0401 -0.3015
 4224TIP3    H134235   0.842   4.555   7.246 -0.1438 -0.1870 -1.3771
 4224TIP3    H234236   0.758   4.429   7.241  0.5519 -0.6380 -1.7967
 4225TIP3   OH234237   0.598   4.667   1.348 -0.1423 -0.7513 -0.0583
 4225TIP3    H134238   0.674   4.669   1.290  0.0137  1.0374  0.1481
 4225TIP3    H234239   0.590   4.757   1.380 -1.2836 -1.3049  1.3192
 4226TIP3   OH234240   1.598   4.750   0.315 -0.1812  0.5135  0.3144
 4226TIP3    H134241   1.543   4.788   0.247 -0.0222 -0.0411 -0.1331
 4226TIP3    H234242   1.578   4.656   0.311  1.5033  0.1566 -0.5165
 4227TIP3   OH234243   6.129   5.550   8.571 -0.0697 -0.2254 -0.3485
 4227TIP3    H134244   6.110   5.624   8.513 -1.1577 -0.4617 -0.3154
 4227TIP3    H234245   6.112   5.473   8.516 -0.2546 -0.4468  0.0195
 4228TIP3   OH234246   2.616   0.085   6.808  0.6415  0.6600 -0.5347
 4228TIP3    H134247   2.589   0.108   6.719 -0.5385 -0.0237 -0.3828
 4228TIP3    H234248   2.639  -0.008   6.803  0.1701  0.5128 -0.0473
 4229TIP3   OH234249   4.054   2.438   1.523  0.0252 -0.4018 -0.5045
 4229TIP3    H134250   3.992   2.367   1.539  0.3425 -0.2415  1.6438
 4229TIP3    H234251   4.006   2.518   1.544 -0.1012  0.0223 -2.2280
 4230TIP3   OH234252   0.902   3.194   7.000  0.0180 -0.1864 -0.8641
 4230TIP3    H134253   0.960   3.119   6.983 -0.2733 -0.4168 -0.8629
 4230TIP3    H234254   0.884   3.231   6.913  0.4803  0.1266 -0.8285
 4231TIP3   OH234255   0.134   0.549   7.655  0.2941  0.9814  0.7538
 4231TIP3    H134256   0.100   0.615   7.715 -0.3293  0.9012  0.4894
 4231TIP3    H234257   0.068   0.480   7.655 -0.1188  1.3577 -0.6683
 4232TIP3   OH234258   5.883   5.784   0.461 -0.8869  0.3507  0.1253
 4232TIP3    H134259   5.838   5.745   0.386 -0.5441 -0.2852  0.2454
 4232TIP3    H234260   5.861   5.877   0.456 -0.4590  0.4013 -1.0524
 4233TIP3   OH234261   2.772   5.539   1.329  0.7571  0.5223  0.3043
 4233TIP3    H134262   2.820   5.498   1.401 -0.0676 -0.3934  0.3521
 4233TIP3    H234263   2.840   5.565   1.267  1.4209  0.6225  1.0548
 4234TIP3   OH234264   2.088   2.021   6.693  0.1096 -0.0914  0.0767
 4234TIP3    H134265   2.098   2.069   6.611  0.5916 -0.4863 -0.1007
 4234TIP3    H234266   2.057   2.086   6.756 -1.8801 -0.1193 -0.8033
 4235TIP3   OH234267   3.782   1.424   7.804  0.1401 -0.5233  0.3765
 4235TIP3    H134268   3.864   1.419   7.756  0.2525 -1.8902  0.6894
 4235TIP3    H234269   3.741   1.339   7.792 -1.8235  0.4963 -0.7543
 4236TIP3   OH234270   0.486   1.737   1.563  0.2780 -0.1766 -0.0939
 4236TIP3    H134271   0.440   1.659   1.533 -1.0499  0.9162 -1.0224
 4236TIP3    H234272   0.517   1.779   1.483 -0.2734  0.9778  0.2760
 4237TIP3   OH234273   2.349   3.094   8.627 -0.5526  0.4195  0.7040
 4237TIP3    H134274   2.386   3.179   8.653  2.3653 -0.6506  0.3250
 4237TIP3    H234275   2.328   3.105   8.534  0.6297  0.4774  0.4350
 4238TIP3   OH234276   3.653   1.286   1.688 -0.1931  0.0578  0.6059
 4238TIP3    H134277   3.568   1.326   1.708 -0.1394  0.2101  0.5325
 4238TIP3    H234278   3.712   1.322   1.754 -0.3974 -0.8317  1.2917
 4239TIP3   OH234279   2.572   5.047   7.778 -0.1220  0.5810 -0.4569
 4239TIP3    H134280   2.585   5.103   7.855 -6.6221  3.0233 -0.5512
 4239TIP3    H234281   2.621   5.090   7.708  0.1299  2.5214  0.8369
 4240TIP3   OH234282   5.225   6.605   1.601  0.0973 -0.6055  0.0472
 4240TIP3    H134283   5.320   6.619   1.608 -0.1230  0.5392  1.1168
 4240TIP3    H234284   5.210   6.522   1.645  0.3538  0.3399  2.0220
 4241TIP3   OH234285   0.118   1.380   1.236 -0.2836 -0.6947  0.2967
 4241TIP3    H134286   0.023   1.379   1.249 -0.2422  0.1573  0.7377
 4241TIP3    H234287   0.133   1.450   1.173 -0.0138 -1.4075 -0.4476
 4242TIP3   OH234288   0.622   1.958   2.206 -0.4725 -0.7192  0.3292
 4242TIP3    H134289   0.566   1.964   2.129 -1.9933  0.5469  1.4778
 4242TIP3    H234290   0.592   1.879   2.251 -0.3364 -0.8351  0.2211
 4243TIP3   OH234291   4.749   1.028   7.859  0.2293  0.1425 -0.6819
 4243TIP3    H134292   4.700   0.972   7.798  0.9937 -1.0359 -0.2625
 4243TIP3    H234293   4.803   0.966   7.908  1.5035  1.3205 -0.5592
 4244TIP3   OH234294   2.326   1.433   8.619  0.2651  0.7471 -0.1878
 4244TIP3    H134295   2.338   1.347   8.658  4.2816  0.6758 -1.1736
 4244TIP3    H234296   2.328   1.494   8.693  2.5322  0.2629  0.2203
 4245TIP3   OH234297   1.037   5.463   0.334 -0.2018  0.6331 -0.3320
 4245TIP3    H134298   0.995   5.514   0.264  0.4180 -0.2162 -1.3708
 4245TIP3    H234299   0.964   5.425   0.383 -0.6853  2.6173  0.5885
 4246TIP3   OH234300   0.007   5.982   1.157 -0.8497  0.3400 -0.0683
 4246TIP3    H134301  -0.040   6.039   1.096 -0.1151 -0.4940 -1.4464
 4246TIP3    H234302  -0.053   5.909   1.172 -0.7830  0.2489 -0.2535
 4247TIP3   OH234303   4.261   4.355   2.512  0.1642  0.8858 -0.2866
 4247TIP3    H134304   4.281   4.343   2.419  0.2187  0.5272 -0.2296
 4247TIP3    H234305   4.311   4.286   2.557  1.2999  1.9459  0.1471
 4248TIP3   OH234306   4.220   5.029   7.838 -0.1259 -0.0462  0.1555
 4248TIP3    H134307   4.260   5.106   7.879 -1.8909 -0.1688  2.3030
 4248TIP3    H234308   4.269   4.955   7.875 -1.0290 -0.1029  1.2994
 4249TIP3   OH234309   0.925   1.687   0.016 -0.4474 -0.0600 -0.1133
 4249TIP3    H134310   0.923   1.662  -0.076 -2.3398 -0.2613 -0.0417
 4249TIP3    H234311   1.001   1.745   0.023 -1.3604  1.5371 -2.2351
 4250TIP3   OH234312   1.141   6.030   1.328  0.1739  0.3472  0.6387
 4250TIP3    H134313   1.226   6.004   1.365  0.5078 -0.5287 -0.6648
 4250TIP3    H234314   1.081   6.031   1.402  1.3928  1.3804  1.6649
 4251TIP3   OH234315   0.270   5.407   1.244  0.1791  0.7676 -0.2274
 4251TIP3    H134316   0.306   5.326   1.278  1.1198  1.5378  0.6744
 4251TIP3    H234317   0.281   5.401   1.149 -0.1951 -0.3436 -0.2091
 4252TIP3   OH234318   3.354   4.967   1.599 -0.2833  0.2837  0.2015
 4252TIP3    H134319   3.352   5.063   1.600  1.1682  0.3580  1.9209
 4252TIP3    H234320   3.408   4.944   1.675  0.3905 -1.8669 -0.8664
 4253TIP3   OH234321   6.321   2.286   6.966  0.3032 -0.7424 -0.1509
 4253TIP3    H134322   6.340   2.328   7.050  1.5839  0.7033 -1.0988
 4253TIP3    H234323   6.396   2.229   6.950  1.4079  0.9365 -1.4298
 4254TIP3   OH234324   6.794   0.621   1.450 -0.1563  0.4626 -0.2066
 4254TIP3    H134325   6.768   0.701   1.404  0.7138  0.4952 -0.6530
 4254TIP3    H234326   6.847   0.572   1.387  0.2887  0.0749  0.4485
 4255TIP3   OH234327   3.766   3.015   8.506  0.1430  0.3822 -0.1298
 4255TIP3    H134328   3.782   3.070   8.582  1.2291 -0.6438  0.4114
 4255TIP3    H234329   3.674   2.991   8.512 -0.1905  1.6285 -0.0546
 4256TIP3   OH234330   4.467   3.829   6.541 -0.3287  0.1322 -0.1923
 4256TIP3    H134331   4.418   3.840   6.459 -1.5223 -1.6143  0.2285
 4256TIP3    H234332   4.550   3.790   6.514 -1.5007 -2.3434 -0.4750
 4257TIP3   OH234333   6.213   3.068   1.498 -0.1168 -0.6336 -0.0968
 4257TIP3    H134334   6.160   2.988   1.501 -1.4473  0.2417  1.0456
 4257TIP3    H234335   6.243   3.080   1.588 -0.4305  0.4623 -0.1285
 4258TIP3   OH234336   0.634   3.784   1.404 -0.4211 -0.1119  0.6867
 4258TIP3    H134337   0.647   3.852   1.338 -2.3190  0.1339  0.5064
 4258TIP3    H234338   0.601   3.831   1.481 -1.1474 -0.7559  0.7734
 4259TIP3   OH234339   5.875   0.533   7.750  0.0817  0.2674  0.7130
 4259TIP3    H134340   5.834   0.482   7.680  0.4512 -0.8548  1.2993
 4259TIP3    H234341   5.801   0.568   7.799 -0.1767  0.1003  0.4519
 4260TIP3   OH234342   3.437   5.018   0.630  0.2919  0.2581 -0.5395
 4260TIP3    H134343   3.378   5.002   0.704 -1.4167  0.5610 -1.7690
 4260TIP3    H234344   3.491   4.939   0.625  1.0302  0.5691  1.4947
 4261TIP3   OH234345   6.716   4.729   1.660 -0.9172 -0.0162 -0.8002
 4261TIP3    H134346   6.748   4.698   1.744 -0.2547 -0.6961 -1.2857
 4261TIP3    H234347   6.792   4.726   1.602 -1.1746  1.1657 -1.2468
 4262TIP3   OH234348   6.040   5.738   1.515  0.9630 -0.9194  0.1643
 4262TIP3    H134349   6.113   5.755   1.574  1.4035 -2.4478  0.0894
 4262TIP3    H234350   6.079   5.739   1.427  0.8656 -1.4899  0.1073
 4263TIP3   OH234351   6.551   0.689   6.649 -0.3129  0.6626 -0.0974
 4263TIP3    H134352   6.547   0.716   6.557  0.1043 -1.1131 -0.6766
 4263TIP3    H234353   6.475   0.731   6.689  0.0060  2.2102 -1.0243
 4264TIP3   OH234354   3.019   6.476   0.523 -0.2773 -0.0881 -0.4705
 4264TIP3    H134355   2.997   6.531   0.597  0.1270 -0.9401  0.3033
 4264TIP3    H234356   2.964   6.399   0.533  0.3375 -0.5543 -0.6178
 4265TIP3   OH234357   5.072   1.337   7.641  0.0984  0.0822  0.3092
 4265TIP3    H134358   4.990   1.376   7.612 -0.2647 -0.8387  0.0608
 4265TIP3    H234359   5.046   1.261   7.694  0.7643 -0.8069 -0.5799
 4266TIP3   OH234360   0.926   6.552   0.461  0.3735  0.2383 -0.6494
 4266TIP3    H134361   0.982   6.525   0.535 -2.1177 -1.3013  0.8189
 4266TIP3    H234362   0.921   6.474   0.405 -0.8926  0.0622 -0.3276
 4267TIP3   OH234363   0.914   2.416   0.182 -0.5724  0.0558  0.4525
 4267TIP3    H134364   0.868   2.474   0.122 -1.5901 -1.3735 -0.2060
 4267TIP3    H234365   0.924   2.468   0.262 -0.4400  1.5010 -0.4645
 4268TIP3   OH234366   4.898   2.637   1.367 -0.0896  0.3466 -0.6327
 4268TIP3    H134367   4.964   2.571   1.389  0.1640  1.2108  1.5014
 4268TIP3    H234368   4.822   2.614   1.420 -0.3870  1.1127 -0.7173
 4269TIP3   OH234369   1.990   4.576   1.529 -0.5650 -0.1427 -0.7338
 4269TIP3    H134370   2.056   4.566   1.598 -0.4657 -0.3645 -0.8633
 4269TIP3    H234371   1.979   4.489   1.493 -1.7422 -0.3460  0.0321
 4270TIP3   OH234372   5.707   1.279   6.945  0.5855 -0.0207 -0.5122
 4270TIP3    H134373   5.755   1.280   7.027  0.1704 -1.4032 -0.2278
 4270TIP3    H234374   5.618   1.254   6.970  0.9222 -2.6195 -1.5584
 4271TIP3   OH234375   2.822   3.299   8.821  0.1446 -0.5451 -0.2680
 4271TIP3    H134376   2.789   3.216   8.857 -0.1510  0.0348  0.8419
 4271TIP3    H234377   2.803   3.364   8.889 -0.8424  0.6963 -1.6538
 4272TIP3   OH234378   0.343   1.596   7.374 -0.2593  0.6112 -0.0148
 4272TIP3    H134379   0.298   1.518   7.342 -1.2124  0.9015  0.5588
 4272TIP3    H234380   0.420   1.563   7.419 -1.1775 -0.0962  1.1049
 4273TIP3   OH234381   6.818   2.638   0.912 -0.0089  0.4589 -0.2193
 4273TIP3    H134382   6.889   2.597   0.863 -0.1664  1.3111 -1.1983
 4273TIP3    H234383   6.852   2.650   1.001 -0.4446 -3.0683  0.5534
 4274TIP3   OH234384   5.622   6.003   8.079 -0.1028  0.6302  0.1453
 4274TIP3    H134385   5.684   5.935   8.051  0.1220  0.2133  1.5753
 4274TIP3    H234386   5.549   5.996   8.018 -0.4824 -1.5006  0.7585
 4275TIP3   OH234387   3.717   2.392   7.183 -0.4231 -0.0842  0.2569
 4275TIP3    H134388   3.798   2.375   7.135 -0.5732  2.1841 -0.9366
 4275TIP3    H234389   3.726   2.483   7.214 -1.5462 -0.5558  2.1542
 4276TIP3   OH234390   3.723   3.335   0.130 -0.4339 -0.3594 -0.3928
 4276TIP3    H134391   3.792   3.352   0.194  1.4841 -1.0492 -2.1821
 4276TIP3    H234392   3.642   3.360   0.175  0.7246 -1.4445  2.5047
 4277TIP3   OH234393   5.707   2.326   8.390  0.1392  0.5446  0.5732
 4277TIP3    H134394   5.705   2.253   8.328  1.3951  2.4470 -1.8989
 4277TIP3    H234395   5.619   2.327   8.428 -1.0843 -0.1212 -1.9962
 4278TIP3   OH234396   3.730   4.417   7.666 -0.1539  0.0347 -0.1765
 4278TIP3    H134397   3.691   4.434   7.581 -0.9163  0.5342  0.2583
 4278TIP3    H234398   3.717   4.498   7.716 -1.0763 -0.7418  0.9052
 4279TIP3   OH234399   5.697   3.153   0.377  0.1902  0.2002  0.0417
 4279TIP3    H134400   5.737   3.076   0.418 -0.0220  0.0901  0.0408
 4279TIP3    H234401   5.607   3.126   0.357  0.5187 -0.0340 -1.2515
 4280TIP3   OH234402   5.011   0.096   0.179  0.3922 -0.0151 -0.6133
 4280TIP3    H134403   4.962   0.163   0.225  1.0639 -0.2192  0.4361
 4280TIP3    H234404   4.983   0.103   0.088  0.5311  1.7484 -0.5471
 4281TIP3   OH234405   6.151   3.552   2.308 -0.1960 -0.1603  0.0397
 4281TIP3    H134406   6.120   3.584   2.392  0.9348 -0.6823  0.6758
 4281TIP3    H234407   6.193   3.469   2.328 -1.9378 -1.4498 -1.3880
 4282TIP3   OH234408   4.814   5.249   1.105  0.3893 -0.5162 -0.0841
 4282TIP3    H134409   4.830   5.200   1.024  1.9110 -0.2436  0.0289
 4282TIP3    H234410   4.888   5.228   1.161  0.4747  1.0134  0.4142
 4283TIP3   OH234411   0.050   6.801   0.666 -0.0181 -0.3692  0.0680
 4283TIP3    H134412  -0.032   6.850   0.670 -0.1700 -0.6905  1.5058
 4283TIP3    H234413   0.087   6.822   0.581 -0.7849  1.0939  0.0737
 4284TIP3   OH234414   0.303   5.498   1.667  0.1176  1.0747 -0.0124
 4284TIP3    H134415   0.398   5.492   1.666  0.0758  0.3025  0.0722
 4284TIP3    H234416   0.281   5.554   1.592  0.6480  1.4875  0.1381
 4285TIP3   OH234417   0.587   0.159   2.709 -0.8899  0.4914  0.2837
 4285TIP3    H134418   0.621   0.099   2.643  2.5295  1.6252  0.7759
 4285TIP3    H234419   0.516   0.206   2.666 -0.9472 -1.0551 -1.4173
 4286TIP3   OH234420   2.380   6.695   1.521  0.4184  0.0773  0.0145
 4286TIP3    H134421   2.418   6.607   1.517  0.5463  0.1537 -0.4440
 4286TIP3    H234422   2.430   6.738   1.591  1.6735  0.4038 -1.0493
 4287TIP3   OH234423   1.412   2.389   6.741  0.0524  0.2133  0.0187
 4287TIP3    H134424   1.489   2.359   6.790 -0.7409 -0.6780  0.7583
 4287TIP3    H234425   1.346   2.405   6.808 -1.3195 -1.7833 -0.7560
 4288TIP3   OH234426   1.368   4.794   0.150  0.1457  0.2622  0.3070
 4288TIP3    H134427   1.353   4.706   0.115 -2.4301  0.2549  1.1909
 4288TIP3    H234428   1.312   4.851   0.097 -0.5645  0.8741  1.6694
 4289TIP3   OH234429   3.328   3.116   0.657  0.1515 -0.8000  0.2778
 4289TIP3    H134430   3.356   3.088   0.570 -1.5251  0.7586 -0.8497
 4289TIP3    H234431   3.232   3.118   0.652  0.0546  0.2760  1.8136
 4290TIP3   OH234432   4.323   0.388   7.409 -0.2595  0.4233  0.4179
 4290TIP3    H134433   4.311   0.293   7.417  0.5927  0.3575  1.0864
 4290TIP3    H234434   4.331   0.403   7.315  0.2962 -0.2608  0.3502
 4291TIP3   OH234435   4.102   3.402   0.756  0.1482 -0.9190  0.9302
 4291TIP3    H134436   4.121   3.388   0.663  0.4362  0.1917  0.8131
 4291TIP3    H234437   4.149   3.482   0.778 -0.6213 -0.7007  1.8163
 4292TIP3   OH234438   4.735   0.025   0.930  0.1131  0.5230 -0.4105
 4292TIP3    H134439   4.820   0.064   0.947 -0.4115  0.9514  1.4297
 4292TIP3    H234440   4.673   0.098   0.937 -0.3748  0.3962 -2.5679
 4293TIP3   OH234441   6.656   1.908   7.424 -0.0558  0.1109  0.4465
 4293TIP3    H134442   6.658   1.837   7.488  1.4938  1.1735  1.6613
 4293TIP3    H234443   6.745   1.909   7.388 -0.8281 -0.2952 -1.5640
 4294TIP3   OH234444   3.812   5.902   2.363  0.2285 -0.3414  0.3553
 4294TIP3    H134445   3.876   5.970   2.342 -0.1920  0.2816  1.0174
 4294TIP3    H234446   3.735   5.951   2.394  0.2083 -1.1329  1.6223
 4295TIP3   OH234447   2.903   2.262   7.281  0.0373  0.5563  0.1685
 4295TIP3    H134448   2.816   2.300   7.282 -1.1206 -1.8765  2.4132
 4295TIP3    H234449   2.921   2.247   7.188 -3.2284 -1.4702 -0.2904
 4296TIP3   OH234450   3.672   5.276   1.541  0.3055  0.2660 -0.0541
 4296TIP3    H134451   3.679   5.209   1.609 -2.4734 -0.3665 -0.2749
 4296TIP3    H234452   3.663   5.227   1.459  1.6721  0.9956 -0.6798
 4297TIP3   OH234453   5.197   5.819   7.996 -0.0077  0.0087 -0.4610
 4297TIP3    H134454   5.277   5.795   7.948  0.2989 -1.3204  0.6417
 4297TIP3    H234455   5.195   5.759   8.070 -1.6559  0.5257 -0.0463
 4298TIP3   OH234456   5.154   6.101   1.815 -0.3584  0.4202  0.0228
 4298TIP3    H134457   5.174   6.129   1.904  0.7427  0.6622 -0.2904
 4298TIP3    H234458   5.220   6.034   1.796 -0.4608  0.5195 -0.6906
 4299TIP3   OH234459   3.277   6.447   0.659 -0.3205 -0.0065 -0.1767
 4299TIP3    H134460   3.218   6.428   0.586 -0.2783 -0.0038 -0.2107
 4299TIP3    H234461   3.218   6.461   0.734 -0.4816  1.7205 -0.5790
 4300TIP3   OH234462   4.650   6.657   0.491  0.1326 -0.0060  0.7383
 4300TIP3    H134463   4.714   6.667   0.562 -0.1022 -0.4567  1.0192
 4300TIP3    H234464   4.619   6.746   0.473  1.4621  0.3402  0.0090
 4301TIP3   OH234465   5.531   0.884   7.992 -0.1709 -0.0758 -0.1734
 4301TIP3    H134466   5.548   0.854   7.903  0.8964  0.5301 -0.1957
 4301TIP3    H234467   5.612   0.928   8.018 -0.3774 -0.4545  1.1858
 4302TIP3   OH234468   0.160   3.682   6.381  1.0829 -0.2256  0.0768
 4302TIP3    H134469   0.225   3.733   6.333  1.0085 -0.7792 -0.6368
 4302TIP3    H234470   0.088   3.743   6.398  1.0264 -0.0636 -0.7003
 4303TIP3   OH234471   6.301   3.116   0.135 -0.8339  0.0069  0.1645
 4303TIP3    H134472   6.310   3.023   0.157  1.1767  0.1636  0.1858
 4303TIP3    H234473   6.207   3.127   0.117 -1.1135 -2.0277  0.0760
 4304TIP3   OH234474   0.475   6.648   2.043  0.2148 -0.8309 -0.3144
 4304TIP3    H134475   0.535   6.672   2.114  0.4601 -1.2620 -0.3716
 4304TIP3    H234476   0.446   6.559   2.066 -1.7298 -0.0275  0.6271
 4305TIP3   OH234477   6.792   6.245   0.330 -0.1458  0.2589 -0.0120
 4305TIP3    H134478   6.883   6.227   0.351  0.1040  1.7701  0.2970
 4305TIP3    H234479   6.767   6.175   0.269  1.0178 -0.5157  0.3621
 4306TIP3   OH234480   4.263   0.998   6.824  0.2980  0.2293  0.0161
 4306TIP3    H134481   4.286   0.970   6.913  1.4073 -0.9663 -0.5927
 4306TIP3    H234482   4.339   0.972   6.771  0.3950  2.4214 -1.0345
 4307TIP3   OH234483   2.729   4.155   8.784 -0.1281  0.2715  0.0632
 4307TIP3    H134484   2.653   4.097   8.775 -1.2559  1.6607  0.1406
 4307TIP3    H234485   2.803   4.096   8.795 -0.9494 -1.1770 -1.6679
 4308TIP3   OH234486   5.670   6.378   1.150  0.4091  0.1706  0.1278
 4308TIP3    H134487   5.743   6.317   1.157 -1.5052 -2.2492  0.4047
 4308TIP3    H234488   5.595   6.323   1.127 -1.2280  2.6106 -0.7244
 4309TIP3   OH234489   1.294   2.146   8.324 -1.0956 -0.1025  0.1663
 4309TIP3    H134490   1.216   2.132   8.269 -0.8831 -0.7341  0.0132
 4309TIP3    H234491   1.260   2.155   8.413 -1.3235 -0.7209  0.1458
 4310TIP3   OH234492   5.579   6.224   8.522  0.1169  0.0557  0.1888
 4310TIP3    H134493   5.571   6.313   8.558 -0.3493 -0.4665  1.4608
 4310TIP3    H234494   5.510   6.219   8.456 -0.2698  0.4487  0.5523
 4311TIP3   OH234495   1.020   3.266   8.673 -0.1330 -0.3855  0.4299
 4311TIP3    H134496   0.958   3.337   8.653 -1.0963 -1.2530  0.2376
 4311TIP3    H234497   1.011   3.252   8.767 -0.1527 -0.4489  0.4181
 4312TIP3   OH234498   5.457   1.026   8.448 -0.0622  0.5495 -0.3301
 4312TIP3    H134499   5.512   0.968   8.395  0.5575  0.8776 -0.0554
 4312TIP3    H234500   5.410   1.079   8.384 -0.4678 -0.0973 -0.5783
 4313TIP3   OH234501   0.628   4.669   1.746  0.0088 -0.1194  0.2606
 4313TIP3    H134502   0.706   4.695   1.795  0.0913  0.6544 -0.2679
 4313TIP3    H234503   0.554   4.700   1.800  0.1045  1.1725 -0.3221
 4314TIP3   OH234504   0.173   1.947   7.016  0.4251 -0.0668 -0.2171
 4314TIP3    H134505   0.176   1.972   6.924 -1.2473  0.2022 -0.2276
 4314TIP3    H234506   0.183   1.851   7.015  0.9806 -0.0101 -0.6169
 4315TIP3   OH234507   3.588   0.998   7.968 -0.4247 -0.6026 -0.0480
 4315TIP3    H134508   3.582   0.902   7.959 -2.0490 -0.4365 -1.0850
 4315TIP3    H234509   3.498   1.026   7.986  0.3491  0.5758  2.4341
 4316TIP3   OH234510   2.087   1.519   0.732 -0.0528  0.3231  0.0497
 4316TIP3    H134511   2.145   1.596   0.732  2.3535 -1.3266  1.7129
 4316TIP3    H234512   2.055   1.512   0.642  0.7406  2.4683 -0.4600
 4317TIP3   OH234513   1.644   4.513   0.533 -0.4328  0.1071  0.2001
 4317TIP3    H134514   1.573   4.536   0.472  0.2177  1.9250  0.0708
 4317TIP3    H234515   1.716   4.484   0.476 -0.6268 -0.5010  0.2581
 4318TIP3   OH234516   1.495   5.573   8.391 -0.0915  0.2308  0.1067
 4318TIP3    H134517   1.482   5.499   8.450  1.2133 -0.4423 -0.4022
 4318TIP3    H234518   1.583   5.604   8.412  0.6145 -0.3592 -1.8186
 4319TIP3   OH234519   1.736   6.238   0.931 -0.3954 -0.0722 -0.4626
 4319TIP3    H134520   1.746   6.189   1.012 -2.3616  1.6017  0.8899
 4319TIP3    H234521   1.647   6.219   0.902 -0.7730  1.7086 -0.5601
 4320TIP3   OH234522   1.393   3.432   0.238  0.5699 -0.2661 -0.3468
 4320TIP3    H134523   1.488   3.445   0.244  0.3714  1.4595 -0.4264
 4320TIP3    H234524   1.379   3.399   0.150  1.1145 -0.8444 -0.2260
 4321TIP3   OH234525   4.025   2.358   6.654 -0.3292 -0.0613 -0.4550
 4321TIP3    H134526   4.058   2.383   6.568  0.2792  0.6990 -0.0073
 4321TIP3    H234527   3.935   2.327   6.636  0.1186 -0.8539 -1.4801
 4322TIP3   OH234528   1.785   4.705   7.749  0.0633 -0.0812 -0.3005
 4322TIP3    H134529   1.770   4.735   7.659  0.5818 -1.2270 -0.7805
 4322TIP3    H234530   1.725   4.631   7.759 -0.8199  0.7329  0.7004
 4323TIP3   OH234531   5.497   5.763   7.712  0.5379 -0.0758  0.2901
 4323TIP3    H134532   5.559   5.804   7.653  1.1476 -0.6016  0.5572
 4323TIP3    H234533   5.551   5.714   7.774 -0.0853  0.5107  1.3207
 4324TIP3   OH234534   5.268   4.755   0.597 -0.1915  0.1770  0.1970
 4324TIP3    H134535   5.291   4.846   0.578 -0.6797  0.5281  1.2320
 4324TIP3    H234536   5.338   4.724   0.654  0.6127 -0.4915 -1.0955
 4325TIP3   OH234537   1.844   4.078   0.590  0.2219 -0.3149 -0.1258
 4325TIP3    H134538   1.876   4.039   0.671 -1.8797 -2.0075 -0.0075
 4325TIP3    H234539   1.785   4.148   0.620  0.7360  0.1621 -0.2324
 4326TIP3   OH234540   3.924   0.859   8.459 -0.0543  0.2563  0.3968
 4326TIP3    H134541   3.835   0.833   8.482  0.5135 -1.6490  0.6389
 4326TIP3    H234542   3.921   0.874   8.365 -0.9959  1.9612  0.6609
 4327TIP3   OH234543   1.893   3.705   6.167  0.2823 -0.7234  0.2287
 4327TIP3    H134544   1.983   3.673   6.173  0.9740  0.5951 -1.7706
 4327TIP3    H234545   1.901   3.800   6.178 -0.8539 -0.5830 -0.0404
 4328TIP3   OH234546   0.252   3.196   8.070  0.0666 -0.1532  0.2654
 4328TIP3    H134547   0.238   3.101   8.072  2.0530 -0.5060 -0.2281
 4328TIP3    H234548   0.303   3.214   8.149 -1.5838  0.7879  1.1683
 4329TIP3   OH234549   1.530   4.165   1.120  0.3896  0.3044 -0.1256
 4329TIP3    H134550   1.457   4.134   1.173  1.0132 -0.6323  0.2045
 4329TIP3    H234551   1.495   4.171   1.031  0.3126 -1.6314 -0.2563
 4330TIP3   OH234552   3.788   0.912   7.162  0.1249 -0.0792  0.4932
 4330TIP3    H134553   3.788   0.882   7.071 -1.2667  1.7463 -0.1802
 4330TIP3    H234554   3.835   0.844   7.210  0.2541 -1.4554 -1.4624
 4331TIP3   OH234555   0.672   5.497   7.417 -0.5139 -0.8936  0.6790
 4331TIP3    H134556   0.690   5.545   7.497 -0.0703  0.2436 -0.0785
 4331TIP3    H234557   0.665   5.565   7.349 -1.8344 -1.7434 -0.0790
 4332TIP3   OH234558   5.726   5.894   8.362 -0.1965 -0.1458 -0.1373
 4332TIP3    H134559   5.738   5.984   8.331 -0.0322  0.4851  1.6525
 4332TIP3    H234560   5.811   5.868   8.396  0.3046 -1.7493 -2.3831
 4333TIP3   OH234561   6.696   4.430   1.818 -0.0264  0.4267  0.1911
 4333TIP3    H134562   6.763   4.366   1.845  0.7059  0.5804 -1.1752
 4333TIP3    H234563   6.729   4.514   1.850  0.5765  0.5334 -0.6690
 4334TIP3   OH234564   1.394   3.738   7.042 -0.1172  0.3315 -0.6783
 4334TIP3    H134565   1.332   3.747   7.114  1.0135  0.8931  0.2642
 4334TIP3    H234566   1.367   3.658   6.996 -1.1955  0.2827  0.0207
 4335TIP3   OH234567   1.329   6.071   1.004 -0.1784 -0.1938  0.1102
 4335TIP3    H134568   1.236   6.071   1.028  0.0995  0.8262  1.2650
 4335TIP3    H234569   1.361   5.986   1.034 -0.2872  0.2825  1.6539
 4336TIP3   OH234570   3.119   5.735   7.871  0.5566 -0.1231 -0.1427
 4336TIP3    H134571   3.093   5.643   7.878  1.2418 -0.3102  0.0580
 4336TIP3    H234572   3.211   5.736   7.899  0.0878  0.8901  1.5169
 4337TIP3   OH234573   2.256   6.244   6.786 -0.4447  0.0859  0.2414
 4337TIP3    H134574   2.204   6.180   6.738  0.6884 -1.6155  1.2011
 4337TIP3    H234575   2.276   6.312   6.721 -1.8319 -0.4075 -0.7461
 4338TIP3   OH234576   1.678   2.536   1.422 -0.2484  0.2234  0.7055
 4338TIP3    H134577   1.769   2.558   1.401 -0.5749  0.6145 -0.3266
 4338TIP3    H234578   1.626   2.575   1.352 -1.1054 -1.2348  0.4844
 4339TIP3   OH234579   0.794   3.751   8.218  0.6564  0.3738 -0.0860
 4339TIP3    H134580   0.828   3.821   8.274 -2.0301  1.5786  0.2179
 4339TIP3    H234581   0.750   3.691   8.279 -0.5075  0.5985 -0.6716
 4340TIP3   OH234582   1.581   2.459   0.337  0.1756  0.3126  0.1518
 4340TIP3    H134583   1.550   2.409   0.412 -0.8544 -0.6131 -0.8451
 4340TIP3    H234584   1.544   2.546   0.349 -0.9706 -0.1522  0.1419
 4341TIP3   OH234585   4.969   4.383   6.921  0.5317 -0.3396  0.4583
 4341TIP3    H134586   5.027   4.447   6.964  0.0284  0.0279  0.6053
 4341TIP3    H234587   4.880   4.414   6.941  0.1093  2.0049 -3.8026
 4342TIP3   OH234588   1.635   5.452   0.130  0.6184 -0.1899  0.1747
 4342TIP3    H134589   1.655   5.534   0.085  0.0052 -0.3192 -0.3587
 4342TIP3    H234590   1.698   5.389   0.096  1.1791  0.0883  0.6883
 4343TIP3   OH234591   2.281   0.953   6.515  0.0603  0.0749  0.0004
 4343TIP3    H134592   2.347   0.884   6.507  0.2426  0.0301  1.5989
 4343TIP3    H234593   2.315   1.011   6.583 -0.9917  0.7178  0.0006
 4344TIP3   OH234594   1.186   5.609   1.357  0.7229  0.0920  0.5310
 4344TIP3    H134595   1.236   5.690   1.347  1.0521 -0.0173  1.2789
 4344TIP3    H234596   1.200   5.562   1.274  1.2719  0.3878  0.4519
 4345TIP3   OH234597   3.733   3.155   8.248 -0.2753  0.7738  0.0071
 4345TIP3    H134598   3.769   3.113   8.326  0.9018  2.8302  0.6540
 4345TIP3    H234599   3.739   3.089   8.179  3.9935  0.5904  0.2994
 4346TIP3   OH234600   6.539   3.573   0.065  0.0260 -0.1456  0.6187
 4346TIP3    H134601   6.538   3.667   0.082  0.2366  0.1467 -0.8694
 4346TIP3    H234602   6.465   3.559   0.006  0.5946 -0.7359  0.0254
 4347TIP3   OH234603   3.776   1.891   0.725  0.4208 -0.1555 -0.0649
 4347TIP3    H134604   3.705   1.858   0.781  0.6497 -0.0396  0.2979
 4347TIP3    H234605   3.804   1.814   0.676  0.7371 -0.4448  0.5488
 4348TIP3   OH234606   5.605   5.279   0.012  0.6450 -0.3077 -0.0945
 4348TIP3    H134607   5.627   5.189   0.038  1.0209  0.0521  0.8945
 4348TIP3    H234608   5.649   5.292  -0.072 -0.0928 -1.3180 -0.6506
 4349TIP3   OH234609   6.182   5.364   7.674 -0.3004  0.1580  0.0697
 4349TIP3    H134610   6.259   5.346   7.619  0.2981  1.3069  0.4819
 4349TIP3    H234611   6.180   5.292   7.737  1.8103  1.2253  1.4782
 4350TIP3   OH234612   0.435   5.420   1.937  0.1334  0.0788  0.0907
 4350TIP3    H134613   0.522   5.381   1.924 -0.5719 -1.4878 -0.0421
 4350TIP3    H234614   0.398   5.427   1.849  0.1377  0.8192  0.1403
 4351TIP3   OH234615   5.245   3.804   8.229  0.1961 -0.3064  0.2703
 4351TIP3    H134616   5.327   3.846   8.253  0.9322 -1.7895  0.5109
 4351TIP3    H234617   5.267   3.754   8.150  0.0976 -2.3279  1.4600
 4352TIP3   OH234618   1.317   3.547   0.855  0.3074 -0.6868 -0.4435
 4352TIP3    H134619   1.380   3.481   0.880 -0.0831 -0.6039  0.8330
 4352TIP3    H234620   1.332   3.620   0.916 -0.5861 -0.4193 -0.5149
 4353TIP3   OH234621   6.614   4.422   7.411 -0.4560  0.0172 -0.1479
 4353TIP3    H134622   6.679   4.447   7.346 -0.3783  1.3222  0.3966
 4353TIP3    H234623   6.661   4.368   7.474 -0.0554  0.3956 -0.1207
 4354TIP3   OH234624   2.815   5.856   1.683 -0.2258 -0.0704  0.3086
 4354TIP3    H134625   2.797   5.839   1.590  0.5108 -1.8250  0.4381
 4354TIP3    H234626   2.736   5.828   1.728 -0.9799  1.7273  0.1747
 4355TIP3   OH234627   4.490   1.237   8.033  0.3883  0.3871 -0.4302
 4355TIP3    H134628   4.560   1.295   8.003  0.2691  0.3134 -0.8595
 4355TIP3    H234629   4.533   1.153   8.049 -0.0567 -0.5925 -3.6848
 4356TIP3   OH234630   0.389   3.205   7.651  0.2883  0.7473  0.1933
 4356TIP3    H134631   0.383   3.218   7.745  2.5760  0.1279  0.4784
 4356TIP3    H234632   0.308   3.243   7.616 -0.1017  1.9655  2.2911
 4357TIP3   OH234633   4.211   0.375   6.870 -0.2998 -0.4522  0.4130
 4357TIP3    H134634   4.285   0.392   6.811 -0.2144  0.6058  0.8076
 4357TIP3    H234635   4.140   0.349   6.812 -0.2041  0.5464 -0.1756
 4358TIP3   OH234636   3.308   5.934   0.265  0.3837  0.2679  0.0392
 4358TIP3    H134637   3.257   5.923   0.185  0.6869  0.5415 -0.1928
 4358TIP3    H234638   3.291   5.855   0.316 -1.3760  0.9355  0.5878
 4359TIP3   OH234639   2.634   4.078   0.508  0.3644 -0.7904 -0.5257
 4359TIP3    H134640   2.634   4.123   0.593  1.2369  0.5349 -1.1918
 4359TIP3    H234641   2.541   4.064   0.489  0.1120 -0.1652  0.1724
 4360TIP3   OH234642   4.447   1.761   8.508 -0.0642  0.1815 -0.4098
 4360TIP3    H134643   4.398   1.837   8.537  0.0841  0.1281  0.0003
 4360TIP3    H234644   4.442   1.700   8.582 -2.0698 -1.1443 -1.5404
 4361TIP3   OH234645   1.933   2.592   2.252 -0.2664 -0.1666  0.0417
 4361TIP3    H134646   1.878   2.668   2.235 -1.1214 -0.4776  1.2507
 4361TIP3    H234647   1.896   2.521   2.200 -0.0708 -0.0052 -0.3200
 4362TIP3   OH234648   5.634   2.066   8.295  0.0813 -0.2591  0.3837
 4362TIP3    H134649   5.608   2.050   8.386  0.5879 -1.5249  0.3252
 4362TIP3    H234650   5.552   2.061   8.246  0.1066 -2.3513  0.4438
 4363TIP3   OH234651   3.845   5.732   6.195  0.1659  0.2247  0.4017
 4363TIP3    H134652   3.918   5.677   6.166  0.2667 -0.9404  2.6238
 4363TIP3    H234653   3.886   5.810   6.232  0.6092 -1.3150  3.5667
 4364TIP3   OH234654   0.654   1.847   2.473 -0.1102  0.1563  0.0880
 4364TIP3    H134655   0.590   1.917   2.490  0.3130  1.2562 -2.3601
 4364TIP3    H234656   0.729   1.892   2.435  0.5148 -1.5555 -0.8097
 4365TIP3   OH234657   2.536   6.746   7.131  0.1149  0.1163 -0.0278
 4365TIP3    H134658   2.533   6.746   7.036  2.6720  1.0111 -0.1754
 4365TIP3    H234659   2.446   6.730   7.158 -0.9767  1.3997 -2.5841
 4366TIP3   OH234660   3.917   6.142   2.009  0.5133  0.5863 -0.1253
 4366TIP3    H134661   3.883   6.221   2.053 -2.5119  0.0106 -1.2135
 4366TIP3    H234662   3.842   6.106   1.963  1.7701 -2.9914  0.3164
 4367TIP3   OH234663   5.132   6.652   8.245 -0.2445  0.0897  0.3197
 4367TIP3    H134664   5.219   6.621   8.222 -0.0371  1.5941 -1.1054
 4367TIP3    H234665   5.144   6.744   8.266 -1.2331 -0.1112  1.9415
 4368TIP3   OH234666   4.182   4.830   8.751  0.2163  0.2309  0.4402
 4368TIP3    H134667   4.172   4.735   8.749  2.0263 -0.0559  1.7568
 4368TIP3    H234668   4.111   4.864   8.697 -1.9475 -1.7366  1.9087
 4369TIP3   OH234669   0.457   2.675   6.766  0.2148 -0.3823  0.2564
 4369TIP3    H134670   0.428   2.716   6.684  0.9847 -0.5156 -0.0879
 4369TIP3    H234671   0.537   2.722   6.790  1.2859 -1.8451 -0.2993
 4370TIP3   OH234672   4.631   5.431   0.037 -0.1270  0.3218  0.3197
 4370TIP3    H134673   4.652   5.339   0.019 -0.2437  0.2207  0.6915
 4370TIP3    H234674   4.707   5.463   0.086 -0.3558  0.2502  0.7284
 4371TIP3   OH234675   6.275   2.630   0.739  0.4653  0.0473  0.0003
 4371TIP3    H134676   6.245   2.564   0.802 -1.3112  0.7565 -0.0424
 4371TIP3    H234677   6.275   2.584   0.655 -1.2659  0.1956 -0.1112
 4372TIP3   OH234678   6.452   4.784   0.373 -0.0944 -0.2325 -0.2789
 4372TIP3    H134679   6.538   4.822   0.358 -1.0144  2.6956  1.1691
 4372TIP3    H234680   6.457   4.748   0.462 -0.8972  1.8994  0.6982
 4373TIP3   OH234681   0.993   5.799   1.463  0.2136  0.1796  0.2370
 4373TIP3    H134682   0.935   5.724   1.447  0.2489 -0.4526  2.6404
 4373TIP3    H234683   1.081   5.764   1.449  0.1894  0.0107  0.4961
 4374TIP3   OH234684   3.753   1.252   6.600 -0.2150  0.4397  0.1146
 4374TIP3    H134685   3.823   1.204   6.555  0.0217 -0.3403  1.2473
 4374TIP3    H234686   3.798   1.296   6.673 -0.6863  1.0955  0.0113
 4375TIP3   OH234687   2.279   3.669   1.210  0.0772  0.1691  0.1970
 4375TIP3    H134688   2.220   3.681   1.285  2.3497  0.1302  2.1002
 4375TIP3    H234689   2.324   3.752   1.201 -0.0172  0.0962 -1.0166
 4376TIP3   OH234690   4.257   0.554   1.659  0.2757 -0.4841 -0.0328
 4376TIP3    H134691   4.245   0.462   1.680 -2.5132  0.0588  1.1864
 4376TIP3    H234692   4.172   0.583   1.628  0.4038  2.1502  1.7213
 4377TIP3   OH234693   0.651   2.938   8.548  0.1001 -0.0420  0.1285
 4377TIP3    H134694   0.592   2.876   8.505  1.6811  0.2117 -2.6751
 4377TIP3    H234695   0.738   2.900   8.536  0.8841  1.5633  0.5115
 4378TIP3   OH234696   4.596   2.220   0.318 -0.2225  0.2899  0.1406
 4378TIP3    H134697   4.538   2.295   0.309  1.0469  1.3472  0.5167
 4378TIP3    H234698   4.541   2.144   0.297 -1.4305  1.3416 -0.5977
 4379TIP3   OH234699   6.281   3.999   8.205 -0.1606  0.0189 -0.0320
 4379TIP3    H134700   6.290   4.086   8.168  0.5151  0.0374  0.1735
 4379TIP3    H234701   6.330   4.002   8.287 -0.0842 -0.5697 -0.0497
 4380TIP3   OH234702   5.821   1.469   8.047  0.3061 -0.6031 -0.3945
 4380TIP3    H134703   5.858   1.551   8.081  0.6381  0.3504 -2.8253
 4380TIP3    H234704   5.885   1.402   8.071  0.4433 -0.0385  0.9080
 4381TIP3   OH234705   0.627   6.197   7.454  0.1947 -0.3535 -0.6413
 4381TIP3    H134706   0.631   6.193   7.550  1.9494  1.8322 -0.5509
 4381TIP3    H234707   0.544   6.154   7.432 -0.1274 -1.1670  1.8084
 4382TIP3   OH234708   4.822   2.515   7.073  0.6988 -0.0764 -0.4747
 4382TIP3    H134709   4.769   2.438   7.053 -1.1160  0.7127  0.9833
 4382TIP3    H234710   4.902   2.481   7.113 -0.1381 -1.1993  0.2774
 4383TIP3   OH234711   1.231   2.619   0.564  0.4442 -0.0565  0.1275
 4383TIP3    H134712   1.209   2.587   0.652  0.9565  2.0904  1.1146
 4383TIP3    H234713   1.157   2.676   0.540 -0.2834 -1.5768 -1.4123
 4384TIP3   OH234714   4.517   2.773   7.017 -0.2393 -0.0530  0.2275
 4384TIP3    H134715   4.454   2.803   7.083 -0.7466  0.0123 -0.2754
 4384TIP3    H234716   4.600   2.766   7.064 -0.3348  1.1266  0.6158
 4385TIP3   OH234717   5.876   6.030   7.760 -0.0781  0.0852  0.1666
 4385TIP3    H134718   5.843   6.106   7.807  1.0123  0.0554  1.0244
 4385TIP3    H234719   5.958   6.059   7.722  0.2077 -0.5810  0.2674
 4386TIP3   OH234720   3.072   3.252   1.377  0.2523 -0.4212 -0.0716
 4386TIP3    H134721   3.093   3.194   1.305  1.2847  0.8879 -0.8799
 4386TIP3    H234722   3.157   3.279   1.412 -0.2024  0.2757  0.5325
 4387TIP3   OH234723   3.250   5.225   8.627  0.3699 -0.1232  0.1604
 4387TIP3    H134724   3.212   5.311   8.611  1.1237 -0.1180 -1.7704
 4387TIP3    H234725   3.235   5.210   8.721 -0.7404  1.6123  0.3106
 4388TIP3   OH234726   4.753   6.394   6.986  0.6482  0.2864  0.9746
 4388TIP3    H134727   4.676   6.396   6.930 -1.3432 -3.7713  3.0916
 4388TIP3    H234728   4.741   6.467   7.046 -1.0980  0.2751  0.6923
 4389TIP3   OH234729   3.435   3.610   1.517 -0.9005  0.7348  0.1958
 4389TIP3    H134730   3.485   3.667   1.459  1.9373 -0.6139  1.1562
 4389TIP3    H234731   3.456   3.640   1.605  0.7571 -1.7143  0.7334
 4390TIP3   OH234732   5.116   2.938   0.953  0.2799  0.1853  0.5514
 4390TIP3    H134733   5.165   2.865   0.990  0.5111 -0.4100 -0.8633
 4390TIP3    H234734   5.159   2.956   0.870 -0.2666  1.4250  0.5163
 4391TIP3   OH234735   2.765   6.655   8.662  0.4227  0.2228  0.6748
 4391TIP3    H134736   2.674   6.660   8.692 -0.0718 -1.3175 -0.4786
 4391TIP3    H234737   2.760   6.661   8.567  1.8323  3.2284  0.6554
 4392TIP3   OH234738   5.280   1.522   7.349 -0.0692 -0.1795  0.6618
 4392TIP3    H134739   5.237   1.437   7.358  1.8816 -1.2928  0.2247
 4392TIP3    H234740   5.223   1.584   7.395 -3.2278 -1.0752 -1.6664
 4393TIP3   OH234741   2.114   5.932   6.173 -0.4509  0.3158  0.4098
 4393TIP3    H134742   2.094   5.882   6.252 -0.1190 -3.9850 -1.9574
 4393TIP3    H234743   2.201   5.901   6.146 -0.7982  1.1648 -1.9439
 4394TIP3   OH234744   6.650   1.856   8.226 -0.4711 -0.1418 -0.1577
 4394TIP3    H134745   6.679   1.937   8.267 -0.4815  0.1844 -0.7779
 4394TIP3    H234746   6.555   1.867   8.216 -0.4162 -0.0426 -0.6250
 4395TIP3   OH234747   5.856   0.408   0.015 -0.0326 -0.2727 -0.1883
 4395TIP3    H134748   5.819   0.389   0.101  1.9435 -0.7981  0.5954
 4395TIP3    H234749   5.912   0.484   0.029 -2.8921  2.4137 -1.9655
 4396TIP3   OH234750   0.673   2.876   8.141  0.7310  0.0526  0.3951
 4396TIP3    H134751   0.690   2.966   8.170  0.4287  0.0695  0.5257
 4396TIP3    H234752   0.581   2.876   8.116  1.4558  0.5782 -2.6203
 4397TIP3   OH234753   5.467   0.146   1.204 -0.4030 -0.0651  0.2243
 4397TIP3    H134754   5.413   0.224   1.205  1.5294  1.6091 -3.7033
 4397TIP3    H234755   5.423   0.085   1.263 -5.1203  1.9915 -0.7315
 4398TIP3   OH234756   0.430   0.399   1.087  0.4353 -0.2617  0.4148
 4398TIP3    H134757   0.451   0.310   1.056  1.3144 -1.2095  3.4349
 4398TIP3    H234758   0.513   0.432   1.121 -0.4530  0.6591  1.7688
 4399TIP3   OH234759   4.262   3.416   6.703 -0.3209 -0.4866  0.5455
 4399TIP3    H134760   4.261   3.321   6.717  0.2068 -0.8779 -1.7077
 4399TIP3    H234761   4.204   3.451   6.771  0.2033 -2.3138  1.9974
 4400TIP3   OH234762   3.227   3.136   2.003  0.2029 -0.3109  0.8831
 4400TIP3    H134763   3.224   3.049   1.963 -1.3609 -0.1455  0.5920
 4400TIP3    H234764   3.190   3.123   2.090  0.3691 -0.0066  0.9999
 4401TIP3   OH234765   6.780   0.600   0.874 -0.3571 -0.3097 -0.3038
 4401TIP3    H134766   6.853   0.554   0.916  0.8766  0.9952 -0.9259
 4401TIP3    H234767   6.715   0.532   0.858 -0.0268 -1.1948  1.8503
 4402TIP3   OH234768   1.323   0.846   7.438 -0.0567 -0.3143 -0.0097
 4402TIP3    H134769   1.302   0.787   7.366 -2.6084  0.9036 -0.3670
 4402TIP3    H234770   1.239   0.866   7.479  0.9242  1.6518  1.2206
 4403TIP3   OH234771   2.508   2.070   7.248 -0.3795 -0.1339 -0.3509
 4403TIP3    H134772   2.437   2.052   7.310  1.4351  0.9895  2.2674
 4403TIP3    H234773   2.533   1.985   7.214 -0.5281 -1.0197  1.6166
 4404TIP3   OH234774   3.898   4.637   8.760 -0.3506 -0.3686 -0.5748
 4404TIP3    H134775   3.871   4.587   8.837 -1.3251 -0.4694 -0.9540
 4404TIP3    H234776   3.985   4.605   8.739  1.6236  2.2824  2.6635
 4405TIP3   OH234777   4.798   3.564   2.176  0.2649 -0.0631  0.4067
 4405TIP3    H134778   4.785   3.474   2.206 -0.1993  0.0327  0.5088
 4405TIP3    H234779   4.826   3.612   2.254 -0.7740  0.1498  0.6675
 4406TIP3   OH234780   2.764   6.432   2.528 -0.1692  0.4435 -0.0773
 4406TIP3    H134781   2.841   6.377   2.517  0.8307  1.5536  1.0719
 4406TIP3    H234782   2.699   6.374   2.568  0.6855 -0.0576  0.6314
 4407TIP3   OH234783   4.217   1.218   1.283 -0.3205 -0.1982  0.2119
 4407TIP3    H134784   4.168   1.291   1.246 -0.6895 -0.8750 -0.6653
 4407TIP3    H234785   4.179   1.140   1.243  1.3635 -0.7590 -0.3859
 4408TIP3   OH234786   6.631   2.698   8.305 -0.5841 -0.1006 -0.6316
 4408TIP3    H134787   6.642   2.704   8.210  0.3319 -0.1613 -0.5431
 4408TIP3    H234788   6.720   2.704   8.340 -0.9276  0.1684  0.2407
 4409TIP3   OH234789   0.119   6.219   8.551  0.2312 -0.0646 -0.6833
 4409TIP3    H134790   0.066   6.165   8.611  1.3132  1.0338  1.3589
 4409TIP3    H234791   0.058   6.284   8.517 -0.3472 -0.5655 -0.6262
 4410TIP3   OH234792   2.004   1.596   0.077  0.4314 -0.1404  0.5850
 4410TIP3    H134793   2.058   1.666   0.041  1.4896 -1.5128 -0.5962
 4410TIP3    H234794   2.042   1.515   0.042 -1.0587 -1.2924  1.4934
 4411TIP3   OH234795   2.460   2.841   1.022  0.1619 -0.4859  0.5005
 4411TIP3    H134796   2.458   2.832   1.117  1.5268 -0.3500  0.5604
 4411TIP3    H234797   2.384   2.895   1.002  2.0426  3.0561  1.9761
 4412TIP3   OH234798   0.029   0.434   2.363 -0.3566 -0.0447 -1.2279
 4412TIP3    H134799   0.065   0.521   2.377  0.1975 -0.1421 -1.9541
 4412TIP3    H234800   0.104   0.382   2.334 -0.9966 -0.3589 -2.3815
 4413TIP3   OH234801   2.095   0.665   7.354 -0.4296 -0.0851  0.4922
 4413TIP3    H134802   2.095   0.737   7.418  1.2860  0.1124  0.3013
 4413TIP3    H234803   2.023   0.608   7.383 -2.0251  1.8062  0.4898
 4414TIP3   OH234804   3.685   6.124   1.856  0.2900  0.1351 -0.6748
 4414TIP3    H134805   3.612   6.176   1.890  2.0657  1.6059  1.0806
 4414TIP3    H234806   3.646   6.072   1.785 -2.2023  1.6522 -0.5308
 4415TIP3   OH234807   2.926   0.260   1.378 -0.4651  0.9287  0.6500
 4415TIP3    H134808   2.907   0.267   1.284 -0.0283  0.9199  0.5597
 4415TIP3    H234809   2.850   0.214   1.414 -0.5169  0.7056  0.2600
 4416TIP3   OH234810   5.139   4.916   6.781 -0.7048  0.1250 -0.0857
 4416TIP3    H134811   5.195   4.894   6.707  2.0313  0.5099  1.7509
 4416TIP3    H234812   5.155   5.009   6.797  0.2931 -0.3832  2.1547
 4417TIP3   OH234813   5.337   5.121   7.782 -0.1710  0.3701  0.1999
 4417TIP3    H134814   5.249   5.100   7.813  1.1193 -2.5858  2.3757
 4417TIP3    H234815   5.343   5.079   7.696 -0.7774  0.2363  0.2227
 4418TIP3   OH234816   2.845   0.519   8.020  1.0045  0.4422 -0.6081
 4418TIP3    H134817   2.823   0.533   7.928  1.4283  0.9519 -0.6337
 4418TIP3    H234818   2.852   0.607   8.056  0.2865  0.2425  0.0472
 4419TIP3   OH234819   1.201   3.765   8.242 -0.7160 -0.6696  0.6741
 4419TIP3    H134820   1.283   3.718   8.226 -0.6458  0.1666 -1.7307
 4419TIP3    H234821   1.148   3.748   8.164 -1.2111  2.0977  0.3293
 4420TIP3   OH234822   1.184   1.516   0.175 -0.5238 -0.0233 -0.2027
 4420TIP3    H134823   1.115   1.509   0.240 -0.9041 -1.4707 -0.7269
 4420TIP3    H234824   1.189   1.610   0.155 -0.7186  0.3967  1.5306
 4421TIP3   OH234825   1.061   1.900   7.980 -0.7746  1.0323 -0.1116
 4421TIP3    H134826   0.993   1.886   8.045 -1.4399  1.5620 -0.6755
 4421TIP3    H234827   1.022   1.961   7.917 -0.2251  0.3924 -1.1051
 4422TIP3   OH234828   5.478   6.689   7.365 -0.6356  0.3498 -0.4432
 4422TIP3    H134829   5.475   6.768   7.419 -1.4744  0.0011  0.0428
 4422TIP3    H234830   5.564   6.691   7.323 -0.0632  0.7444  0.7229
 4423TIP3   OH234831   1.718   3.219   1.122  0.1737 -0.2748  0.1839
 4423TIP3    H134832   1.790   3.160   1.099 -0.6480 -1.7596  1.2474
 4423TIP3    H234833   1.747   3.262   1.203 -0.4045 -1.4172  1.0166
 4424TIP3   OH234834   4.316   4.004   1.493  0.6978  0.1338 -0.3585
 4424TIP3    H134835   4.345   3.926   1.540  2.6288  0.2704 -1.2340
 4424TIP3    H234836   4.395   4.038   1.452 -0.6000  0.9770 -2.3012
 4425TIP3   OH234837   5.135   3.934   1.747  0.2316 -0.0411 -0.3398
 4425TIP3    H134838   5.153   4.001   1.813  0.9314  0.7573 -1.3258
 4425TIP3    H234839   5.221   3.901   1.721 -0.0602 -0.6205 -0.5959
 4426TIP3   OH234840   5.615   0.079   1.786  0.0557  0.0829 -0.3531
 4426TIP3    H134841   5.622   0.132   1.866 -3.0768  0.6377 -0.3329
 4426TIP3    H234842   5.622  -0.011   1.817 -0.9442  0.2937  0.5829
 4427TIP3   OH234843   4.606   6.457   0.650  0.0301  0.2121  0.1368
 4427TIP3    H134844   4.679   6.472   0.710 -0.8025  0.7819  1.0470
 4427TIP3    H234845   4.611   6.530   0.588 -0.4734  0.9420  0.9385
 4428TIP3   OH234846   3.181   3.224   7.243 -0.4259 -0.0502 -0.0245
 4428TIP3    H134847   3.091   3.193   7.233 -0.6326  0.9001 -1.2368
 4428TIP3    H234848   3.222   3.210   7.158 -0.3919  2.4814 -0.5082
 4429TIP3   OH234849   2.305   5.165   8.330 -0.3013 -0.2999  0.1611
 4429TIP3    H134850   2.379   5.143   8.272 -0.6601  0.7217 -0.7252
 4429TIP3    H234851   2.342   5.225   8.394 -0.1126 -0.6928  0.4243
 4430TIP3   OH234852   5.964   2.455   6.929  0.1132  0.4074  0.0815
 4430TIP3    H134853   5.885   2.509   6.918 -0.4783 -0.3698  0.3986
 4430TIP3    H234854   6.036   2.514   6.908 -0.5325  1.2403  0.1269
 4431TIP3   OH234855   5.452   2.119   0.493  0.3828 -0.1612  0.0500
 4431TIP3    H134856   5.425   2.134   0.402  0.5309 -2.7798 -0.5120
 4431TIP3    H234857   5.373   2.135   0.545 -0.2561 -0.5283 -0.7781
 4432TIP3   OH234858   5.184   6.716   7.183 -0.4497  0.0933 -0.0022
 4432TIP3    H134859   5.260   6.773   7.171 -1.1447  0.9638 -0.3893
 4432TIP3    H234860   5.167   6.680   7.095 -0.8716  0.4128 -0.0544
 4433TIP3   OH234861   4.771   0.751   0.155 -0.5016 -0.0977 -0.3731
 4433TIP3    H134862   4.823   0.689   0.103 -2.3699 -1.6750 -0.4442
 4433TIP3    H234863   4.779   0.720   0.245 -0.8347  0.0284 -0.3009
 4434TIP3   OH234864   3.769   1.939   7.615 -0.6142  0.3378 -1.0321
 4434TIP3    H134865   3.742   1.916   7.526  1.3663 -0.8932 -1.3913
 4434TIP3    H234866   3.844   1.997   7.602 -0.1468 -0.0586 -0.1965
 4435TIP3   OH234867   5.781   2.532   0.228 -0.0142 -0.4665 -0.7594
 4435TIP3    H134868   5.743   2.462   0.280 -0.3511  0.6484  0.5650
 4435TIP3    H234869   5.739   2.525   0.142 -1.4067 -0.7540 -0.0769
 4436TIP3   OH234870   2.149   0.576   1.180  0.1714  0.3529 -0.3463
 4436TIP3    H134871   2.060   0.555   1.209 -0.5274  2.0383 -1.0846
 4436TIP3    H234872   2.204   0.561   1.256 -0.8104 -0.3226  0.2501
 4437TIP3   OH234873   6.119   1.764   7.913  0.3156 -0.3142 -0.4643
 4437TIP3    H134874   6.207   1.746   7.946  0.1352  0.3797  0.4031
 4437TIP3    H234875   6.132   1.789   7.822  1.0346  0.0234 -0.2685
 4438TIP3   OH234876   3.728   6.553   7.173  0.2631  0.5961 -0.5140
 4438TIP3    H134877   3.775   6.633   7.152  0.5200  0.5148 -0.2622
 4438TIP3    H234878   3.637   6.580   7.186  1.0187  1.8113  4.5978
 4439TIP3   OH234879   5.562   3.005   7.314 -0.1618 -0.1940  0.3008
 4439TIP3    H134880   5.622   2.930   7.313  0.7807  0.5343  0.1458
 4439TIP3    H234881   5.550   3.028   7.222  0.5586  0.5988  0.3876
 4440TIP3   OH234882   2.615   6.199   7.100 -0.5287 -0.3789  0.0109
 4440TIP3    H134883   2.639   6.184   7.009  0.9682  1.9315 -0.0800
 4440TIP3    H234884   2.526   6.235   7.096 -0.9790 -1.5139 -0.3951
 4441TIP3   OH234885   1.235   5.571   2.483 -0.2248  0.2785 -0.1853
 4441TIP3    H134886   1.316   5.524   2.463  0.0950  0.6045  0.3195
 4441TIP3    H234887   1.190   5.516   2.547 -1.1106 -0.6232 -1.5601
 4442TIP3   OH234888   3.546   6.092   1.598  0.3239 -0.3133 -0.2710
 4442TIP3    H134889   3.473   6.153   1.602  0.7649  0.1533  1.4784
 4442TIP3    H234890   3.505   6.005   1.604 -0.0903 -0.0357  2.8016
 4443TIP3   OH234891   0.239   6.205   0.414 -0.0128  1.0116  0.2481
 4443TIP3    H134892   0.260   6.129   0.359 -0.5887  0.9564  0.1019
 4443TIP3    H234893   0.322   6.228   0.455 -0.0366 -0.3774  1.1593
 4444TIP3   OH234894   4.997   4.176   6.578 -0.7318  0.3111  0.3467
 4444TIP3    H134895   4.977   4.180   6.485  0.4828  1.5104  0.1154
 4444TIP3    H234896   4.956   4.254   6.615  0.6601  1.0272  0.4217
 4445TIP3   OH234897   6.779   4.737   1.309  0.3914  0.2884 -0.1832
 4445TIP3    H134898   6.842   4.758   1.241  0.9575 -0.4226  0.1059
 4445TIP3    H234899   6.833   4.711   1.384 -0.2280 -1.3477 -0.2540
 4446TIP3   OH234900   1.477   2.128   6.681 -0.6274  0.1861 -0.1337
 4446TIP3    H134901   1.470   2.221   6.699  0.4322  0.3760 -0.6580
 4446TIP3    H234902   1.408   2.110   6.616 -1.1144  0.5094  0.2941
 4447TIP3   OH234903   2.309   4.817   0.158  0.5310  0.5037  0.5419
 4447TIP3    H134904   2.239   4.761   0.126  0.2208  0.8392  0.6223
 4447TIP3    H234905   2.386   4.791   0.108  0.3041  0.2676  0.3149
 4448TIP3   OH234906   3.812   2.417   0.424  0.0737  0.2057  0.4291
 4448TIP3    H134907   3.813   2.512   0.437 -1.3495  0.3495 -0.2687
 4448TIP3    H234908   3.843   2.380   0.506  0.6756  1.2695  0.6950
 4449TIP3   OH234909   3.594   2.534   8.131 -0.2661  0.7371  0.1813
 4449TIP3    H134910   3.662   2.472   8.156  1.7764  3.1372  1.0260
 4449TIP3    H234911   3.621   2.566   8.045 -0.3828  1.6078  0.4573
 4450TIP3   OH234912   2.956   3.020   6.825 -0.4936  0.2247 -0.1138
 4450TIP3    H134913   2.869   2.988   6.850  0.1508 -4.1618 -2.4414
 4450TIP3    H234914   2.943   3.054   6.736  0.1541 -0.6626 -0.5576
 4451TIP3   OH234915   0.308   4.490   2.108  0.6655 -0.3768  0.0980
 4451TIP3    H134916   0.235   4.428   2.111  0.6916 -0.3862  0.6177
 4451TIP3    H234917   0.267   4.574   2.089  0.8592 -0.9069 -3.3028
 4452TIP3   OH234918   3.543   3.246   1.208 -0.1208 -0.0005  0.1399
 4452TIP3    H134919   3.550   3.333   1.169 -0.7868  0.5398  1.1841
 4452TIP3    H234920   3.596   3.250   1.288 -0.7287 -0.3177  0.5737
 4453TIP3   OH234921   2.266   4.214   1.860  0.1816  0.4174 -0.1625
 4453TIP3    H134922   2.343   4.165   1.892 -0.2864 -1.1005 -1.2223
 4453TIP3    H234923   2.247   4.277   1.929  0.0468 -1.7707  1.9401
 4454TIP3   OH234924   1.813   1.759   2.655 -0.0832  0.3650  0.5835
 4454TIP3    H134925   1.870   1.790   2.726 -0.3509  2.2412  0.0167
 4454TIP3    H234926   1.870   1.755   2.578 -0.2141  0.0846  0.4991
 4455TIP3   OH234927   4.956   5.007   7.843  0.2889  0.4447  0.0629
 4455TIP3    H134928   4.869   5.032   7.875 -0.4548  0.4286 -1.8465
 4455TIP3    H234929   4.985   4.940   7.906  0.4589  2.8383  2.7287
 4456TIP3   OH234930   2.098   5.243   8.690  0.7306  0.3708  0.1397
 4456TIP3    H134931   2.006   5.250   8.666  0.8032 -0.7966 -0.5876
 4456TIP3    H234932   2.103   5.273   8.780 -0.6481 -1.0876  0.7451
 4457TIP3   OH234933   4.061   0.546   7.465 -0.2761 -0.2302 -0.5716
 4457TIP3    H134934   4.075   0.603   7.389 -1.1910  0.7819 -0.0196
 4457TIP3    H234935   3.979   0.501   7.446  0.6309 -1.6793 -1.1694
 4458TIP3   OH234936   1.138   1.875   8.373  0.2622 -0.3701  0.6496
 4458TIP3    H134937   1.103   1.788   8.354 -1.0026 -0.3179  2.5461
 4458TIP3    H234938   1.064   1.934   8.362  0.9448  0.4050  0.0449
 4459TIP3   OH234939   0.842   5.387   0.519  0.2074 -0.5387 -0.0167
 4459TIP3    H134940   0.818   5.477   0.539 -1.8888 -1.2336  0.8588
 4459TIP3    H234941   0.769   5.354   0.467  1.2426 -1.5736 -0.8853
 4460TIP3   OH234942   0.992   1.645   6.651 -0.0797  0.3425 -0.1181
 4460TIP3    H134943   1.072   1.600   6.677  0.5361  1.5699  0.1795
 4460TIP3    H234944   0.950   1.586   6.588  0.8298 -0.4999  0.0477
 4461TIP3   OH234945   3.177   4.643   2.437 -0.1766  0.1175  0.0043
 4461TIP3    H134946   3.250   4.590   2.405 -0.8680 -0.3080 -0.9105
 4461TIP3    H234947   3.148   4.598   2.516  0.9654  0.6646  0.7626
 4462TIP3   OH234948   5.811   2.107   7.860 -0.3971  0.0976  0.2901
 4462TIP3    H134949   5.729   2.150   7.885  1.1297  1.8990  2.8043
 4462TIP3    H234950   5.852   2.084   7.944  2.3593  0.7364 -0.7719
 4463TIP3   OH234951   3.912   5.531   1.457 -0.5303 -0.2698 -0.4640
 4463TIP3    H134952   3.852   5.534   1.531 -1.0278  0.6832 -0.8831
 4463TIP3    H234953   3.941   5.622   1.447 -1.1420 -0.2068 -1.9509
 4464TIP3   OH234954   4.994   1.320   6.842  0.0710  0.7085  0.8852
 4464TIP3    H134955   5.002   1.368   6.924  0.6980  0.7218  0.8205
 4464TIP3    H234956   5.032   1.234   6.861  0.1111  0.6728  0.6413
 4465TIP3   OH234957   4.995   0.757   7.320  0.8035  0.2287 -0.1369
 4465TIP3    H134958   4.942   0.706   7.381  0.9017 -1.1132 -1.1390
 4465TIP3    H234959   5.078   0.711   7.315  0.5540 -0.1339 -1.8139
 4466TIP3   OH234960   2.379   2.335   0.762 -0.4469  0.5689 -0.0735
 4466TIP3    H134961   2.394   2.391   0.838  0.0697 -0.4588  0.6137
 4466TIP3    H234962   2.291   2.299   0.776 -0.4830  0.6326 -0.1349
 4467TIP3   OH234963   5.657   2.055   2.062  0.9495 -0.1895 -0.0047
 4467TIP3    H134964   5.564   2.044   2.040  1.1393 -0.8082 -0.5043
 4467TIP3    H234965   5.655   2.102   2.146  0.1776 -0.5362  0.1848
 4468TIP3   OH234966   5.838   2.936   8.200  0.1617  0.1915  0.0215
 4468TIP3    H134967   5.746   2.942   8.172  0.3257  0.7297 -0.4163
 4468TIP3    H234968   5.884   2.899   8.125  0.3406  0.1374  0.1571
 4469TIP3   OH234969   3.167   4.999   0.731 -0.1514  0.6045  0.3012
 4469TIP3    H134970   3.078   4.992   0.698 -0.7657  1.7196  1.6006
 4469TIP3    H234971   3.168   5.083   0.778  1.4718  0.4257  0.6303
 4470TIP3   OH234972   4.360   5.578   6.870 -0.2266 -0.0267 -0.1657
 4470TIP3    H134973   4.298   5.648   6.848  0.0784  0.1900 -0.3508
 4470TIP3    H234974   4.416   5.570   6.792 -1.8880 -2.2985 -1.2414
 4471TIP3   OH234975   6.232   1.247   0.114 -0.1179  0.3062 -0.2057
 4471TIP3    H134976   6.254   1.292   0.032  0.7834 -0.0069 -0.1497
 4471TIP3    H234977   6.147   1.207   0.097  0.0250  0.3055 -0.9701
 4472TIP3   OH234978   4.937   0.363   0.836  0.0699  0.3363 -0.2505
 4472TIP3    H134979   4.897   0.372   0.750  0.0794  1.0663 -0.1809
 4472TIP3    H234980   4.990   0.283   0.829  1.7524  1.4897 -1.5952
 4473TIP3   OH234981   5.239   5.209   0.422 -0.8211  0.2631 -0.1397
 4473TIP3    H134982   5.310   5.273   0.421 -1.6896  1.2843  0.8686
 4473TIP3    H234983   5.192   5.224   0.340 -0.5547  0.3774 -0.2711
 4474TIP3   OH234984   1.118   4.526   6.339  0.6384  0.9661  0.1170
 4474TIP3    H134985   1.128   4.447   6.286 -0.3786 -0.5809  2.1148
 4474TIP3    H234986   1.026   4.551   6.328  0.6822  1.2449  0.3656
 4475TIP3   OH234987   0.288   2.339   8.394  0.0222 -0.2001 -0.5977
 4475TIP3    H134988   0.293   2.254   8.352  0.0365  0.2421 -1.5149
 4475TIP3    H234989   0.197   2.346   8.423  0.3820 -1.1512  0.8676
 4476TIP3   OH234990   3.217   2.793   7.778 -0.3511  0.2347  0.4156
 4476TIP3    H134991   3.260   2.721   7.825 -0.1348 -0.9170 -1.4441
 4476TIP3    H234992   3.142   2.815   7.834 -0.3546 -1.3588  1.1228
 4477TIP3   OH234993   1.834   0.857   8.691 -0.7867  0.0658  0.0993
 4477TIP3    H134994   1.823   0.905   8.609  0.3765  0.1025 -0.0617
 4477TIP3    H234995   1.869   0.922   8.752  0.8264 -0.5399 -0.1284
 4478TIP3   OH234996   4.164   4.248   0.756 -0.6355  0.1291  0.3356
 4478TIP3    H134997   4.153   4.342   0.774 -0.7808  0.7312 -2.4355
 4478TIP3    H234998   4.152   4.206   0.841 -1.4673  2.5388  1.5140
 4479TIP3   OH234999   0.068   3.899   0.657  0.0367  0.0553 -0.2862
 4479TIP3    H135000   0.156   3.864   0.674  1.0222  2.2482 -0.4002
 4479TIP3    H235001   0.011   3.823   0.658  1.5066 -1.1792  2.6109
 4480TIP3   OH235002   4.897   2.138   0.884  0.5289 -0.0691 -0.1010
 4480TIP3    H135003   4.885   2.195   0.809 -0.0567  0.1979  0.1887
 4480TIP3    H235004   4.913   2.197   0.957  1.2727 -0.3352 -0.0430
 4481TIP3   OH235005   5.307   0.850   7.666  0.4022 -0.5038 -0.0623
 4481TIP3    H135006   5.314   0.940   7.633  1.7881 -0.1264  1.1743
 4481TIP3    H235007   5.397   0.823   7.681  0.2100 -3.0015 -2.6180
 4482TIP3   OH235008   6.403   1.375   7.817 -0.1778 -0.2745  0.3824
 4482TIP3    H135009   6.387   1.313   7.746 -0.9009 -0.1670  0.4464
 4482TIP3    H235010   6.484   1.419   7.792  0.3980 -1.2935  0.3787
 4483TIP3   OH235011   4.667   3.783   6.804  0.0989  0.1774 -0.0121
 4483TIP3    H135012   4.641   3.702   6.848  0.7454 -0.3719 -0.6110
 4483TIP3    H235013   4.622   3.779   6.720 -0.0153  0.5352  0.0316
 4484TIP3   OH235014   5.440   2.364   8.198 -0.1790 -0.9334 -0.4358
 4484TIP3    H135015   5.437   2.457   8.179 -1.4159 -1.2332 -1.9520
 4484TIP3    H235016   5.435   2.358   8.293  0.8629  0.5519 -0.2642
 4485TIP3   OH235017   4.265   4.968   0.157  0.4491 -0.1456  0.1542
 4485TIP3    H135018   4.268   4.921   0.074 -1.6606  0.4085 -0.3020
 4485TIP3    H235019   4.222   4.907   0.218  0.4400  0.0704  0.3682
 4486TIP3   OH235020   4.771   6.232   8.181  0.2348  0.7589  0.4359
 4486TIP3    H135021   4.783   6.259   8.090 -1.5640 -0.2802 -0.1600
 4486TIP3    H235022   4.774   6.314   8.231 -1.0377  1.6262 -0.8291
 4487TIP3   OH235023   3.582   5.666   1.423 -0.1705 -0.5499  0.1057
 4487TIP3    H135024   3.634   5.612   1.483  1.8392 -0.1293 -1.1606
 4487TIP3    H235025   3.624   5.654   1.338 -1.8981  0.2051 -0.8939
 4488TIP3   OH235026   3.743   6.650   0.877  0.5638 -0.3709 -0.2435
 4488TIP3    H135027   3.668   6.709   0.883  0.5478 -0.5615  2.0828
 4488TIP3    H235028   3.712   6.579   0.820 -0.1975  0.6775 -1.1879
 4489TIP3   OH235029   2.913   5.188   0.023 -0.0743  0.2846  0.6425
 4489TIP3    H135030   3.008   5.194   0.034  0.1184 -1.1305  0.0153
 4489TIP3    H235031   2.880   5.169   0.110 -0.0319  2.8895  1.2870
 4490TIP3   OH235032   3.346   4.809   1.220 -0.2305  0.3037  0.0570
 4490TIP3    H135033   3.315   4.871   1.154 -2.2249  1.2942  1.7759
 4490TIP3    H235034   3.398   4.863   1.280 -0.1065 -0.1365  0.3471
 4491TIP3   OH235035   6.225   0.037   0.813 -0.0462  0.1321 -0.4539
 4491TIP3    H135036   6.150   0.022   0.871  1.9368  0.3166  2.3725
 4491TIP3    H235037   6.226  -0.038   0.754 -0.4803 -1.7362  1.7671
 4492TIP3   OH235038   3.685   4.900   7.203  0.1801 -0.3609  0.0535
 4492TIP3    H135039   3.634   4.903   7.122 -0.7537  0.5015  0.6456
 4492TIP3    H235040   3.646   4.830   7.255  1.4275 -1.6121 -0.6181
 4493TIP3   OH235041   2.961   1.183   7.912 -0.3636  0.3029  0.4340
 4493TIP3    H135042   2.977   1.210   8.002  0.9235  0.5984  0.1384
 4493TIP3    H235043   2.994   1.255   7.859 -0.4545 -0.1795 -0.2937
 4494TIP3   OH235044   3.372   4.610   7.027  0.1118 -0.1861  0.4252
 4494TIP3    H135045   3.337   4.635   6.942 -0.5042  1.9384  1.2253
 4494TIP3    H235046   3.295   4.596   7.082  0.4729  0.3154  1.0925
 4495TIP3   OH235047   6.776   2.609   1.517  0.5147 -0.1103 -0.5020
 4495TIP3    H135048   6.798   2.563   1.598  0.1302  0.9933  0.2511
 4495TIP3    H235049   6.682   2.594   1.506  0.3832  0.4786 -0.2433
 4496TIP3   OH235050   1.982   0.412   2.380  0.1799 -0.2088 -0.2974
 4496TIP3    H135051   2.047   0.381   2.318  0.3147  0.3480 -0.4419
 4496TIP3    H235052   2.025   0.484   2.427 -0.2648  0.0417 -0.2669
 4497TIP3   OH235053   0.496   6.350   0.239 -0.1338 -0.7426 -0.1836
 4497TIP3    H135054   0.440   6.428   0.228  1.0271  0.0077 -0.9554
 4497TIP3    H235055   0.502   6.339   0.333  0.2512  0.5525 -0.0289
 4498TIP3   OH235056   2.805   5.973   2.218  0.1252 -0.2640 -0.3941
 4498TIP3    H135057   2.734   5.995   2.279  1.8206  0.0521  1.5850
 4498TIP3    H235058   2.859   5.910   2.267  0.6780 -1.3007 -2.2417
 4499TIP3   OH235059   4.231   5.402   7.362 -0.0183 -0.5596 -0.4216
 4499TIP3    H135060   4.210   5.496   7.365  0.5429 -0.4456  2.4596
 4499TIP3    H235061   4.300   5.396   7.295  0.6637  1.2790  0.0464
 4500TIP3   OH235062   6.292   4.819   7.428 -0.5216 -0.1261  0.1155
 4500TIP3    H135063   6.236   4.750   7.393 -0.3529 -0.2115  0.0139
 4500TIP3    H235064   6.381   4.795   7.400 -0.4774  0.1905 -0.0202
 4501TIP3   OH235065   5.839   0.613   0.252  0.3159  0.0616  0.1163
 4501TIP3    H135066   5.812   0.679   0.188  0.8050 -0.7558 -0.9605
 4501TIP3    H235067   5.932   0.600   0.236  0.0939 -1.3940 -0.1892
 4502TIP3   OH235068   5.325   0.209   0.222 -0.2702 -0.1746 -0.1931
 4502TIP3    H135069   5.235   0.186   0.202  0.3031 -1.1673 -1.8402
 4502TIP3    H235070   5.318   0.287   0.277 -2.1119  1.5627 -2.6496
 4503TIP3   OH235071   0.010   0.852   8.558  0.5408  0.0113  0.1077
 4503TIP3    H135072   0.057   0.917   8.505 -1.1403  1.6758  0.5474
 4503TIP3    H235073  -0.061   0.822   8.502  0.5279 -0.4807  0.3786
 4504TIP3   OH235074   6.061   4.400   7.698 -0.1069 -0.2438  0.0436
 4504TIP3    H135075   6.112   4.328   7.735  1.3379  1.3775  1.3583
 4504TIP3    H235076   6.034   4.368   7.612  2.2011 -1.6138 -0.2571
 4505TIP3   OH235077   5.610   6.159   0.704 -0.8482  0.0266  0.6102
 4505TIP3    H135078   5.618   6.093   0.773  0.0625 -0.3636  0.1437
 4505TIP3    H235079   5.607   6.242   0.751 -0.8065 -0.2700  1.1477
 4506TIP3   OH235080   6.684   3.015   0.335 -0.3160  0.1518 -0.2738
 4506TIP3    H135081   6.754   2.977   0.389 -1.5119 -1.6101  0.1381
 4506TIP3    H235082   6.704   2.987   0.246  1.3855  2.6451 -0.7776
 4507TIP3   OH235083   0.327   2.128   8.229 -0.0645 -0.3468 -0.3544
 4507TIP3    H135084   0.292   2.190   8.165 -0.2152  0.4794  0.5193
 4507TIP3    H235085   0.355   2.053   8.176  1.9022  1.2235 -1.6623
 4508TIP3   OH235086   0.657   3.617   8.413 -0.1950 -0.3325  0.7816
 4508TIP3    H135087   0.688   3.681   8.476  0.0347 -0.4952  0.8341
 4508TIP3    H235088   0.563   3.609   8.430 -0.3222  0.3751  0.4263
 4509TIP3   OH235089   2.529   4.673   0.750  0.1365 -0.1732 -0.0603
 4509TIP3    H135090   2.599   4.641   0.693 -0.7261 -1.1212 -0.6238
 4509TIP3    H235091   2.471   4.598   0.762  0.4724 -0.1173  2.4053
 4510TIP3   OH235092   1.826   3.243   0.406 -0.0247 -0.2628 -0.6734
 4510TIP3    H135093   1.752   3.284   0.361 -1.0888 -1.5995 -0.2061
 4510TIP3    H235094   1.805   3.252   0.499 -0.1144 -1.5164 -0.5572
 4511TIP3   OH235095   5.917   2.432   8.511  0.2616  0.2308 -0.1493
 4511TIP3    H135096   5.832   2.435   8.466 -0.8671  0.4973  1.8767
 4511TIP3    H235097   5.915   2.349   8.559  1.7408 -0.3894 -1.1124
 4512TIP3   OH235098   0.118   6.003   1.460 -0.0730  0.1756 -0.0848
 4512TIP3    H135099   0.055   6.001   1.532  0.9722  0.8340  0.8741
 4512TIP3    H235100   0.072   5.959   1.388 -2.3551  2.2292 -0.0226
 4513TIP3   OH235101   2.268   3.242   7.498 -0.4491  0.0071  0.4569
 4513TIP3    H135102   2.342   3.294   7.532 -1.0820  1.1179  0.1742
 4513TIP3    H235103   2.191   3.285   7.534 -0.9798 -1.2194  0.8458
 4514TIP3   OH235104   4.456   0.330   8.558 -0.1150  0.1810 -0.1411
 4514TIP3    H135105   4.412   0.250   8.585  1.5696 -0.2424  1.5788
 4514TIP3    H235106   4.430   0.395   8.623  0.0228  0.5290 -0.4272
 4515TIP3   OH235107   4.851   5.987   1.204  0.5824 -0.2620  0.0417
 4515TIP3    H135108   4.900   5.980   1.286 -0.2117 -1.3576  0.4543
 4515TIP3    H235109   4.777   5.928   1.216  0.7066 -0.8034 -1.6608
 4516TIP3   OH235110   6.466   5.427   0.640  0.4754 -0.2062  0.2156
 4516TIP3    H135111   6.547   5.410   0.689  0.7926 -1.4333 -0.6821
 4516TIP3    H235112   6.402   5.369   0.680  0.4315 -0.3362 -0.0430
 4517TIP3   OH235113   6.331   4.102   8.452  0.4755  0.4662  0.2937
 4517TIP3    H135114   6.325   4.026   8.510  0.1033  0.7135  0.5883
 4517TIP3    H235115   6.275   4.168   8.493  1.4930  1.2160  0.5283
 4518TIP3   OH235116   0.110   5.052   2.058  0.7699  0.4354 -0.2304
 4518TIP3    H135117   0.091   5.078   2.148 -0.3719  1.4735 -0.7354
 4518TIP3    H235118   0.120   4.957   2.062 -0.6504  0.2959  0.7843
 4519TIP3   OH235119   1.837   4.517   7.967 -0.2672 -0.0399 -0.0389
 4519TIP3    H135120   1.796   4.586   7.915 -1.1106 -0.3406  0.2016
 4519TIP3    H235121   1.806   4.534   8.056  0.9342  0.3038  0.3324
 4520TIP3   OH235122   3.142   3.888   1.616 -0.2011  0.6851 -0.0491
 4520TIP3    H135123   3.213   3.948   1.593 -0.2530  0.9395  0.4389
 4520TIP3    H235124   3.187   3.813   1.655 -0.1525  0.5053 -0.4443
 4521TIP3   OH235125   1.984   3.897   7.828 -0.6522 -0.5159 -0.7897
 4521TIP3    H135126   2.052   3.936   7.773  1.4432 -0.2424  1.8530
 4521TIP3    H235127   2.002   3.803   7.826 -0.2877 -0.4607 -0.2265
 4522TIP3   OH235128   6.455   1.637   7.334  0.0622  0.2909  0.4175
 4522TIP3    H135129   6.404   1.568   7.291 -1.3768  2.5632 -1.7750
 4522TIP3    H235130   6.531   1.649   7.277  1.8251 -1.2740  2.2856
 4523TIP3   OH235131   6.702   4.583   8.302 -0.1307  0.4490  0.0610
 4523TIP3    H135132   6.722   4.643   8.231  1.5991  1.8935  1.6786
 4523TIP3    H235133   6.769   4.515   8.296  0.0628  0.6132  0.3370
 4524TIP3   OH235134   6.170   5.131   8.666  0.0826  0.2238  0.2030
 4524TIP3    H135135   6.234   5.088   8.722 -0.2321 -1.7394 -0.8575
 4524TIP3    H235136   6.146   5.211   8.713  2.0048  0.1297  1.4182
 4525TIP3   OH235137   0.978   2.476   7.355  0.0840 -0.2803  0.2538
 4525TIP3    H135138   0.887   2.463   7.330  0.9156 -1.0212 -2.7344
 4525TIP3    H235139   1.028   2.462   7.275  2.8620  0.1100  1.7742
 4526TIP3   OH235140   5.461   2.800   1.540 -0.1785 -0.5037 -0.3379
 4526TIP3    H135141   5.391   2.827   1.599 -0.0750 -0.8176 -0.0717
 4526TIP3    H235142   5.423   2.808   1.453 -0.1306  0.5848 -0.2729
 4527TIP3   OH235143   1.734   1.766   8.682 -0.0947 -0.0066  0.3048
 4527TIP3    H135144   1.687   1.834   8.729 -0.5420  0.8176 -1.2905
 4527TIP3    H235145   1.809   1.811   8.642 -0.5229 -0.3776 -0.9522
 4528TIP3   OH235146   3.976   4.005   0.144  0.0863 -0.0984  0.2968
 4528TIP3    H135147   4.032   4.036   0.073 -0.2900 -1.2838 -0.5408
 4528TIP3    H235148   3.928   3.931   0.107 -0.6923 -0.2552  1.5531
 4529TIP3   OH235149   0.410   2.036   7.872 -0.0644  0.9347  0.1126
 4529TIP3    H135150   0.468   1.969   7.908 -1.6883 -1.3050 -1.1491
 4529TIP3    H235151   0.322   2.003   7.890 -0.9886  0.4282 -4.2636
 4530TIP3   OH235152   2.034   4.801   0.354  0.5838  0.0018 -0.6575
 4530TIP3    H135153   2.098   4.835   0.291 -1.0880  0.8069 -1.9759
 4530TIP3    H235154   2.055   4.707   0.360  0.8405 -0.0851 -2.3796
 4531TIP3   OH235155   4.202   0.723   1.369  0.4122 -0.3737  0.0028
 4531TIP3    H135156   4.210   0.789   1.437  0.9045 -1.6714  1.2506
 4531TIP3    H235157   4.109   0.703   1.366  0.1336  0.9775 -1.0018
 4532TIP3   OH235158   4.021   1.111   8.340  0.5757  0.8298  0.4526
 4532TIP3    H135159   4.076   1.162   8.281  1.7357  1.3528  1.9000
 4532TIP3    H235160   3.969   1.176   8.387 -0.5073  0.4098 -0.1496
 4533TIP3   OH235161   1.235   1.166   7.366 -0.4475  0.9899  0.0057
 4533TIP3    H135162   1.172   1.201   7.303  0.3449 -1.1833 -2.1498
 4533TIP3    H235163   1.186   1.157   7.448 -2.6139  0.4770 -1.2802
 4534TIP3   OH235164   0.628   4.677   0.775 -0.0290  0.1423 -0.0300
 4534TIP3    H135165   0.602   4.641   0.861 -2.3975  0.0895 -0.6781
 4534TIP3    H235166   0.598   4.768   0.777  0.6013  0.3653 -0.5253
 4535TIP3   OH235167   3.533   1.529   1.214  0.0321  0.1118 -0.3673
 4535TIP3    H135168   3.535   1.516   1.309  0.7972 -1.8509 -0.6034
 4535TIP3    H235169   3.625   1.538   1.189  0.0263 -1.5029 -1.1244
 4536TIP3   OH235170   2.415   2.705   8.578  0.1640 -0.4511 -0.0205
 4536TIP3    H135171   2.485   2.727   8.516  0.5604  0.2665  0.6615
 4536TIP3    H235172   2.433   2.760   8.654 -1.2487 -0.1351  0.1060
 4537TIP3   OH235173   4.420   1.577   7.296  0.6386  0.4916 -0.8433
 4537TIP3    H135174   4.326   1.572   7.281  0.7282 -0.1531 -1.2335
 4537TIP3    H235175   4.454   1.622   7.218  0.9404 -1.6152 -2.0106
 4538TIP3   OH235176   3.491   4.721   1.818  0.4656  0.2012  0.3736
 4538TIP3    H135177   3.546   4.707   1.895  0.9426 -0.4460 -0.0663
 4538TIP3    H235178   3.464   4.632   1.792  1.4942  0.2659 -1.0404
 4539TIP3   OH235179   6.341   2.142   1.348  0.3046 -0.3624 -1.3198
 4539TIP3    H135180   6.428   2.164   1.383  0.4447 -1.2784 -1.0565
 4539TIP3    H235181   6.285   2.139   1.426 -0.3727  1.8862 -1.6433
 4540TIP3   OH235182   2.079   0.383   0.071 -0.6102 -0.1362  0.1166
 4540TIP3    H135183   2.001   0.419   0.029 -1.6131 -1.5729  0.6427
 4540TIP3    H235184   2.057   0.291   0.087  1.5139 -0.8267 -0.4850
 4541TIP3   OH235185   2.717   3.478   8.343 -0.1519  0.4717 -0.3821
 4541TIP3    H135186   2.799   3.430   8.349 -1.0587 -1.0435  0.5814
 4541TIP3    H235187   2.660   3.422   8.290 -0.7806  1.1768 -0.4694
 4542TIP3   OH235188   0.344   3.748   8.376 -0.1107 -0.1442 -0.7594
 4542TIP3    H135189   0.306   3.793   8.451 -1.7041 -0.1634 -1.5265
 4542TIP3    H235190   0.324   3.655   8.391  0.3656 -0.2566 -0.7812
 4543TIP3   OH235191   0.499   5.300   7.337  0.4753  0.1809  0.1269
 4543TIP3    H135192   0.446   5.333   7.265  0.7202 -1.0813 -0.6616
 4543TIP3    H235193   0.551   5.376   7.365 -0.6434  1.0387 -0.0705
 4544TIP3   OH235194   6.321   3.537   2.082 -0.2991 -0.2150 -0.0631
 4544TIP3    H135195   6.256   3.587   2.132 -0.9878 -1.4639  0.3216
 4544TIP3    H235196   6.316   3.449   2.118  0.1078 -0.8373 -1.4815
 4545TIP3   OH235197   6.631   6.164   8.134 -0.6230  0.0763  0.1952
 4545TIP3    H135198   6.698   6.116   8.184  0.2086  0.9754 -0.0326
 4545TIP3    H235199   6.556   6.168   8.194 -0.4557 -0.8517  0.4969
 4546TIP3   OH235200   6.404   4.013   2.115 -0.2990  1.0009 -0.1925
 4546TIP3    H135201   6.387   3.936   2.060 -2.8189  1.5603 -0.3070
 4546TIP3    H235202   6.412   3.977   2.204  1.9913  0.2980 -0.6134
 4547TIP3   OH235203   4.990   1.894   8.709 -0.3250  0.3726 -0.2463
 4547TIP3    H135204   5.064   1.952   8.693 -0.7085  0.4674 -1.8229
 4547TIP3    H235205   5.017   1.840   8.783  1.8309 -0.4058 -1.5040
 4548TIP3   OH235206   5.640   1.251   2.577  0.0509 -0.4629 -0.1662
 4548TIP3    H135207   5.657   1.328   2.523  0.7102 -0.7305 -0.3590
 4548TIP3    H235208   5.556   1.269   2.620  1.0092  1.1488  1.1694
 4549TIP3   OH235209   1.741   5.384   1.445  0.2091  1.0029  0.0120
 4549TIP3    H135210   1.788   5.465   1.425 -1.0724  1.3765 -1.6702
 4549TIP3    H235211   1.782   5.318   1.388 -0.0642  0.9165 -0.0859
 4550TIP3   OH235212   2.500   0.824   1.611 -0.2542  0.1762  0.1968
 4550TIP3    H135213   2.568   0.851   1.550 -0.5141  0.7008  0.1393
 4550TIP3    H235214   2.520   0.871   1.692 -0.5894  0.3912  0.1579
 4551TIP3   OH235215   0.717   3.356   1.041 -0.1171 -0.2228  0.3857
 4551TIP3    H135216   0.721   3.450   1.026 -0.5602 -0.4535 -1.4415
 4551TIP3    H235217   0.651   3.345   1.110  1.3588  0.8889  2.0496
 4552TIP3   OH235218   5.246   4.696   0.149 -0.0224  0.0753  0.4779
 4552TIP3    H135219   5.191   4.769   0.177  2.3412  2.0253  0.2867
 4552TIP3    H235220   5.215   4.676   0.061 -0.2979  1.2607  0.2894
 4553TIP3   OH235221   2.856   6.815   7.668  0.0279  0.7120 -0.2921
 4553TIP3    H135222   2.932   6.804   7.612  0.7664 -1.8750  1.0484
 4553TIP3    H235223   2.813   6.730   7.667 -0.6664  0.9704  1.9841
 4554TIP3   OH235224   1.608   0.640   7.246  0.4277 -0.6099 -0.0186
 4554TIP3    H135225   1.566   0.703   7.189  2.3408  1.3952  0.6705
 4554TIP3    H235226   1.635   0.568   7.188  0.0196  0.1470 -1.1667
 4555TIP3   OH235227   2.977   4.397   8.100  0.3522 -0.2899  0.0099
 4555TIP3    H135228   3.039   4.437   8.039  1.6116 -2.4979 -0.2807
 4555TIP3    H235229   3.023   4.396   8.184 -0.1924  0.0870  0.3115
 4556TIP3   OH235230   1.315   2.849   6.859  0.0620  0.0348  0.2028
 4556TIP3    H135231   1.378   2.786   6.824 -0.4275 -0.9677  1.0518
 4556TIP3    H235232   1.340   2.858   6.951 -1.5044 -1.0593  0.7948
 4557TIP3   OH235233   1.764   5.686   8.481 -0.2068  0.2843  0.6620
 4557TIP3    H135234   1.794   5.611   8.533  0.5493  1.0320  1.3286
 4557TIP3    H235235   1.791   5.665   8.392  0.2864 -0.1016  0.8940
 4558TIP3   OH235236   5.972   3.060   7.300 -0.0092 -0.1811  0.2378
 4558TIP3    H135237   6.029   3.105   7.239  0.8857 -0.6731  0.6991
 4558TIP3    H235238   5.884   3.095   7.282  0.4622  0.7136 -0.3444
 4559TIP3   OH235239   3.509   3.947   7.931  0.4662 -0.3114  0.2555
 4559TIP3    H135240   3.558   4.029   7.937 -0.3653  0.1519  0.8886
 4559TIP3    H235241   3.515   3.923   7.838 -1.5345  1.9149 -0.5408
 4560TIP3   OH235242   0.165   6.236   7.838 -0.2731 -0.0350 -0.1666
 4560TIP3    H135243   0.243   6.276   7.877  1.0773 -0.2147 -2.5488
 4560TIP3    H235244   0.097   6.303   7.847  0.3253  0.4211  1.2365
 4561TIP3   OH235245   6.063   1.192   1.477  0.1811  0.1632 -0.2940
 4561TIP3    H135246   6.067   1.180   1.572  0.1957 -0.5715 -0.3811
 4561TIP3    H235247   6.146   1.158   1.445 -1.1231 -2.7770 -0.8731
 4562TIP3   OH235248   0.673   1.483   1.404  0.6710  0.2406 -0.1531
 4562TIP3    H135249   0.581   1.501   1.387  0.5896  0.3672  0.4051
 4562TIP3    H235250   0.711   1.469   1.317 -0.1170 -0.9867 -0.3343
 4563TIP3   OH235251   3.459   0.343   7.178  0.4489  0.2208  0.2827
 4563TIP3    H135252   3.401   0.370   7.107  0.0188 -0.1254  0.4991
 4563TIP3    H235253   3.467   0.248   7.168  0.7037  0.2209  0.4624
 4564TIP3   OH235254   0.717   3.840   8.596  0.0793 -0.0261  0.1881
 4564TIP3    H135255   0.799   3.826   8.645  0.8139  1.0363 -0.6716
 4564TIP3    H235256   0.730   3.925   8.554 -1.1508 -0.2299 -0.6246
 4565TIP3   OH235257   0.284   3.896   1.235  0.5950  0.1676  0.0124
 4565TIP3    H135258   0.239   3.931   1.313  0.1762  0.8967 -0.5431
 4565TIP3    H235259   0.323   3.814   1.265 -2.7896 -1.6142  0.0637
 4566TIP3   OH235260   4.493   1.711   7.565 -0.0034 -0.0963 -0.4335
 4566TIP3    H135261   4.512   1.647   7.635 -1.1070 -0.7866 -0.7433
 4566TIP3    H235262   4.459   1.658   7.493  0.7148  0.6612 -1.3560
 4567TIP3   OH235263   2.639   2.673   7.890  0.9025 -0.5313  0.0771
 4567TIP3    H135264   2.544   2.667   7.904  0.8513  1.2439  0.6716
 4567TIP3    H235265   2.655   2.614   7.816 -0.6864 -0.7442 -0.1452
 4568TIP3   OH235266   3.990   0.225   7.571 -0.1769  0.3763 -0.1807
 4568TIP3    H135267   3.917   0.230   7.509  1.2309  0.5336 -1.9085
 4568TIP3    H235268   4.028   0.138   7.556 -0.6980 -0.1962  1.5676
 4569TIP3   OH235269   6.427   0.812   7.509  0.2048 -0.8436  0.1453
 4569TIP3    H135270   6.351   0.847   7.461 -0.6448 -1.0331  1.3159
 4569TIP3    H235271   6.502   0.856   7.469 -0.7235  1.4441  0.7235
 4570TIP3   OH235272   5.651   2.683   2.444 -0.8123 -0.1984  0.4874
 4570TIP3    H135273   5.659   2.761   2.499  1.1823  0.5830 -0.8132
 4570TIP3    H235274   5.572   2.698   2.392 -0.2383  1.1726 -0.0283
 4571TIP3   OH235275   2.715   6.381   1.998  0.2188  0.2991 -0.3469
 4571TIP3    H135276   2.700   6.352   2.088 -1.6671  1.6600 -0.1633
 4571TIP3    H235277   2.777   6.453   2.006  0.1651  0.3239 -0.1564
 4572TIP3   OH235278   2.328   6.392   8.366 -0.1365 -0.2336 -0.1437
 4572TIP3    H135279   2.332   6.400   8.461 -1.3935  1.8299 -0.2213
 4572TIP3    H235280   2.373   6.309   8.347 -0.6582 -1.1557  2.2997
 4573TIP3   OH235281   6.258   0.424   2.304 -0.1049  0.5235 -0.6023
 4573TIP3    H135282   6.342   0.468   2.287 -0.5868  1.2144 -1.2818
 4573TIP3    H235283   6.255   0.414   2.400  2.3678 -2.8502 -0.7329
 4574TIP3   OH235284   2.204   0.154   7.680 -0.0386  0.4456 -0.2784
 4574TIP3    H135285   2.192   0.192   7.593  0.1563  1.1685  0.0094
 4574TIP3    H235286   2.267   0.083   7.667 -0.8633 -0.2009 -0.9221
 4575TIP3   OH235287   6.737   3.265   0.522  0.3727  0.6602  0.3258
 4575TIP3    H135288   6.732   3.202   0.451  1.3332  0.2122  0.6286
 4575TIP3    H235289   6.830   3.291   0.524  0.2520  1.0673  1.0628
 4576TIP3   OH235290   0.798   3.345   0.757 -0.2541  0.2457 -0.3699
 4576TIP3    H135291   0.705   3.346   0.779 -0.4858 -1.2137 -1.1652
 4576TIP3    H235292   0.839   3.300   0.831 -0.0560  1.5142  0.3198
 4577TIP3   OH235293   5.583   3.596   1.842 -0.3316  0.1388 -0.4077
 4577TIP3    H135294   5.599   3.520   1.899 -1.8071 -0.8496 -1.2387
 4577TIP3    H235295   5.569   3.558   1.755  0.0608  1.4831 -1.0915
 4578TIP3   OH235296   2.030   6.350   2.135 -0.0274 -0.3196  0.2910
 4578TIP3    H135297   2.010   6.264   2.099 -1.4652  0.1195 -0.0317
 4578TIP3    H235298   1.961   6.365   2.200 -0.5303  1.0698 -0.5151
 4579TIP3   OH235299   4.435   5.472   8.666 -0.4938 -0.1934 -0.2751
 4579TIP3    H135300   4.465   5.396   8.617 -0.7601 -0.1758 -0.4667
 4579TIP3    H235301   4.495   5.478   8.740 -0.9370 -1.0561  0.1679
 4580TIP3   OH235302   5.251   1.725   0.943 -0.1287 -0.4705  0.3329
 4580TIP3    H135303   5.252   1.633   0.916 -1.7003 -0.8465  1.4355
 4580TIP3    H235304   5.218   1.772   0.867 -1.9695 -1.1807  0.6562
 4581TIP3   OH235305   2.354   4.418   0.402 -0.3814  0.1540 -0.2511
 4581TIP3    H135306   2.278   4.476   0.406 -0.2183  0.2839  2.0463
 4581TIP3    H235307   2.419   4.468   0.352 -0.6320  1.5237  0.7141
 4582TIP3   OH235308   6.558   2.116   2.097 -0.2277  0.3000  0.3339
 4582TIP3    H135309   6.490   2.049   2.100 -1.3500  1.4120  2.2429
 4582TIP3    H235310   6.618   2.093   2.169 -0.4600  1.1339  0.8159
 4583TIP3   OH235311   6.056   5.042   0.786  0.2135 -0.4871 -0.0742
 4583TIP3    H135312   6.075   5.005   0.872  0.6745 -0.6023 -0.2269
 4583TIP3    H235313   6.003   5.119   0.805 -0.4567 -1.0171  0.2666
 4584TIP3   OH235314   2.505   3.695   1.458 -0.1462 -0.9359 -0.1712
 4584TIP3    H135315   2.586   3.645   1.443  1.1918  1.3988 -1.4292
 4584TIP3    H235316   2.500   3.754   1.382 -2.4319 -0.2303  0.4741
 4585TIP3   OH235317   3.702   5.339   0.342 -0.0448  0.1699  0.2249
 4585TIP3    H135318   3.779   5.383   0.378 -0.6690  1.6651 -0.2065
 4585TIP3    H235319   3.714   5.342   0.247  0.5052 -1.7661  0.1851
 4586TIP3   OH235320   0.059   1.944   7.260  0.6004 -0.0940 -0.7065
 4586TIP3    H135321   0.117   1.939   7.184 -0.4698 -0.3686 -1.5289
 4586TIP3    H235322   0.055   2.037   7.282  1.0241 -0.0302 -0.8864
 4587TIP3   OH235323   4.382   1.547   0.825  0.9179  0.0948  0.5302
 4587TIP3    H135324   4.441   1.522   0.896 -0.2393  0.9360  1.8355
 4587TIP3    H235325   4.336   1.624   0.858 -0.4395 -0.1452 -0.6913
 4588TIP3   OH235326   2.754   1.602   1.110  0.7882  0.2497 -0.2665
 4588TIP3    H135327   2.710   1.610   1.025 -1.2519 -0.5071  0.6464
 4588TIP3    H235328   2.798   1.685   1.122  1.3693  0.2744 -2.1828
 4589TIP3   OH235329   5.007   0.385   8.072  0.0436 -0.0539 -0.3454
 4589TIP3    H135330   4.949   0.330   8.125  1.4277 -1.2262  0.0285
 4589TIP3    H235331   4.956   0.463   8.053 -0.4559  0.5454  2.9196
 4590TIP3   OH235332   6.794   1.227   6.373 -0.1350 -0.2939  0.5190
 4590TIP3    H135333   6.865   1.167   6.348  0.5680  0.4396  0.7429
 4590TIP3    H235334   6.727   1.213   6.306  0.3247 -0.8111  0.1568
 4591TIP3   OH235335   4.067   2.477   7.695 -0.1102  0.2106 -0.3037
 4591TIP3    H135336   4.147   2.435   7.727  0.5855  1.5782 -0.1786
 4591TIP3    H235337   4.009   2.478   7.771  0.5532  1.0769  0.2145
 4592TIP3   OH235338   3.459   2.668   7.052  0.2697  0.3499  0.2556
 4592TIP3    H135339   3.535   2.650   6.997  0.8453  0.7617  0.8976
 4592TIP3    H235340   3.408   2.587   7.048  0.1405  0.4841 -1.1163
 4593TIP3   OH235341   3.680   6.509   2.508 -0.5066 -0.0432 -0.1632
 4593TIP3    H135342   3.682   6.599   2.541  2.2515 -0.5866  1.3605
 4593TIP3    H235343   3.744   6.508   2.437 -0.4149 -0.8525 -0.0753
 4594TIP3   OH235344   4.627   5.174   1.469  0.4865  0.1107 -0.2841
 4594TIP3    H135345   4.718   5.146   1.467  0.4574  0.0735 -1.1736
 4594TIP3    H235346   4.631   5.270   1.466  0.5391  0.2059  1.4608
 4595TIP3   OH235347   6.542   4.099   0.506 -0.1796 -0.2340 -0.0112
 4595TIP3    H135348   6.523   4.191   0.488 -2.2658  0.2216  3.5316
 4595TIP3    H235349   6.611   4.101   0.573 -1.7943 -1.0355  1.7687
 4596TIP3   OH235350   3.028   3.163   7.911 -0.6669  0.0661  0.1695
 4596TIP3    H135351   3.103   3.221   7.924 -1.7061  1.7411 -0.8423
 4596TIP3    H235352   2.953   3.214   7.942 -1.5290 -1.0687  0.0020
 4597TIP3   OH235353   1.236   4.413   1.286  0.6057 -0.7485  0.5310
 4597TIP3    H135354   1.180   4.340   1.260 -0.0726  0.0961 -0.4126
 4597TIP3    H235355   1.302   4.373   1.343  0.6005 -2.2133 -0.4361
 4598TIP3   OH235356   0.510   1.940   1.926 -0.6795 -0.5832 -0.4452
 4598TIP3    H135357   0.472   2.020   1.889 -0.1960  1.9111  3.7848
 4598TIP3    H235358   0.445   1.909   1.988  1.0738 -0.4776  1.5749
 4599TIP3   OH235359   0.336   0.726   6.951  1.1079 -0.2849 -0.6221
 4599TIP3    H135360   0.396   0.708   7.023  0.8487 -1.6040 -0.7123
 4599TIP3    H235361   0.336   0.646   6.898 -1.6510 -0.8430  0.0474
 4600TIP3   OH235362   2.378   1.284   0.982  0.2246 -0.6033 -0.0974
 4600TIP3    H135363   2.401   1.266   1.073 -0.9363 -0.1019  0.3165
 4600TIP3    H235364   2.350   1.376   0.983  2.9946  0.3750 -1.5397
 4601TIP3   OH235365   6.542   5.213   1.955  0.4963  0.3042 -0.8400
 4601TIP3    H135366   6.543   5.163   1.874  0.7005 -1.5938  0.2851
 4601TIP3    H235367   6.449   5.229   1.973  0.2985 -1.2069 -0.3507
 4602TIP3   OH235368   0.376   1.676   1.869  0.4458 -0.4154 -0.7289
 4602TIP3    H135369   0.356   1.762   1.833 -0.8263 -0.2103  0.3884
 4602TIP3    H235370   0.462   1.654   1.833  2.0823  2.4900  1.0343
 4603TIP3   OH235371   0.995   5.554   0.028  0.1015 -0.1237 -0.2746
 4603TIP3    H135372   1.075   5.519  -0.012 -0.5684 -1.5605 -0.4232
 4603TIP3    H235373   0.967   5.624  -0.031  0.0015 -1.1528 -1.4860
 4604TIP3   OH235374   3.613   3.466   1.056  0.4558 -0.1091  0.3006
 4604TIP3    H135375   3.564   3.477   0.974 -0.7641 -2.4957  0.6139
 4604TIP3    H235376   3.673   3.540   1.058  1.3616 -0.5337 -3.3496
 4605TIP3   OH235377   1.126   6.794   7.922  0.3808 -1.0670  0.0794
 4605TIP3    H135378   1.182   6.717   7.919  0.5560 -0.9387  0.0662
 4605TIP3    H235379   1.073   6.782   8.000  1.1022 -0.7193  0.6378
 4606TIP3   OH235380   4.895   0.145   8.733  0.0322  0.1158  0.2847
 4606TIP3    H135381   4.812   0.181   8.704  0.9843  0.3873 -2.3816
 4606TIP3    H235382   4.929   0.097   8.658  2.4610  0.3298  1.1298
 4607TIP3   OH235383   1.723   3.192   7.784 -0.1236  0.0605 -0.4377
 4607TIP3    H135384   1.709   3.110   7.737 -1.2860 -0.2065  0.3118
 4607TIP3    H235385   1.644   3.243   7.768 -0.9341 -0.3637  1.7897
 4608TIP3   OH235386   2.401   5.615   2.004 -0.2931  0.8901  0.6045
 4608TIP3    H135387   2.344   5.655   2.070 -1.5022  0.1484  0.0374
 4608TIP3    H235388   2.488   5.650   2.024 -1.3422  4.4270 -0.2796
 4609TIP3   OH235389   2.843   1.991   0.208 -0.4457  0.4482 -0.0362
 4609TIP3    H135390   2.878   2.069   0.164  1.4208 -0.2559  0.0985
 4609TIP3    H235391   2.768   1.965   0.155  0.5040  0.8086 -1.6177
 4610TIP3   OH235392   5.497   1.240   8.640  0.2627 -1.1160 -0.5320
 4610TIP3    H135393   5.485   1.146   8.625  1.0686 -1.2143 -0.6597
 4610TIP3    H235394   5.419   1.281   8.604  0.5267 -1.6422 -1.7615
 4611TIP3   OH235395   2.876   5.132   8.555  0.2815 -0.3911 -0.5864
 4611TIP3    H135396   2.837   5.048   8.533 -0.1735 -0.0829 -0.9570
 4611TIP3    H235397   2.884   5.130   8.650  2.6087 -1.8923 -0.7106
 4612TIP3   OH235398   0.903   1.303   1.725  0.0998  0.3446 -0.2142
 4612TIP3    H135399   0.826   1.360   1.731 -0.5949 -0.3223 -2.1136
 4612TIP3    H235400   0.930   1.289   1.816 -1.1265  1.7778  0.4086
 4613TIP3   OH235401   1.281   4.131   1.553 -0.5116  0.3611 -0.1558
 4613TIP3    H135402   1.311   4.094   1.636  1.0301  1.0531 -0.3708
 4613TIP3    H235403   1.292   4.225   1.564  0.3190  0.4223 -1.3467
 4614TIP3   OH235404   3.291   1.458   7.666  0.2667  0.2510  0.5290
 4614TIP3    H135405   3.269   1.445   7.758 -0.0039 -1.1872  0.2771
 4614TIP3    H235406   3.376   1.416   7.655 -0.6022 -1.3647 -0.3012
 4615TIP3   OH235407   4.909   2.102   6.997  0.1213 -0.0480 -0.3053
 4615TIP3    H135408   4.945   2.098   6.908  0.7854 -1.1418  0.0078
 4615TIP3    H235409   4.814   2.093   6.984  0.1880  0.0427 -0.9103
 4616TIP3   OH235410   4.213   6.599   0.438 -0.3396 -0.0725 -0.3066
 4616TIP3    H135411   4.187   6.636   0.522 -2.4874  0.1231 -0.9856
 4616TIP3    H235412   4.308   6.613   0.434 -0.5147  2.0664  1.0462
 4617TIP3   OH235413   1.995   4.667   2.377 -0.2071  0.2445  0.3239
 4617TIP3    H135414   1.940   4.743   2.360  0.5291  0.3309 -1.9027
 4617TIP3    H235415   2.084   4.701   2.378  0.0453 -0.4011  0.6581
 4618TIP3   OH235416   6.277   1.315   8.291 -0.0612  0.2653  0.1148
 4618TIP3    H135417   6.315   1.369   8.222 -0.0508  0.0601 -0.0396
 4618TIP3    H235418   6.293   1.364   8.371  0.5305  0.1822  0.0537
 4619TIP3   OH235419   6.474   3.763   1.997 -0.8511 -0.2606 -0.0245
 4619TIP3    H135420   6.554   3.764   2.049 -0.5223  1.0425 -0.5094
 4619TIP3    H235421   6.436   3.676   2.012  0.9150 -1.0936 -0.1931
 4620TIP3   OH235422   4.337   3.782   7.497  0.5573  0.1558 -0.3560
 4620TIP3    H135423   4.401   3.778   7.568  1.6873  0.7711 -1.3084
 4620TIP3    H235424   4.369   3.851   7.439  1.0948 -1.9892 -2.7911
 4621TIP3   OH235425   5.859   5.432   6.718  0.4507  0.1765  0.1335
 4621TIP3    H135426   5.953   5.450   6.712  0.3798  0.8135  0.8276
 4621TIP3    H235427   5.820   5.481   6.645  0.7081 -0.5177 -0.4790
 4622TIP3   OH235428   1.734   3.979   1.713 -0.3547 -0.6670 -0.1382
 4622TIP3    H135429   1.723   4.057   1.768 -0.8560 -0.2216 -0.8592
 4622TIP3    H235430   1.819   3.990   1.671  0.2074 -1.1933  0.8174
 4623TIP3   OH235431   5.950   2.986   1.964 -0.0690 -0.0375  0.1512
 4623TIP3    H135432   5.983   2.899   1.986  0.6512  0.8680  3.0524
 4623TIP3    H235433   5.870   2.969   1.914  0.1123 -2.3679  0.5238
 4624TIP3   OH235434   5.033   3.137   6.962 -0.3503  0.5036  0.8896
 4624TIP3    H135435   5.006   3.045   6.968 -1.6884  0.8506  0.6166
 4624TIP3    H235436   5.103   3.137   6.897 -1.1550 -0.1729 -0.0121
 4625TIP3   OH235437   6.596   5.703   7.583  0.0410  0.4470  0.0286
 4625TIP3    H135438   6.673   5.688   7.529 -1.3974 -1.6435 -1.5904
 4625TIP3    H235439   6.552   5.618   7.587 -0.8116  0.8935  3.1892
 4626TIP3   OH235440   6.310   4.078   6.277 -0.3997  0.2300 -0.0101
 4626TIP3    H135441   6.404   4.094   6.285 -0.8482  3.2787  0.1414
 4626TIP3    H235442   6.294   4.075   6.183 -0.1026 -1.0335 -0.0452
 4627TIP3   OH235443   2.565   0.276   6.978  0.8420  0.1140  0.0795
 4627TIP3    H135444   2.492   0.301   6.921  0.3004 -0.5617  0.4679
 4627TIP3    H235445   2.613   0.210   6.928 -0.0780 -1.0494  0.7037
 4628TIP3   OH235446   4.147   0.156   1.513  0.3680 -0.4930 -0.6560
 4628TIP3    H135447   4.224   0.212   1.513  0.5286 -0.6755  0.6490
 4628TIP3    H235448   4.162   0.093   1.584 -0.8165 -0.7482 -0.5954
 4629TIP3   OH235449   0.658   5.279   1.310 -0.2978 -0.8059 -0.0510
 4629TIP3    H135450   0.685   5.299   1.400 -2.8761  0.8700  0.4763
 4629TIP3    H235451   0.739   5.285   1.259  0.9467  0.0589  1.8825
 4630TIP3   OH235452   2.755   4.720   1.206  0.2507  0.3203  0.1363
 4630TIP3    H135453   2.843   4.695   1.178 -0.4714 -0.6202 -1.4393
 4630TIP3    H235454   2.699   4.647   1.178 -0.9715  0.6661  1.5332
 4631TIP3   OH235455   1.874   2.076   2.876  0.3898  0.4920  0.1896
 4631TIP3    H135456   1.797   2.021   2.891  0.6466  0.5369  1.8591
 4631TIP3    H235457   1.839   2.155   2.835 -0.5814  0.8701  1.6964
 4632TIP3   OH235458   1.125   3.112   1.259  0.4035  0.3603 -0.0235
 4632TIP3    H135459   1.040   3.156   1.263  0.4169  0.2991  1.3370
 4632TIP3    H235460   1.136   3.072   1.345  0.8067 -1.5500 -0.9059
 4633TIP3   OH235461   1.999   0.534   1.432 -0.6405 -0.2209  1.0424
 4633TIP3    H135462   2.002   0.550   1.526  4.1506 -2.1963  1.4588
 4633TIP3    H235463   1.985   0.440   1.424 -0.6926 -0.1199 -0.2337
 4634TIP3   OH235464   3.152   5.939   7.018  0.2793  0.1502  0.1092
 4634TIP3    H135465   3.212   5.956   7.090  1.4835 -1.1412 -0.5553
 4634TIP3    H235466   3.070   5.912   7.061  0.6298  0.4556  0.9901
 4635TIP3   OH235467   2.345   6.800   0.642 -0.3459 -0.1078 -0.6012
 4635TIP3    H135468   2.397   6.723   0.620  0.1571  0.0985 -0.1521
 4635TIP3    H235469   2.293   6.772   0.717  0.1359  0.1105 -0.1808
 4636TIP3   OH235470   4.320   2.045   2.212 -0.5798 -0.5991 -0.1338
 4636TIP3    H135471   4.397   2.086   2.252 -0.5975  0.1715 -0.8491
 4636TIP3    H235472   4.356   1.969   2.166  0.1534  0.9368 -2.2752
 4637TIP3   OH235473   1.508   5.188   7.065  0.1002 -0.3084  0.4711
 4637TIP3    H135474   1.565   5.265   7.069 -0.3416  0.0259  0.3911
 4637TIP3    H235475   1.507   5.164   6.972 -2.1639  1.4352 -0.0467
 4638TIP3   OH235476   2.866   0.021   8.328 -0.0627  0.2696  0.5166
 4638TIP3    H135477   2.957   0.012   8.356  0.3046  1.1175 -0.3375
 4638TIP3    H235478   2.843   0.111   8.352 -0.0958  0.6423 -0.7971
 4639TIP3   OH235479   3.046   3.907   7.233 -0.6032  0.0763 -0.3356
 4639TIP3    H135480   3.106   3.949   7.172 -1.6514  0.8673 -0.8440
 4639TIP3    H235481   3.006   3.835   7.183  0.9973 -1.4371  0.4529
 4640TIP3   OH235482   3.266   6.562   8.626 -0.3711  0.3428  0.4044
 4640TIP3    H135483   3.171   6.554   8.633 -0.4923  0.5991 -0.7786
 4640TIP3    H235484   3.295   6.581   8.716 -1.3590 -0.3682  0.8899
 4641TIP3   OH235485   3.808   2.469   6.816 -0.3729 -0.1050 -0.2106
 4641TIP3    H135486   3.849   2.392   6.854 -1.1179 -0.2291  0.3797
 4641TIP3    H235487   3.879   2.516   6.772  0.3148 -0.5076  0.4477
 4642TIP3   OH235488   6.284   4.254   8.089 -0.2031  0.5846 -0.3303
 4642TIP3    H135489   6.361   4.312   8.092 -1.0194  1.7715 -1.1848
 4642TIP3    H235490   6.215   4.303   8.134 -0.2914 -0.8080  1.1362
 4643TIP3   OH235491   4.918   3.273   6.542  0.4523  0.1557 -0.0984
 4643TIP3    H135492   4.896   3.366   6.534 -0.9200 -0.1981 -0.5975
 4643TIP3    H235493   4.864   3.230   6.477  1.4817 -0.9511 -0.2481
 4644TIP3   OH235494   2.227   5.023   7.174  0.2149  0.5871  0.3308
 4644TIP3    H135495   2.235   4.968   7.252  0.4745 -1.7033 -1.2252
 4644TIP3    H235496   2.144   5.069   7.185 -0.4920 -0.8382  1.2779
 4645TIP3   OH235497   0.516   5.000   7.899  0.1024  0.2982  0.1669
 4645TIP3    H135498   0.579   5.071   7.884  0.6631 -0.1896  0.2130
 4645TIP3    H235499   0.434   5.046   7.917  0.3974  0.9380 -0.0640
 4646TIP3   OH235500   3.048   1.374   2.025  0.3024 -0.1083 -0.2231
 4646TIP3    H135501   3.103   1.368   1.947  0.2485  1.4660 -0.4065
 4646TIP3    H235502   3.066   1.461   2.061 -1.3057  0.0478  0.2815
 4647TIP3   OH235503   4.129   6.059   1.863 -0.2861 -0.3148  0.3110
 4647TIP3    H135504   4.131   6.060   1.767 -0.6449 -0.0463  0.3010
 4647TIP3    H235505   4.045   6.099   1.885  0.5329  1.1920  0.7769
 4648TIP3   OH235506   5.649   0.109   8.402 -0.0150  0.2638 -0.2349
 4648TIP3    H135507   5.582   0.051   8.438  0.6594 -1.8626 -2.2039
 4648TIP3    H235508   5.613   0.138   8.318 -0.6261  3.3771  0.9429
 4649TIP3   OH235509   4.716   0.064   1.309  0.1196  0.5923  0.1914
 4649TIP3    H135510   4.622   0.081   1.310  0.1806  1.1412 -1.1230
 4649TIP3    H235511   4.755   0.145   1.277  0.9911  0.1830  0.1730
 4650TIP3   OH235512   1.890   2.674   8.223 -0.6711 -0.6223 -0.0437
 4650TIP3    H135513   1.945   2.598   8.203 -0.8570 -0.6523 -0.4360
 4650TIP3    H235514   1.801   2.640   8.222 -0.6870 -0.6750  1.0485
 4651TIP3   OH235515   5.024   5.988   1.445  0.4324 -0.7162  0.5764
 4651TIP3    H135516   4.956   5.938   1.488  1.1489 -2.0422  0.2142
 4651TIP3    H235517   5.106   5.947   1.473  1.0214 -0.0189 -0.0688
 4652TIP3   OH235518   2.984   0.382   0.731 -0.6625  0.3660 -0.2350
 4652TIP3    H135519   2.931   0.336   0.796 -1.2878 -1.1818 -1.7601
 4652TIP3    H235520   2.929   0.384   0.652  0.7673  0.4896 -1.2757
 4653TIP3   OH235521   6.706   2.874   0.792 -0.7045 -0.2427 -0.0804
 4653TIP3    H135522   6.777   2.935   0.811  0.5772 -0.4210 -3.6082
 4653TIP3    H235523   6.735   2.791   0.828 -0.0247  0.0886  0.1457
 4654TIP3   OH235524   1.480   2.716   0.405 -0.5287 -0.0523 -0.2741
 4654TIP3    H135525   1.399   2.718   0.456 -0.3661  2.4571  0.0264
 4654TIP3    H235526   1.496   2.808   0.381  1.4236 -0.6645 -1.6342
 4655TIP3   OH235527   5.994   0.050   6.881  0.7233  0.1306 -0.2750
 4655TIP3    H135528   6.082   0.031   6.911  0.6382 -0.4622 -0.3947
 4655TIP3    H235529   5.965  -0.030   6.838 -0.1199  0.1005  0.3277
 4656TIP3   OH235530   6.479   6.660   7.204 -0.0438 -0.0231  0.0244
 4656TIP3    H135531   6.441   6.627   7.286  0.8308 -0.1541  0.3867
 4656TIP3    H235532   6.473   6.755   7.212  1.9086  0.0578  1.1982
 4657TIP3   OH235533   4.737   1.984   0.534  0.2578  0.3021  0.2274
 4657TIP3    H135534   4.729   1.942   0.619 -1.5330 -0.2550 -0.1631
 4657TIP3    H235535   4.655   1.962   0.489  1.7003 -0.5830 -2.1452
 4658TIP3   OH235536   3.069   6.037   0.934 -0.4553 -0.2299  0.4084
 4658TIP3    H135537   3.026   5.957   0.903  1.3397 -1.2766  0.4581
 4658TIP3    H235538   3.071   6.094   0.858 -0.9985 -0.5727  0.1291
 4659TIP3   OH235539   6.610   1.009   1.682 -0.2022 -0.5198 -0.5148
 4659TIP3    H135540   6.622   1.050   1.596  0.6956 -2.3027 -1.3051
 4659TIP3    H235541   6.558   0.931   1.663  1.4113 -1.8367  0.2626
 4660TIP3   OH235542   1.041   3.590   8.476  0.3785 -0.2446 -0.1301
 4660TIP3    H135543   1.078   3.676   8.455  3.2762 -0.7402  2.2241
 4660TIP3    H235544   1.058   3.537   8.399  0.4976  0.7167 -0.7925
 4661TIP3   OH235545   2.326   2.539   8.800 -0.4310 -0.3049  0.0209
 4661TIP3    H135546   2.347   2.600   8.729 -0.0327 -1.0631 -0.5289
 4661TIP3    H235547   2.315   2.595   8.877  0.5656  0.4086 -0.3285
 4662TIP3   OH235548   2.494   3.935   1.279  0.4700  0.4617  0.8490
 4662TIP3    H135549   2.586   3.913   1.263  0.1183 -0.5800  0.1279
 4662TIP3    H235550   2.497   4.010   1.339  1.7840  0.6357  0.5945
 4663TIP3   OH235551   3.687   0.266   0.517  0.2554  0.4304 -0.5445
 4663TIP3    H135552   3.647   0.250   0.603  1.3383  1.0219  0.0913
 4663TIP3    H235553   3.614   0.295   0.462 -0.2878  1.0043  0.4442
 4664TIP3   OH235554   0.886   0.811   8.684  0.0346 -0.9370  0.0057
 4664TIP3    H135555   0.957   0.760   8.722  1.5261  0.7601 -0.3745
 4664TIP3    H235556   0.857   0.760   8.609  2.3322 -0.7141 -1.1092
 4665TIP3   OH235557   5.518   0.329   7.096  0.5220  0.1270 -0.5477
 4665TIP3    H135558   5.579   0.359   7.163 -0.7503  0.5907  0.4469
 4665TIP3    H235559   5.445   0.289   7.145  1.3571 -3.2104 -1.7660
 4666TIP3   OH235560   4.335   3.800   7.148  0.1642  0.1294 -0.1926
 4666TIP3    H135561   4.279   3.817   7.223  1.2934  0.8024  0.5415
 4666TIP3    H235562   4.348   3.705   7.148  0.0636  0.1121  0.3970
 4667TIP3   OH235563   5.498   6.217   7.598 -0.2283 -0.0852 -0.5658
 4667TIP3    H135564   5.522   6.309   7.603 -4.1389  1.0502  3.1913
 4667TIP3    H235565   5.558   6.172   7.657 -0.5320  0.7169  0.3624
 4668TIP3   OH235566   1.177   5.867   8.174  0.2748 -0.0095 -0.3918
 4668TIP3    H135567   1.250   5.806   8.186  1.3038  1.2730  0.2747
 4668TIP3    H235568   1.217   5.944   8.134 -0.9565  0.2993 -1.0742
 4669TIP3   OH235569   5.057   0.447   7.152 -0.4106 -0.6382  0.4224
 4669TIP3    H135570   5.011   0.499   7.218 -1.2058  0.2645 -0.7903
 4669TIP3    H235571   4.988   0.409   7.098  0.2155  0.0232 -0.8994
 4670TIP3   OH235572   1.314   0.683   1.970 -0.3011  0.2320  0.6586
 4670TIP3    H135573   1.283   0.736   2.044 -0.4238  1.8496 -0.4945
 4670TIP3    H235574   1.255   0.705   1.898 -0.3650 -1.5353  0.1329
 4671TIP3   OH235575   0.466   0.974   8.359 -0.6399  0.4299  0.4866
 4671TIP3    H135576   0.548   0.941   8.396 -0.5068  0.0473 -0.1189
 4671TIP3    H235577   0.433   1.036   8.423 -0.3676 -0.1414  1.1857
 4672TIP3   OH235578   2.695   1.479   0.436 -0.1337 -0.3377  0.1240
 4672TIP3    H135579   2.789   1.491   0.444 -0.2741  1.1424 -0.1155
 4672TIP3    H235580   2.666   1.553   0.382 -1.1309 -1.9789 -1.7472
 4673TIP3   OH235581   1.644   2.859   1.757 -0.2699  0.1520 -0.9744
 4673TIP3    H135582   1.553   2.831   1.767 -0.0496 -0.2181  0.1145
 4673TIP3    H235583   1.654   2.874   1.663 -1.0365 -1.2663 -1.3164
 4674TIP3   OH235584   6.730   4.848   0.338  0.0789 -0.2540 -0.1227
 4674TIP3    H135585   6.796   4.892   0.393  1.2790 -0.7791 -1.0957
 4674TIP3    H235586   6.740   4.755   0.359 -1.0267 -0.2725  0.4023
 4675TIP3   OH235587   4.665   3.244   7.066  0.0301  0.2653  0.4276
 4675TIP3    H135588   4.710   3.160   7.054 -2.4780 -2.0577  4.6845
 4675TIP3    H235589   4.606   3.251   6.991  0.2757 -1.8359 -0.0201
 4676TIP3   OH235590   5.680   0.220   2.023 -0.1437 -0.0982 -0.1043
 4676TIP3    H135591   5.753   0.249   2.079 -0.1317 -0.4062  0.0474
 4676TIP3    H235592   5.605   0.270   2.054 -0.1801 -0.4096  0.3292
 4677TIP3   OH235593   4.496   1.594   8.729 -1.2473 -0.0895  0.8288
 4677TIP3    H135594   4.506   1.569   8.821  1.9782 -1.1837  0.3265
 4677TIP3    H235595   4.464   1.515   8.686 -0.0664 -0.5075  0.6603
 4678TIP3   OH235596   6.428   0.806   1.675 -0.6337 -0.6153 -0.2140
 4678TIP3    H135597   6.334   0.824   1.674 -0.5015  0.2419  0.7609
 4678TIP3    H235598   6.445   0.772   1.762  0.2727  1.1769  0.3550
 4679TIP3   OH235599   4.017   1.419   1.297  0.2704  0.0607  0.0911
 4679TIP3    H135600   3.995   1.406   1.389  2.2450  1.0981  0.7842
 4679TIP3    H235601   4.054   1.508   1.294  2.9119 -0.9721 -1.0953
 4680TIP3   OH235602   5.842   5.550   1.526 -0.3118  0.5259  0.4560
 4680TIP3    H135603   5.814   5.570   1.616  0.6839  0.7723  0.7215
 4680TIP3    H235604   5.912   5.614   1.508  0.1733 -0.1584 -0.1371
 4681TIP3   OH235605   5.983   2.576   8.715 -0.6678 -0.4506 -0.1569
 4681TIP3    H135606   5.963   2.548   8.626  1.4798 -0.8188 -0.5899
 4681TIP3    H235607   5.967   2.499   8.769 -0.9333 -0.5570 -0.3892
 4682TIP3   OH235608   1.803   6.576   1.882  0.4406  0.2466  0.5980
 4682TIP3    H135609   1.726   6.522   1.902  1.1607 -0.6728  0.9675
 4682TIP3    H235610   1.827   6.552   1.792 -0.3964  1.4154  0.0381
 4683TIP3   OH235611   5.271   6.478   0.963 -0.1194 -0.0770 -0.1772
 4683TIP3    H135612   5.314   6.451   0.882  1.6682 -0.2723  0.7711
 4683TIP3    H235613   5.187   6.434   0.962 -0.2486  0.1506 -2.0448
 4684TIP3   OH235614   0.898   3.017   8.267 -0.1464 -0.5675 -0.3533
 4684TIP3    H135615   0.943   3.032   8.350  1.8678  0.1954 -1.5130
 4684TIP3    H235616   0.918   2.925   8.246  0.8721 -0.2387 -0.8507
 4685TIP3   OH235617   0.634   5.347   0.356  0.2107 -0.4489 -0.7504
 4685TIP3    H135618   0.619   5.406   0.283  2.3434  0.0953 -0.7972
 4685TIP3    H235619   0.676   5.270   0.317  0.6688 -0.4843 -0.2012
 4686TIP3   OH235620   2.763   5.043   1.577 -0.4220 -0.1527 -0.1544
 4686TIP3    H135621   2.723   4.989   1.508  1.4347  1.0521 -2.2938
 4686TIP3    H235622   2.794   4.979   1.642 -0.8891 -1.4379 -1.1479
 4687TIP3   OH235623   0.351   5.470   7.125 -0.3796  0.0048  0.1892
 4687TIP3    H135624   0.260   5.452   7.148 -0.7753 -0.7630 -1.8428
 4687TIP3    H235625   0.370   5.554   7.168 -0.6426 -1.7273  4.1672
 4688TIP3   OH235626   1.385   6.139   0.293 -0.2009  0.5891  0.5030
 4688TIP3    H135627   1.389   6.090   0.375  0.2801 -0.8186 -0.3125
 4688TIP3    H235628   1.419   6.078   0.227 -2.8405  0.7773 -1.1648
 4689TIP3   OH235629   4.295   2.992   6.818  0.1009 -0.2839 -0.3226
 4689TIP3    H135630   4.254   3.009   6.903  0.1332 -1.4012 -0.0635
 4689TIP3    H235631   4.225   3.003   6.755 -0.3210 -1.0334  0.0091
 4690TIP3   OH235632   0.592   3.527   0.045  0.0973 -0.3145  0.3124
 4690TIP3    H135633   0.655   3.598   0.062 -1.3723  0.7596  1.5047
 4690TIP3    H235634   0.519   3.545   0.104 -0.8890 -2.1206 -0.2940
 4691TIP3   OH235635   2.292   4.236   0.948  0.5043 -0.6075  0.5047
 4691TIP3    H135636   2.309   4.145   0.971 -0.2899 -0.2039  3.0615
 4691TIP3    H235637   2.215   4.260   0.999 -0.5885  0.9536 -1.6862
 4692TIP3   OH235638   1.245   3.302   7.271 -0.3326  0.0764 -0.7986
 4692TIP3    H135639   1.214   3.231   7.216 -1.6671 -0.5030  0.6177
 4692TIP3    H235640   1.165   3.349   7.296  0.4584  1.6525 -1.1269
 4693TIP3   OH235641   0.967   3.222   7.255 -0.2618 -0.4515  0.3614
 4693TIP3    H135642   0.986   3.144   7.306 -0.8390 -0.5073  0.4990
 4693TIP3    H235643   0.967   3.192   7.164  1.2920 -0.2493  0.2567
 4694TIP3   OH235644   4.796   1.958   7.371 -0.3854 -0.3615 -0.5773
 4694TIP3    H135645   4.865   2.018   7.344  0.6003 -1.5478 -0.8141
 4694TIP3    H235646   4.791   1.966   7.466  0.5326 -0.7179 -0.4929
 4695TIP3   OH235647   0.942   6.062   7.609 -0.2074  0.1851 -0.3471
 4695TIP3    H135648   0.868   6.012   7.574 -2.1558  0.7886  2.5847
 4695TIP3    H235649   0.930   6.150   7.574 -3.5013  1.4149  3.1624
 4696TIP3   OH235650   3.626   1.806   8.102  0.0652 -0.5717  0.4334
 4696TIP3    H135651   3.666   1.886   8.068 -0.2714 -0.4224  0.3752
 4696TIP3    H235652   3.578   1.834   8.180  0.0679 -0.7412  0.4970
 4697TIP3   OH235653   6.396   4.392   1.759  0.5666  0.0357 -0.3818
 4697TIP3    H135654   6.455   4.440   1.816 -0.5504  0.2181  0.6630
 4697TIP3    H235655   6.413   4.428   1.672  1.1250  0.9439  0.0819
 4698TIP3   OH235656   0.451   2.721   8.697 -0.1404 -0.0226  0.3685
 4698TIP3    H135657   0.386   2.683   8.756 -1.0932  0.4522 -0.3468
 4698TIP3    H235658   0.399   2.770   8.633  0.8609 -0.5150 -0.8596
 4699TIP3   OH235659   5.152   4.781   7.620 -0.4695 -0.0465 -0.2161
 4699TIP3    H135660   5.114   4.807   7.536  0.1280  0.6585 -0.2743
 4699TIP3    H235661   5.078   4.783   7.681 -0.8758 -0.4105 -0.6837
 4700TIP3   OH235662   4.062   3.525   6.867  0.0768  0.6404  0.0436
 4700TIP3    H135663   4.009   3.446   6.871  2.3398 -1.0416 -0.9393
 4700TIP3    H235664   4.003   3.596   6.893 -2.7219 -1.0072 -1.3833
 4701TIP3   OH235665   5.344   6.340   0.524 -0.4390 -0.7905 -0.2235
 4701TIP3    H135666   5.390   6.262   0.494 -1.3321 -1.9095  1.1903
 4701TIP3    H235667   5.324   6.388   0.444 -0.6333 -2.4390 -1.2075
 4702TIP3   OH235668   6.087   5.040   1.587  0.4680 -0.5417  0.7753
 4702TIP3    H135669   6.160   4.978   1.582  0.8488 -0.0061 -1.0832
 4702TIP3    H235670   6.057   5.035   1.678  2.1810 -1.4977  1.3250
 4703TIP3   OH235671   5.303   3.611   7.038 -0.2174 -0.2829 -0.1958
 4703TIP3    H135672   5.324   3.619   7.131  1.0190 -2.5777 -0.1840
 4703TIP3    H235673   5.240   3.539   7.033 -0.0719 -0.3680 -1.1352
 4704TIP3   OH235674   1.920   1.952   8.624  0.0199 -0.4810  0.6439
 4704TIP3    H135675   1.875   2.020   8.574 -0.8730 -1.9428 -0.6238
 4704TIP3    H235676   2.005   1.991   8.647 -0.7823  1.3374  0.6963
 4705TIP3   OH235677   2.536   3.768   8.183  0.5140 -0.2373  0.1267
 4705TIP3    H135678   2.624   3.734   8.166  1.0275 -0.3310  2.5231
 4705TIP3    H235679   2.547   3.825   8.259 -1.2417  1.1195 -0.5642
 4706TIP3   OH235680   1.497   4.936   7.252  0.0363 -0.7456 -0.4800
 4706TIP3    H135681   1.499   5.013   7.196 -1.4540 -1.8802 -2.2250
 4706TIP3    H235682   1.409   4.937   7.291 -0.0769 -1.6367 -0.6788
 4707TIP3   OH235683   0.400   1.462   1.272  0.3171 -0.1437 -0.6691
 4707TIP3    H135684   0.457   1.483   1.198  0.0796  0.4477 -0.6907
 4707TIP3    H235685   0.327   1.414   1.233 -0.1690  0.7863 -0.9373
 4708TIP3   OH235686   1.412   4.449   8.277 -0.4378 -0.2739  0.2920
 4708TIP3    H135687   1.324   4.467   8.245  0.0408 -1.4076 -1.8662
 4708TIP3    H235688   1.401   4.379   8.341 -1.0164 -1.2831 -0.8802
 4709TIP3   OH235689   1.678   5.751   1.124  0.3169  0.1059 -0.0490
 4709TIP3    H135690   1.715   5.709   1.202 -0.2540  0.3818  0.3747
 4709TIP3    H235691   1.749   5.749   1.060  1.3686  1.3743  1.0152
 4710TIP3   OH235692   3.671   4.788   1.604  0.1075  0.2052 -0.4047
 4710TIP3    H135693   3.588   4.771   1.648 -0.5187  1.3181 -1.0991
 4710TIP3    H235694   3.652   4.774   1.511  1.0521 -0.8128 -0.4528
 4711TIP3   OH235695   5.822   6.624   8.118 -0.3351 -0.0735 -0.8281
 4711TIP3    H135696   5.855   6.695   8.173  0.9219 -0.6397 -0.8193
 4711TIP3    H235697   5.868   6.546   8.150 -0.8964 -0.7093 -1.5417
 4712TIP3   OH235698   1.836   1.708   8.338  0.2055  0.0571  0.1822
 4712TIP3    H135699   1.754   1.664   8.360 -0.4747  1.1179 -0.0966
 4712TIP3    H235700   1.896   1.638   8.313 -0.6291 -0.7417  0.3709
 4713TIP3   OH235701   3.458   3.126   7.114 -0.6856  0.3629  0.4891
 4713TIP3    H135702   3.397   3.056   7.137  2.5921 -2.7927  0.3533
 4713TIP3    H235703   3.515   3.135   7.191  0.1747  1.4736 -0.2483
 4714TIP3   OH235704   2.656   1.864   8.131  0.7323 -0.4316 -0.0336
 4714TIP3    H135705   2.648   1.858   8.036  0.2182 -0.0005 -0.0198
 4714TIP3    H235706   2.618   1.782   8.163  1.2816 -0.7637 -0.2118
 4715TIP3   OH235707   0.737   2.301   6.884  0.7976 -0.4917 -0.4503
 4715TIP3    H135708   0.731   2.387   6.925  0.0965 -1.1696  0.9427
 4715TIP3    H235709   0.831   2.283   6.879  0.9324  0.1489 -0.3265
 4716TIP3   OH235710   2.813   3.633   0.394  0.5579 -0.2731  0.0135
 4716TIP3    H135711   2.787   3.708   0.448  1.8067  0.6552 -0.6091
 4716TIP3    H235712   2.848   3.570   0.456  0.8277  0.2630  0.4189
 4717TIP3   OH235713   3.885   4.624   1.270  0.3157 -0.1556 -0.1799
 4717TIP3    H135714   3.963   4.678   1.287  1.3846 -1.7058 -0.0187
 4717TIP3    H235715   3.882   4.616   1.175 -1.0407  1.8165 -0.3808
 4718TIP3   OH235716   6.573   4.197   6.280 -0.3928  0.1556 -0.1120
 4718TIP3    H135717   6.612   4.283   6.271 -0.2374  0.5631  3.2846
 4718TIP3    H235718   6.628   4.140   6.226  0.1170  1.9606 -1.5951
 4719TIP3   OH235719   3.292   2.872   6.897  0.6960  0.6434  0.2207
 4719TIP3    H135720   3.346   2.803   6.937 -1.9326 -1.6728  0.1209
 4719TIP3    H235721   3.229   2.895   6.966 -0.9366  0.0091 -1.0083
 4720TIP3   OH235722   3.894   1.306   8.495 -0.7416 -0.1598  0.5401
 4720TIP3    H135723   3.846   1.351   8.565 -0.8585 -0.6173  0.7607
 4720TIP3    H235724   3.922   1.376   8.436 -0.3203  0.2737  1.2369
 4721TIP3   OH235725   0.648   6.231   1.559 -0.0648 -0.4733 -0.0423
 4721TIP3    H135726   0.720   6.239   1.620 -0.0393  0.4881 -0.1738
 4721TIP3    H235727   0.591   6.305   1.579  0.9921  1.1629 -2.4966
 4722TIP3   OH235728   5.105   4.904   7.348 -0.2858  0.0434  0.0514
 4722TIP3    H135729   5.043   4.972   7.322 -1.3561 -0.6333  0.7287
 4722TIP3    H235730   5.174   4.951   7.396 -1.4908  0.5772  1.3408
 4723TIP3   OH235731   1.433   0.170   7.062 -0.3330  0.1230  0.2320
 4723TIP3    H135732   1.529   0.171   7.063 -0.2717 -0.7126  3.0988
 4723TIP3    H235733   1.411   0.107   6.994  1.2027 -0.7545  0.4876
 4724TIP3   OH235734   2.840   2.507   8.020  0.1147  0.5969  0.1314
 4724TIP3    H135735   2.763   2.451   8.026  0.7297 -0.3874 -0.9054
 4724TIP3    H235736   2.805   2.596   8.028 -1.2487  0.2099 -1.0319
 4725TIP3   OH235737   3.071   0.230   7.134  0.2622  0.1544 -0.1373
 4725TIP3    H135738   3.160   0.198   7.121  0.0467 -0.1911 -0.7557
 4725TIP3    H235739   3.024   0.206   7.055 -0.1445  1.1773 -0.2322
 4726TIP3   OH235740   6.116   1.942   8.660  0.4182  0.1723 -0.1899
 4726TIP3    H135741   6.042   1.895   8.698  1.4221 -1.0694  0.2748
 4726TIP3    H235742   6.181   1.947   8.730  1.8455 -1.1428 -1.3357
 4727TIP3   OH235743   1.107   5.954   0.810 -0.4652 -0.5922  0.1221
 4727TIP3    H135744   1.122   5.873   0.761  1.0105 -1.3765  1.7695
 4727TIP3    H235745   1.102   5.926   0.901  2.2827  1.3506  1.0002
 4728TIP3   OH235746   1.578   0.393   2.343  0.1438  0.5117  0.2478
 4728TIP3    H135747   1.628   0.313   2.326  0.3661  0.3622  1.5268
 4728TIP3    H235748   1.513   0.367   2.409 -1.3484  0.8100 -1.0221
 4729TIP3   OH235749   3.076   3.861   6.291 -0.3203 -0.1794  0.2944
 4729TIP3    H135750   3.057   3.767   6.283 -0.3379 -0.0883 -0.8457
 4729TIP3    H235751   3.143   3.878   6.226 -1.1446  0.8321 -0.3284
 4730TIP3   OH235752   1.604   2.866   6.732  0.1847  0.2039 -0.6713
 4730TIP3    H135753   1.599   2.956   6.699  0.1038  0.1773 -0.7316
 4730TIP3    H235754   1.545   2.816   6.675  0.4541  0.0581 -0.8206
 4731TIP3   OH235755   3.265   1.798   7.553 -0.3907  0.2634  0.4351
 4731TIP3    H135756   3.297   1.757   7.473  0.0774  0.3724  0.5624
 4731TIP3    H235757   3.335   1.857   7.580 -0.9028  0.8658  0.4639
 4732TIP3   OH235758   2.319   6.816   7.317 -0.0283  0.3495 -0.2959
 4732TIP3    H135759   2.309   6.870   7.396 -1.1986  0.8377 -0.7481
 4732TIP3    H235760   2.346   6.878   7.249  1.2688 -0.1177 -0.2393
 4733TIP3   OH235761   0.024   3.096   0.821 -0.0767  0.3561  0.3455
 4733TIP3    H135762   0.032   3.181   0.864  1.1012  0.9500 -0.9790
 4733TIP3    H235763  -0.021   3.113   0.739 -0.3738 -0.4012  0.3381
 4734TIP3   OH235764   2.441   2.599   0.888  0.1577 -1.2242  0.2661
 4734TIP3    H135765   2.529   2.562   0.885  0.6952  0.0590 -0.8694
 4734TIP3    H235766   2.451   2.681   0.937  0.0536 -0.0383 -1.5999
 4735TIP3   OH235767   1.592   2.290   7.291  0.2630 -0.0281  0.2872
 4735TIP3    H135768   1.644   2.362   7.254 -0.2257 -0.4797 -1.3658
 4735TIP3    H235769   1.645   2.212   7.275  0.7746 -0.0858  2.0425
 4736TIP3   OH235770   6.422   3.043   6.943 -0.1151  0.0457  0.3770
 4736TIP3    H135771   6.482   2.972   6.965  0.8448  0.9820  0.8705
 4736TIP3    H235772   6.429   3.105   7.016 -2.5453 -0.3226  1.0213
 4737TIP3   OH235773   0.755   2.265   0.937 -0.0042 -0.2699  0.6434
 4737TIP3    H135774   0.669   2.228   0.960 -0.6145 -0.0970 -1.2346
 4737TIP3    H235775   0.799   2.275   1.022 -0.7798 -2.8712  1.4628
 4738TIP3   OH235776   0.329   5.988   7.985 -0.1188 -0.1974  0.2530
 4738TIP3    H135777   0.420   6.019   7.982  0.9081 -3.0546 -1.2831
 4738TIP3    H235778   0.282   6.060   8.026  3.0260  0.9188  2.3513
 4739TIP3   OH235779   4.721   2.257   0.638  0.0058  0.4806  0.5208
 4739TIP3    H135780   4.630   2.286   0.630  0.5490  1.8115 -1.2614
 4739TIP3    H235781   4.725   2.176   0.587  0.1272  1.1918 -0.6209
 4740TIP3   OH235782   4.490   3.633   7.838  0.5330 -0.3517 -0.3377
 4740TIP3    H135783   4.487   3.695   7.766  2.0614 -0.5270 -0.5870
 4740TIP3    H235784   4.561   3.664   7.894  0.4661 -1.1412  0.2071
 4741TIP3   OH235785   3.681   5.479   0.707  0.5812 -0.5684 -0.4814
 4741TIP3    H135786   3.699   5.491   0.801 -2.5440  0.0101  0.1469
 4741TIP3    H235787   3.716   5.558   0.666 -1.2974  1.0329  0.7955
 4742TIP3   OH235788   6.057   3.479   0.853 -0.1831 -0.1182 -0.8186
 4742TIP3    H135789   6.041   3.432   0.935  1.2873  0.5448 -0.1047
 4742TIP3    H235790   5.981   3.537   0.843  0.0548  0.4947  0.6223
 4743TIP3   OH235791   1.403   3.556   7.358 -0.5193  0.0840 -0.1289
 4743TIP3    H135792   1.342   3.493   7.395 -0.1997 -0.0002  0.2580
 4743TIP3    H235793   1.444   3.511   7.284 -1.7455  0.5222 -1.1218
 4744TIP3   OH235794   2.865   6.592   2.010  0.6443  0.0359  0.0436
 4744TIP3    H135795   2.855   6.585   2.104  1.0013 -1.2002  0.0074
 4744TIP3    H235796   2.959   6.580   1.995  0.4746 -0.6058 -0.5306
 4745TIP3   OH235797   3.843   0.995   6.219 -0.0944 -0.1143  0.3375
 4745TIP3    H135798   3.822   1.001   6.312 -0.8590  1.4159  0.1028
 4745TIP3    H235799   3.877   0.906   6.207  2.1842  0.3672  2.4987
 4746TIP3   OH235800   4.004   5.739   7.968  0.2070  0.2846 -0.7760
 4746TIP3    H135801   4.007   5.829   7.936 -1.6292  0.5349 -0.3651
 4746TIP3    H235802   3.943   5.695   7.908  1.0963 -0.7144 -0.9834
 4747TIP3   OH235803   6.766   6.000   8.300 -0.2306 -0.5299  0.1977
 4747TIP3    H135804   6.745   6.027   8.389 -2.2884 -0.9177 -0.1102
 4747TIP3    H235805   6.842   5.943   8.308 -1.1263 -1.5519  1.8617
 4748TIP3   OH235806   5.807   2.298   7.115 -0.5114 -0.1832 -0.2338
 4748TIP3    H135807   5.900   2.293   7.091 -0.2467 -0.8587  0.8395
 4748TIP3    H235808   5.771   2.364   7.057  0.5894 -0.0964 -0.8543
 4749TIP3   OH235809   4.332   3.962   2.479  0.2561  0.0024  0.4714
 4749TIP3    H135810   4.399   4.024   2.509 -1.2386  3.5238 -2.6350
 4749TIP3    H235811   4.367   3.924   2.399 -0.8479  0.8882 -0.4716
 4750TIP3   OH235812   2.608   3.701   6.851 -0.1948  0.0971  0.4695
 4750TIP3    H135813   2.526   3.692   6.803  0.5165 -3.2160 -0.3848
 4750TIP3    H235814   2.581   3.718   6.942 -1.7127  1.0845 -0.1222
 4751TIP3   OH235815   6.595   1.778   2.459  0.7294  0.6278  0.1260
 4751TIP3    H135816   6.578   1.703   2.402 -1.6457  1.7912 -0.8420
 4751TIP3    H235817   6.513   1.791   2.507  1.1197  2.4883  0.3823
 4752TIP3   OH235818   5.897   6.823   0.558  0.1309 -0.5045 -0.0266
 4752TIP3    H135819   5.815   6.872   0.561  0.1617 -0.4185 -0.5417
 4752TIP3    H235820   5.955   6.876   0.504 -0.6441 -2.2763 -2.7951
 4753TIP3   OH235821   5.638   2.565   8.590  0.4112  0.3611  0.4870
 4753TIP3    H135822   5.681   2.617   8.522  1.5413 -0.0444  0.8639
 4753TIP3    H235823   5.577   2.509   8.543 -0.9229  2.0740  0.0823
 4754TIP3   OH235824   4.894   3.812   6.995 -0.3959  0.1847 -0.3200
 4754TIP3    H135825   4.912   3.818   7.088  0.4359 -0.4677 -0.4283
 4754TIP3    H235826   4.799   3.827   6.988 -0.3791  0.7851  0.5595
 4755TIP3   OH235827   0.713   2.947   7.002  0.7887 -0.0174  0.4046
 4755TIP3    H135828   0.762   3.029   6.992 -0.1921  0.6316  0.7820
 4755TIP3    H235829   0.704   2.914   6.913 -0.6328  1.3999 -0.0312
 4756TIP3   OH235830   4.388   4.385   0.600  0.1127  0.2318 -0.4588
 4756TIP3    H135831   4.382   4.338   0.517  0.3504  0.8498 -0.8364
 4756TIP3    H235832   4.297   4.400   0.626  0.0380  0.0201 -0.5992
 4757TIP3   OH235833   0.365   2.617   0.283 -0.7398 -0.2735  0.9197
 4757TIP3    H135834   0.359   2.556   0.357 -0.6977 -0.2762  0.9208
 4757TIP3    H235835   0.457   2.615   0.257  0.1019  2.4765  3.2035
 4758TIP3   OH235836   4.901   6.073   0.119 -0.1398 -0.3120  0.1199
 4758TIP3    H135837   4.858   6.134   0.178 -0.7437 -0.8787  0.2694
 4758TIP3    H235838   4.876   5.987   0.150 -0.4079 -0.6209 -0.9125
 4759TIP3   OH235839   4.738   5.358   7.179  0.5818 -0.3275 -0.1718
 4759TIP3    H135840   4.681   5.393   7.247  2.1029  1.4504  0.2572
 4759TIP3    H235841   4.747   5.429   7.116  1.0326 -1.1591 -1.0820
 4760TIP3   OH235842   5.961   1.262   2.121 -0.7094  0.2163  0.1019
 4760TIP3    H135843   5.941   1.351   2.150 -0.2865 -0.0895  1.4132
 4760TIP3    H235844   5.951   1.208   2.200 -0.3622 -0.8082 -0.5271
 4761TIP3   OH235845   0.586   2.982   7.266  0.0678  0.3007  0.3620
 4761TIP3    H135846   0.655   3.003   7.330 -0.2903  2.3234  0.1417
 4761TIP3    H235847   0.632   2.975   7.183  0.3569 -1.0950  0.6112
 4762TIP3   OH235848   3.211   3.402   7.658 -0.0527  0.3078  0.4173
 4762TIP3    H135849   3.121   3.410   7.627 -0.4368 -1.2904  1.0202
 4762TIP3    H235850   3.253   3.485   7.633 -0.3443 -0.6795 -4.1448
 4763TIP3   OH235851   2.001   2.243   7.196 -0.3382 -0.1870 -0.3303
 4763TIP3    H135852   1.935   2.286   7.141 -0.7746  1.1899  1.1948
 4763TIP3    H235853   1.955   2.168   7.235 -0.5164 -0.1881 -0.5433
 4764TIP3   OH235854   1.859   2.547   0.836  0.4796 -0.1184 -0.0822
 4764TIP3    H135855   1.871   2.610   0.765 -0.2055 -0.7917 -0.8185
 4764TIP3    H235856   1.776   2.503   0.816  0.3880 -0.4806  1.0155
 4765TIP3   OH235857   2.069   4.233   1.099  0.8484 -0.0622  0.2950
 4765TIP3    H135858   1.995   4.184   1.062  0.8861  0.5719 -0.6396
 4765TIP3    H235859   2.040   4.258   1.186 -0.0127  0.1038 -0.0319
 4766TIP3   OH235860   2.818   2.426   6.863  0.3226 -0.4699 -0.5782
 4766TIP3    H135861   2.866   2.392   6.788  0.1449  0.5486 -1.1741
 4766TIP3    H235862   2.726   2.412   6.842  0.2514  0.2312 -0.7732
 4767TIP3   OH235863   5.434   0.858   1.292 -0.6398 -0.0403  0.3245
 4767TIP3    H135864   5.394   0.777   1.259  1.4914 -1.9706  2.0566
 4767TIP3    H235865   5.436   0.846   1.387  2.8165  0.3709  0.4517
 4768TIP3   OH235866   6.429   1.746   6.546 -0.1515 -0.7811  0.6810
 4768TIP3    H135867   6.461   1.767   6.459  0.7657 -0.1694  1.1549
 4768TIP3    H235868   6.474   1.807   6.604 -0.8371 -1.0984  1.5766
 4769TIP3   OH235869   5.751   5.455   2.196 -0.0673  0.3343 -0.1711
 4769TIP3    H135870   5.779   5.368   2.166 -0.2281  0.2470 -0.0721
 4769TIP3    H235871   5.796   5.516   2.138 -0.3830  0.1674 -0.5992
 4770TIP3   OH235872   5.399   5.433   0.360 -0.0930  0.3243  0.7334
 4770TIP3    H135873   5.494   5.420   0.358  0.0723  1.4636  0.5488
 4770TIP3    H235874   5.372   5.420   0.269  0.2638  2.4298  0.2746
 4771TIP3   OH235875   2.871   0.289   8.407  0.7919  0.7577 -0.1626
 4771TIP3    H135876   2.942   0.267   8.347  1.1665 -0.3876  0.6561
 4771TIP3    H235877   2.829   0.365   8.367  1.2759  0.2881 -1.6516
 4772TIP3   OH235878   4.388   0.852   1.914  0.0489 -0.1765  0.9487
 4772TIP3    H135879   4.367   0.885   1.827 -4.6900  0.5614  2.0907
 4772TIP3    H235880   4.456   0.910   1.947  0.7574  0.5510 -1.5747
 4773TIP3   OH235881   2.015   0.260   1.495 -0.1489 -0.1988 -0.0293
 4773TIP3    H135882   2.059   0.300   1.571 -1.1317  0.5561  0.1552
 4773TIP3    H235883   2.086   0.215   1.448  1.0741  1.9405 -0.3662
 4774TIP3   OH235884   0.256   3.340   0.301  0.0434  0.2722 -0.1504
 4774TIP3    H135885   0.345   3.350   0.269  1.1047 -2.0888  1.7692
 4774TIP3    H235886   0.260   3.367   0.393 -0.5376 -2.2749  0.6993
 4775TIP3   OH235887   0.250   5.792   7.066 -0.3109 -0.1591  0.4527
 4775TIP3    H135888   0.325   5.767   7.120 -1.4327  1.8173  3.1020
 4775TIP3    H235889   0.283   5.861   7.009  0.0723  0.2246  1.1272
 4776TIP3   OH235890   0.940   0.400   7.123 -0.3938  0.2142  0.1075
 4776TIP3    H135891   0.964   0.355   7.042 -2.6467  0.2289 -0.6444
 4776TIP3    H235892   0.933   0.330   7.188  0.0343  0.0153 -0.0584
 4777TIP3   OH235893   2.900   4.337   1.266  0.4637 -0.3159 -0.2917
 4777TIP3    H135894   2.857   4.421   1.251  1.0555 -0.3596 -2.4915
 4777TIP3    H235895   2.828   4.277   1.286 -0.0565  0.4726  0.2990
 4778TIP3   OH235896   3.984   2.101   7.609  0.3377 -0.0693  0.8669
 4778TIP3    H135897   4.057   2.139   7.560  0.7706 -0.0782  1.4919
 4778TIP3    H235898   4.006   2.115   7.701  0.8952 -2.4568  1.1729
 4779TIP3   OH235899   6.739   1.748   7.642 -0.2040 -0.1029  0.7185
 4779TIP3    H135900   6.821   1.796   7.634 -1.3786  2.0301  0.7585
 4779TIP3    H235901   6.761   1.658   7.617  1.9113  0.6231 -0.2535
 4780TIP3   OH235902   0.361   1.499   0.345 -0.6862  0.8238  0.7531
 4780TIP3    H135903   0.445   1.454   0.353 -0.6578  1.0756  2.2260
 4780TIP3    H235904   0.296   1.431   0.365 -0.8112  0.7788  0.2157
 4781TIP3   OH235905   3.806   6.195   7.742  0.1952  0.8445  0.0962
 4781TIP3    H135906   3.852   6.117   7.772 -0.2721  0.8321  0.7983
 4781TIP3    H235907   3.835   6.265   7.800  0.5422  1.1843 -0.4726
 4782TIP3   OH235908   4.730   3.377   7.652 -0.1544 -0.3390 -0.0893
 4782TIP3    H135909   4.639   3.408   7.648 -0.0459 -0.0572 -0.4783
 4782TIP3    H235910   4.778   3.450   7.691 -0.0564 -0.3934 -0.1083
 4783TIP3   OH235911   1.521   2.429   2.067 -0.0844  0.1904 -0.1001
 4783TIP3    H135912   1.485   2.439   2.155 -1.2530  1.1006 -0.6535
 4783TIP3    H235913   1.501   2.338   2.043 -1.4533  0.4811 -0.1332
 4784TIP3   OH235914   3.096   4.748   6.984  0.5168  0.1472 -0.0209
 4784TIP3    H135915   3.143   4.681   6.933 -0.0555  0.4708 -1.0072
 4784TIP3    H235916   3.004   4.734   6.962  0.2107  0.0292  1.2756
 4785TIP3   OH235917   2.990   1.297   7.086  0.3471 -0.0696 -0.2874
 4785TIP3    H135918   3.062   1.353   7.057  2.0638 -1.8507  0.2887
 4785TIP3    H235919   2.991   1.223   7.025 -1.7390  0.3673 -0.9173
 4786TIP3   OH235920   0.683   2.394   0.420 -1.1864  0.0194 -0.1796
 4786TIP3    H135921   0.691   2.395   0.516  0.6948  2.8745 -0.2467
 4786TIP3    H235922   0.724   2.312   0.394  0.5367  0.3000  1.3918
 4787TIP3   OH235923   4.366   6.377   7.875  0.3077  0.1244  0.2656
 4787TIP3    H135924   4.326   6.293   7.896  1.6840 -0.4833  0.5697
 4787TIP3    H235925   4.418   6.361   7.797 -0.5081  1.0596 -0.4989
 4788TIP3   OH235926   2.887   1.900   0.460  0.4022 -0.2891  0.7826
 4788TIP3    H135927   2.852   1.811   0.453  0.5803 -0.3017 -0.0584
 4788TIP3    H235928   2.854   1.945   0.382  1.1885  0.0752  0.6486
 4789TIP3   OH235929   5.082   6.554   2.170 -0.0093 -0.5129 -0.5262
 4789TIP3    H135930   5.173   6.539   2.196  0.9241 -2.5316 -4.1832
 4789TIP3    H235931   5.040   6.469   2.184 -0.5815 -0.3649 -1.2800
 4790TIP3   OH235932   2.136   3.136   0.531  0.2104  0.2964  0.5411
 4790TIP3    H135933   2.204   3.165   0.470  1.8934  0.3362  2.3409
 4790TIP3    H235934   2.084   3.215   0.548  1.3077  0.9341  1.0853
 4791TIP3   OH235935   2.505   4.320   0.638 -0.7926 -0.3735  0.4247
 4791TIP3    H135936   2.538   4.401   0.600  0.1299 -1.1393 -0.4620
 4791TIP3    H235937   2.424   4.302   0.590  1.8757 -2.9881 -3.7298
 4792TIP3   OH235938   0.955   2.749   0.140 -0.2588 -0.3042  0.0758
 4792TIP3    H135939   0.910   2.769   0.222  0.4100 -1.0379  0.6411
 4792TIP3    H235940   0.886   2.724   0.079 -0.7932  0.5707  0.3078
 4793TIP3   OH235941   1.384   1.802   1.658  0.9736  0.2273 -0.3208
 4793TIP3    H135942   1.298   1.768   1.633 -0.2016  2.5034  0.3040
 4793TIP3    H235943   1.411   1.856   1.584  0.9391  1.0469  0.2481
 4794TIP3   OH235944   3.577   0.081   0.680 -0.1920  0.0324  0.0486
 4794TIP3    H135945   3.555  -0.007   0.709 -2.3114  0.2524 -0.7112
 4794TIP3    H235946   3.580   0.133   0.761  0.4212 -0.5961  0.4370
 4795TIP3   OH235947   2.964   2.312   6.659 -0.3640 -0.1745 -0.0989
 4795TIP3    H135948   2.904   2.244   6.631 -0.6614  0.7396 -1.7975
 4795TIP3    H235949   3.048   2.287   6.621 -0.1013 -0.4076  0.6141
 4796TIP3   OH235950   2.277   2.298   7.249  0.2731  0.8845 -0.7141
 4796TIP3    H135951   2.314   2.214   7.221 -0.0106  0.0786  1.1873
 4796TIP3    H235952   2.183   2.289   7.233  0.3321  1.1513 -1.2298
 4797TIP3   OH235953   3.235   1.424   7.146  0.4296 -0.0595 -0.1848
 4797TIP3    H135954   3.327   1.440   7.169  0.5687  0.0448 -0.8038
 4797TIP3    H235955   3.186   1.453   7.224  1.0268 -2.3365  1.1455
 4798TIP3   OH235956   3.444   1.940   6.539 -0.1310  0.2223  0.7273
 4798TIP3    H135957   3.459   2.004   6.470 -2.4357 -1.2446 -1.3022
 4798TIP3    H235958   3.495   1.863   6.511 -0.8557 -0.2888  0.7853
 4799TIP3   OH235959   3.097   1.474   0.178  0.4794 -0.3913 -0.4394
 4799TIP3    H135960   3.035   1.534   0.137  0.2769 -0.1276  0.2359
 4799TIP3    H235961   3.183   1.509   0.156  0.3974 -0.7147 -1.3163
 4800TIP3   OH235962   5.427   2.366   0.608 -0.2734 -0.1220 -0.5311
 4800TIP3    H135963   5.391   2.369   0.696 -1.7885  0.1114 -1.1245
 4800TIP3    H235964   5.466   2.279   0.600 -1.8872 -0.8939 -0.2814
 4801TIP3   OH235965   4.599   3.884   7.075  0.2159 -0.2035 -0.8680
 4801TIP3    H135966   4.587   3.840   6.990  0.4788 -1.5799 -0.2310
 4801TIP3    H235967   4.532   3.844   7.132  0.7561 -0.1024 -0.1468
 4802TIP3   OH235968   0.811   4.035   6.451 -0.4090  0.4069 -0.0919
 4802TIP3    H135969   0.886   4.027   6.392 -1.1589 -1.1788 -0.9193
 4802TIP3    H235970   0.848   4.036   6.539  0.7265  2.6509 -0.5406
 4803TIP3   OH235971   1.727   1.544   7.272 -0.0830 -0.5260  0.4789
 4803TIP3    H135972   1.748   1.633   7.302 -2.2531 -0.0180  0.7171
 4803TIP3    H235973   1.663   1.513   7.336 -0.3514 -1.7495 -0.3579
 4804TIP3   OH235974   4.209   3.453   7.329 -0.1911  0.2112  0.3309
 4804TIP3    H135975   4.291   3.451   7.378 -0.6748  2.4447  1.3487
 4804TIP3    H235976   4.236   3.457   7.237  0.7984 -0.5414  0.5764
 4805TIP3   OH235977   1.614   5.099   7.436  0.0808  0.3433  0.2897
 4805TIP3    H135978   1.689   5.145   7.397  1.4329 -0.8399  1.3795
 4805TIP3    H235979   1.590   5.034   7.370  0.6822  0.0541  0.3470
 4806TIP3   OH235980   4.531   3.686   0.393  0.6875  0.3965  0.1561
 4806TIP3    H135981   4.493   3.709   0.478 -1.0932 -0.1592 -0.4480
 4806TIP3    H235982   4.520   3.591   0.387  1.6518  0.3062 -0.3077
 4807TIP3   OH235983   3.795   1.230   0.596 -0.6995  0.2466  0.3395
 4807TIP3    H135984   3.875   1.262   0.637  0.0282 -1.2979  0.1755
 4807TIP3    H235985   3.814   1.139   0.574 -1.8347  0.4071 -1.4627
 4808TIP3   OH235986   0.983   2.442   0.664  0.3874  0.1498  0.6903
 4808TIP3    H135987   0.979   2.352   0.633 -0.7177  0.4287 -0.0223
 4808TIP3    H235988   1.071   2.451   0.701  0.7336 -1.0225  0.1758
 4809TIP3   OH235989   2.408   3.045   6.825 -0.5646  0.0666 -0.0173
 4809TIP3    H135990   2.342   2.988   6.865 -1.6305  2.1043  1.2648
 4809TIP3    H235991   2.392   3.037   6.731 -1.2234 -1.0953  0.1649
 4810TIP3   OH235992   0.747   0.550   8.105 -0.0071 -0.5975  0.2926
 4810TIP3    H135993   0.783   0.514   8.186  1.5464 -2.3857 -1.0557
 4810TIP3    H235994   0.705   0.475   8.063 -3.8206  1.0189  0.8788
 4811TIP3   OH235995   4.923   0.598   7.862  0.4468  0.3188  0.1072
 4811TIP3    H135996   4.940   0.537   7.790 -0.6649  0.4539 -0.2904
 4811TIP3    H235997   5.006   0.645   7.874  0.2959  1.2111 -1.9673
 4812TIP3   OH235998   4.824   6.283   7.427 -0.1023 -0.1798  0.0404
 4812TIP3    H135999   4.896   6.313   7.372 -0.6760 -0.3459 -0.8210
 4812TIP3    H236000   4.866   6.251   7.506  0.7205  0.3458 -0.1675
 4813TIP3   OH236001   3.736   6.602   1.768  0.0242 -0.3494 -0.4348
 4813TIP3    H136002   3.805   6.662   1.794 -1.1264  0.6256  0.5297
 4813TIP3    H236003   3.725   6.543   1.842  0.9948 -1.6494 -1.2882
 4814TIP3   OH236004   1.246   3.166   0.403  0.1762 -0.2640 -0.5320
 4814TIP3    H136005   1.235   3.093   0.342 -0.8675 -0.3119 -0.3014
 4814TIP3    H236006   1.334   3.154   0.439 -0.1696 -1.7224 -0.1125
 4815TIP3   OH236007   3.744   0.871   1.516  0.6191  0.3316 -0.0091
 4815TIP3    H136008   3.686   0.909   1.582  1.4357  0.5188  0.6158
 4815TIP3    H236009   3.689   0.808   1.469  0.1062 -0.0373  1.0606
 4816TIP3   OH236010   1.491   3.299   8.555  0.3574  0.5754  0.5806
 4816TIP3    H136011   1.551   3.356   8.506  1.3347  0.6255  1.8074
 4816TIP3    H236012   1.417   3.355   8.576 -0.2862  0.4543 -1.1466
 4817TIP3   OH236013   0.126   0.724   6.709 -0.4368 -0.1610  0.1470
 4817TIP3    H136014   0.055   0.667   6.738 -0.4140 -1.0150 -1.4155
 4817TIP3    H236015   0.205   0.685   6.748 -0.8352  1.4094  2.8145
 4818TIP3   OH236016   1.489   1.980   8.429 -0.0452  0.2575  0.1273
 4818TIP3    H136017   1.580   1.987   8.398 -0.4206  0.2176 -1.0263
 4818TIP3    H236018   1.442   2.048   8.382 -0.5113  0.7021  1.1989
 4819TIP3   OH236019   2.157   4.628   7.098 -0.1879 -0.0725 -0.3401
 4819TIP3    H136020   2.231   4.589   7.144  0.7583  1.8216 -0.1822
 4819TIP3    H236021   2.152   4.580   7.015  1.8160  0.3684 -0.7576
 4820TIP3   OH236022   0.102   6.638   1.245 -0.6776  0.1482 -0.3076
 4820TIP3    H136023   0.055   6.564   1.282 -3.3135  1.2453 -1.1363
 4820TIP3    H236024   0.075   6.713   1.299 -0.9105  1.0106 -1.5638
 4821TIP3   OH236025   1.771   6.318   8.719  0.0502  0.3175  0.0315
 4821TIP3    H136026   1.864   6.333   8.706 -0.1475  2.0442  0.3490
 4821TIP3    H236027   1.751   6.241   8.665  1.5688  0.1453 -0.3212
 4822TIP3   OH236028   2.694   1.101   0.839 -0.0004  0.0002  0.4579
 4822TIP3    H136029   2.613   1.060   0.871  0.3860  0.2469  1.8496
 4822TIP3    H236030   2.671   1.136   0.753 -0.8923 -1.4000  0.0871
 4823TIP3   OH236031   3.663   5.747   8.651 -0.0893 -0.0613 -0.5023
 4823TIP3    H136032   3.627   5.788   8.730  0.2753 -0.7334  0.0128
 4823TIP3    H236033   3.623   5.797   8.579  0.4176  1.2749  0.1062
 4824TIP3   OH236034   6.081   0.900   7.033 -0.4588 -0.0787  0.0306
 4824TIP3    H136035   6.055   0.963   7.100  0.6747 -0.1223  0.5367
 4824TIP3    H236036   6.150   0.945   6.983 -0.2129 -0.6155 -0.1197
 4825TIP3   OH236037   0.836   3.098   2.090  0.2961 -0.4434  0.0066
 4825TIP3    H136038   0.871   3.072   2.005  2.2068 -2.8787  1.3930
 4825TIP3    H236039   0.848   3.021   2.145  0.3954  1.4548  2.8611
 4826TIP3   OH236040   4.296   6.507   7.528 -0.6649 -0.1860 -0.0499
 4826TIP3    H136041   4.375   6.561   7.523 -0.1534 -1.0039 -1.0454
 4826TIP3    H236042   4.328   6.418   7.543 -1.2792 -0.7803 -1.9707
 4827TIP3   OH236043   4.522   6.539   7.187  0.2358  0.6179 -0.5935
 4827TIP3    H136044   4.564   6.609   7.138  0.8634  0.3504 -0.4529
 4827TIP3    H236045   4.436   6.529   7.146 -0.1023  1.8661 -0.2301
 4828TIP3   OH236046   3.355   6.033   0.980  0.3460 -0.0587  0.5981
 4828TIP3    H136047   3.260   6.031   0.974  0.1600  1.3655  2.1818
 4828TIP3    H236048   3.383   6.084   0.904 -0.2657  0.5800  0.7922
 4829TIP3   OH236049   5.460   4.291   6.973  0.0248 -0.4149 -0.1186
 4829TIP3    H136050   5.386   4.313   6.915 -0.2633  0.0862  0.4270
 4829TIP3    H236051   5.499   4.213   6.933 -0.6655 -0.5610 -0.5358
 4830TIP3   OH236052   2.255   2.392   7.871 -0.2350  0.1694 -0.1017
 4830TIP3    H136053   2.220   2.305   7.891  3.1112 -1.3008  0.0457
 4830TIP3    H236054   2.270   2.390   7.777 -1.6039  1.2595 -0.3769
 4831TIP3   OH236055   4.776   0.017   6.290 -0.1193  0.2959  0.1355
 4831TIP3    H136056   4.744  -0.044   6.223 -2.2989  0.9535  0.4890
 4831TIP3    H236057   4.854   0.056   6.252 -0.6687 -0.1654 -1.5590
 4832TIP3   OH236058   4.075   4.286   8.570  0.0759 -0.2021  0.6767
 4832TIP3    H136059   3.999   4.241   8.534  0.2182  1.1283 -1.4607
 4832TIP3    H236060   4.112   4.224   8.633 -1.8074 -1.5369  0.5509
 4833TIP3   OH236061   1.436   4.295   0.854  0.7041  0.0583 -0.4083
 4833TIP3    H136062   1.467   4.381   0.883  0.9389  0.0794 -0.7239
 4833TIP3    H236063   1.341   4.297   0.872  1.0376 -0.4870  1.7510
 4834TIP3   OH236064   4.137   4.491   0.955  0.0210  0.2063 -0.3221
 4834TIP3    H136065   4.211   4.552   0.955 -0.2274  0.5145 -0.4481
 4834TIP3    H236066   4.156   4.430   1.026 -0.9803  1.9975  1.6270
 4835TIP3   OH236067   1.394   6.551   7.330  0.1680  0.3541  0.0545
 4835TIP3    H136068   1.443   6.470   7.315  2.8743  1.8326  0.1596
 4835TIP3    H236069   1.305   6.522   7.350  1.0009 -2.5675  0.0552
 4836TIP3   OH236070   6.557   5.211   0.111  0.0270  0.3921  0.1562
 4836TIP3    H136071   6.632   5.166   0.071  0.4786  1.6908 -0.4999
 4836TIP3    H236072   6.590   5.245   0.193  0.2493  1.2029 -0.2612
 4837TIP3   OH236073   6.343   1.870   0.697  0.1447  0.1993  0.0717
 4837TIP3    H136074   6.409   1.888   0.764  0.7886  0.0277 -0.5077
 4837TIP3    H236075   6.280   1.813   0.740 -1.1588  2.5890  1.5157
 4838TIP3   OH236076   0.379   5.296   6.898 -0.4291 -0.5064 -0.3404
 4838TIP3    H136077   0.402   5.318   6.989  1.4774 -2.6697 -0.2191
 4838TIP3    H236078   0.443   5.342   6.845 -1.5054  0.7068 -0.6358
 4839TIP3   OH236079   5.006   1.710   5.719 -0.4367  0.4495 -0.4046
 4839TIP3    H136080   4.957   1.672   5.791 -0.8496  0.1268 -0.8468
 4839TIP3    H236081   5.032   1.635   5.665  0.5545  0.6128 -0.1792
 4840TIP3   OH236082   4.520   2.651   1.898 -0.0658 -0.2368 -0.1671
 4840TIP3    H136083   4.436   2.668   1.855  0.0855 -1.9383 -1.2235
 4840TIP3    H236084   4.496   2.615   1.984 -0.4259 -0.7622 -0.4843
 4841TIP3   OH236085   5.681   4.417   1.037  0.0565  0.1583 -0.0619
 4841TIP3    H136086   5.715   4.404   1.125 -2.2292  0.0343  0.8913
 4841TIP3    H236087   5.678   4.512   1.027 -0.7130  0.2052  0.4788
 4842TIP3   OH236088   1.164   4.539   0.305 -0.0476 -0.1539 -0.1922
 4842TIP3    H136089   1.145   4.451   0.271 -0.4295  0.2449 -1.0442
 4842TIP3    H236090   1.161   4.596   0.228 -0.8086  0.7675  0.4822
 4843TIP3   OH236091   3.532   1.277   7.985 -0.3123  0.0535  0.2105
 4843TIP3    H136092   3.495   1.233   7.909  2.7071 -0.2857 -1.1895
 4843TIP3    H236093   3.602   1.219   8.015 -0.1772  1.1027  2.1049
 4844TIP3   OH236094   6.146   6.363   0.961  0.8571 -0.2781 -0.5867
 4844TIP3    H136095   6.139   6.415   0.880  0.5898 -3.2712 -2.6577
 4844TIP3    H236096   6.240   6.355   0.976  0.9589 -0.8621 -1.4614
 4845TIP3   OH236097   3.481   6.634   0.703 -0.0210  0.4631  0.2329
 4845TIP3    H136098   3.526   6.567   0.755  1.7147  1.4000  0.0321
 4845TIP3    H236099   3.393   6.599   0.688  0.3606 -1.0784  1.3901
 4846TIP3   OH236100   6.348   2.882   1.249 -0.1720 -0.1518 -0.1611
 4846TIP3    H136101   6.258   2.913   1.259 -0.6288 -1.6725  0.8314
 4846TIP3    H236102   6.365   2.889   1.155 -0.0219  3.4427  0.0046
 4847TIP3   OH236103   4.433   1.998   8.298 -0.1802 -0.2652 -0.2571
 4847TIP3    H136104   4.527   2.009   8.307  0.2228 -0.8201 -2.8798
 4847TIP3    H236105   4.420   1.903   8.295 -0.5220 -0.1993 -1.9358
 4848TIP3   OH236106   5.868   3.624   7.414  0.2650  0.1616 -0.0949
 4848TIP3    H136107   5.912   3.680   7.478  1.5116 -0.3413 -0.4895
 4848TIP3    H236108   5.815   3.685   7.362 -1.3445  0.5081  1.8124
 4849TIP3   OH236109   2.486   6.611   7.396 -0.4499 -0.1669 -0.3246
 4849TIP3    H136110   2.576   6.640   7.406  0.0830 -2.0196  0.5295
 4849TIP3    H236111   2.436   6.693   7.385  1.1920  0.9358  0.0760
 4850TIP3   OH236112   4.687   4.839   1.539  0.7184 -0.2332 -0.0146
 4850TIP3    H136113   4.699   4.887   1.621 -1.4674 -0.0640  0.2540
 4850TIP3    H236114   4.647   4.756   1.566  0.9665 -0.6223 -0.8238
 4851TIP3   OH236115   2.612   4.418   8.716  0.3150  0.3755 -0.2444
 4851TIP3    H136116   2.646   4.333   8.745  1.5660  0.9885  0.1804
 4851TIP3    H236117   2.581   4.460   8.796  1.3691  1.0247 -0.1527
 4852TIP3   OH236118   0.930   4.827   6.382  0.2005  0.5069 -0.9387
 4852TIP3    H136119   0.896   4.801   6.468  4.0127 -1.0589  0.2925
 4852TIP3    H236120   0.929   4.747   6.330 -1.8001  1.3791 -2.3715
 4853TIP3   OH236121   2.202   1.840   6.852 -0.2624 -0.2464 -0.5818
 4853TIP3    H136122   2.162   1.920   6.817  0.3501  1.1309  1.6392
 4853TIP3    H236123   2.257   1.808   6.781 -1.3070  0.7288 -1.8901
 4854TIP3   OH236124   1.453   1.210   7.091  0.3077  0.3420 -0.3816
 4854TIP3    H136125   1.431   1.158   7.014 -1.7426 -0.6178  0.7473
 4854TIP3    H236126   1.386   1.278   7.094 -0.6208 -0.5705  1.3211
 4855TIP3   OH236127   3.733   1.715   1.509 -0.1875 -0.1474  0.4432
 4855TIP3    H136128   3.817   1.691   1.469  0.1557  0.3297  0.8734
 4855TIP3    H236129   3.668   1.696   1.441  0.3823  0.5753 -0.3183
 4856TIP3   OH236130   6.584   3.919   8.359 -0.0361  0.1387 -0.1350
 4856TIP3    H136131   6.535   3.866   8.297  1.0517  0.0914 -0.9841
 4856TIP3    H236132   6.575   4.009   8.326  0.3061  0.1503 -0.1957
 4857TIP3   OH236133   5.800   6.553   6.919 -0.1255 -0.4556  0.3775
 4857TIP3    H136134   5.833   6.616   6.855  0.0917 -1.1170 -0.1731
 4857TIP3    H236135   5.723   6.515   6.878  0.9922 -2.1431 -0.2909
 4858TIP3   OH236136   5.028   1.306   0.734 -0.0458  0.6208 -0.1157
 4858TIP3    H136137   4.992   1.380   0.782  2.0345  1.1925  0.6905
 4858TIP3    H236138   5.012   1.327   0.642 -0.9096  1.2686  0.1699
 4859TIP3   OH236139   1.720   1.630   0.237  0.1292 -0.0216 -0.5139
 4859TIP3    H136140   1.638   1.582   0.227 -0.2429  0.4306  0.2869
 4859TIP3    H236141   1.788   1.567   0.213 -0.4367 -0.4516 -1.0146
 4860TIP3   OH236142   4.333   0.537   0.817  0.1261  0.0105  0.0183
 4860TIP3    H136143   4.248   0.493   0.809  0.5665 -1.0387  0.8551
 4860TIP3    H236144   4.318   0.606   0.881 -0.8104  1.7801 -1.9751
 4861TIP3   OH236145   0.228   3.144   8.618 -0.4992 -0.2624 -0.2206
 4861TIP3    H136146   0.287   3.116   8.688 -0.2240  0.2209 -0.2546
 4861TIP3    H236147   0.143   3.107   8.641  0.0484 -1.9385 -0.7609
 4862TIP3   OH236148   4.972   2.683   7.365  0.3820 -0.2330  0.5737
 4862TIP3    H136149   5.039   2.746   7.392  1.5798  0.2248 -2.9211
 4862TIP3    H236150   4.998   2.601   7.408  1.5137  0.5705  1.5002
 4863TIP3   OH236151   0.416   5.158   1.285 -0.2716 -0.5869  0.1442
 4863TIP3    H136152   0.497   5.208   1.282 -0.0516 -0.9183  0.4053
 4863TIP3    H236153   0.435   5.086   1.345 -1.1180 -0.0433  1.0847
 4864TIP3   OH236154   6.103   0.180   0.452  0.5725 -0.0311 -0.0461
 4864TIP3    H136155   6.122   0.218   0.538 -0.0574  1.7624 -0.6624
 4864TIP3    H236156   6.146   0.238   0.390  1.0269 -1.3136 -0.9651
 4865TIP3   OH236157   2.294   2.018   1.341  0.1740  0.6418  0.1977
 4865TIP3    H136158   2.210   1.979   1.365  1.7769 -1.5981  2.7127
 4865TIP3    H236159   2.309   1.990   1.250 -1.6618  0.9384 -0.2259
 4866TIP3   OH236160   4.801   0.523   1.014 -0.2365 -0.5173 -0.0111
 4866TIP3    H136161   4.822   0.461   0.944 -0.5498 -0.1516 -0.4379
 4866TIP3    H236162   4.759   0.596   0.969  0.4502  0.1694  0.4376
 4867TIP3   OH236163   4.430   2.817   0.223  0.0653 -0.6299 -0.5957
 4867TIP3    H136164   4.444   2.858   0.308 -0.2727  0.4914 -1.0625
 4867TIP3    H236165   4.518   2.805   0.187  0.1541  0.1176 -0.6423
 4868TIP3   OH236166   4.822   3.837   8.482 -0.1999  0.1073 -0.2278
 4868TIP3    H136167   4.821   3.756   8.534 -0.3392  1.1080  1.4084
 4868TIP3    H236168   4.796   3.905   8.544 -3.0907  1.0332 -2.2667
 4869TIP3   OH236169   1.286   1.471   0.608 -0.3023  0.6679  0.1741
 4869TIP3    H136170   1.377   1.469   0.640 -0.5651 -1.7753  0.9585
 4869TIP3    H236171   1.292   1.436   0.519 -0.5956 -0.6536  0.6602
 4870TIP3   OH236172   2.590   3.336   0.671  0.0686  0.4583 -0.0573
 4870TIP3    H136173   2.512   3.392   0.665 -0.9534 -0.7483  1.2588
 4870TIP3    H236174   2.555   3.247   0.672  1.7031 -0.3327 -2.9585
 4871TIP3   OH236175   2.698   1.269   6.671  0.1310 -0.1067 -0.3615
 4871TIP3    H136176   2.722   1.351   6.714  0.6413  0.5869 -1.8927
 4871TIP3    H236177   2.687   1.207   6.743 -0.9904  1.4572  0.8877
 4872TIP3   OH236178   0.006   5.299   1.377  0.1758 -0.6443 -0.5276
 4872TIP3    H136179   0.067   5.268   1.443  0.1154  1.6690  0.7240
 4872TIP3    H236180   0.061   5.348   1.315  0.0273 -1.5875 -1.4484
 4873TIP3   OH236181   0.703   3.260   2.509 -0.0856 -0.4042  0.5742
 4873TIP3    H136182   0.694   3.194   2.441  0.4913  0.3033 -0.1993
 4873TIP3    H236183   0.791   3.245   2.546 -0.1673 -0.4107  0.7709
 4874TIP3   OH236184   0.897   6.582   1.695  0.2788  0.0098 -0.5428
 4874TIP3    H136185   0.827   6.602   1.757  0.4862 -0.0989 -0.2701
 4874TIP3    H236186   0.968   6.642   1.719  0.5658 -0.4166 -0.3105
 4875TIP3   OH236187   4.202   1.715   0.952  0.1594 -0.0903 -0.1332
 4875TIP3    H136188   4.225   1.676   1.036  0.3783 -0.7399 -0.4783
 4875TIP3    H236189   4.202   1.809   0.967  0.2677 -0.2011  0.5730
 4876TIP3   OH236190   3.786   2.123   0.561 -0.7550  0.4500 -0.0346
 4876TIP3    H136191   3.781   2.054   0.628 -2.0230 -1.1284 -1.6385
 4876TIP3    H236192   3.801   2.075   0.480 -1.4531  2.1042 -1.1764
 4877TIP3   OH236193   5.957   6.047   0.999 -0.5172  0.0864 -0.2459
 4877TIP3    H136194   5.991   6.060   0.910  0.8812  1.1204  0.4012
 4877TIP3    H236195   6.015   5.981   1.037 -1.2375 -0.5013 -0.1410
 4878TIP3   OH236196   1.557   0.777   8.390  0.4440  0.4486 -0.4830
 4878TIP3    H136197   1.568   0.840   8.461 -1.5974  2.2798 -1.6517
 4878TIP3    H236198   1.530   0.696   8.434 -2.2225  1.9221  0.8597
 4879TIP3   OH236199   1.438   2.351   6.403  0.2468 -0.7005 -0.3503
 4879TIP3    H136200   1.425   2.316   6.491  1.5720  1.9780  1.0451
 4879TIP3    H236201   1.532   2.346   6.388  0.0301 -1.2307 -1.6990
 4880TIP3   OH236202   5.863   0.615   6.838  0.0397  0.4235  0.0892
 4880TIP3    H136203   5.818   0.660   6.909  0.8042 -0.9279  1.4768
 4880TIP3    H236204   5.916   0.548   6.881  3.0018  1.5716 -1.4876
 4881TIP3   OH236205   3.200   0.758   1.115 -0.3511 -0.4921  0.4089
 4881TIP3    H136206   3.111   0.725   1.128 -1.3093  2.0073  0.7412
 4881TIP3    H236207   3.202   0.842   1.161  1.4105  0.6865 -1.6250
 4882TIP3   OH236208   5.863   5.152   7.687  0.0752  0.3071 -0.0237
 4882TIP3    H136209   5.840   5.223   7.627 -0.5349  0.9115  0.9034
 4882TIP3    H236210   5.952   5.127   7.661  1.5306  3.4065  1.4485
 4883TIP3   OH236211   0.191   3.025   1.487  0.0289 -0.4881  0.1859
 4883TIP3    H136212   0.158   2.954   1.432 -2.2667  1.2474 -0.8301
 4883TIP3    H236213   0.113   3.075   1.512  1.5567  1.8711  0.5761
 4884TIP3   OH236214   4.649   3.609   0.800  0.8882 -0.8002 -0.1863
 4884TIP3    H136215   4.562   3.644   0.783  0.4304 -1.2251  1.1116
 4884TIP3    H236216   4.691   3.603   0.714 -0.9624 -2.1740 -1.0429
 4885TIP3   OH236217   0.141   4.973   8.170 -0.4247  0.3923  0.0382
 4885TIP3    H136218   0.168   4.907   8.234  1.7309  0.6563 -0.5266
 4885TIP3    H236219   0.071   5.021   8.215 -0.9073 -1.1826  1.0926
 4886TIP3   OH236220   4.497   1.442   7.698 -0.3075  0.3219 -0.0975
 4886TIP3    H136221   4.485   1.476   7.786  1.2911  0.1728  0.2205
 4886TIP3    H236222   4.546   1.360   7.710  0.2479  0.4790 -1.1216
 4887TIP3   OH236223   1.390   2.522   7.812 -0.0751  0.4548  0.0474
 4887TIP3    H136224   1.314   2.518   7.754 -0.8847 -1.9557  1.1355
 4887TIP3    H236225   1.437   2.440   7.796  1.0049  0.8373  1.0845
 4888TIP3   OH236226   6.575   4.001   6.980 -0.0527  0.2508 -0.2677
 4888TIP3    H136227   6.595   3.961   7.065 -0.5169 -0.6027 -0.5526
 4888TIP3    H236228   6.553   4.092   7.002 -0.5129 -0.0478  0.5672
 4889TIP3   OH236229   3.906   6.776   6.445 -0.2466 -0.2853  0.2047
 4889TIP3    H136230   3.828   6.721   6.442 -1.2651  1.0924 -2.6211
 4889TIP3    H236231   3.881   6.851   6.500 -1.3571  0.5880 -1.3793
 4890TIP3   OH236232   1.691   0.316   0.312  0.5601 -0.1369  0.3664
 4890TIP3    H136233   1.666   0.231   0.274  0.1317  0.7057 -1.3313
 4890TIP3    H236234   1.698   0.299   0.406 -0.2255 -1.8888  0.1486
 4891TIP3   OH236235   3.184   3.754   8.645  1.0191 -0.1160 -0.5464
 4891TIP3    H136236   3.094   3.785   8.653  1.1164 -0.0130  0.1917
 4891TIP3    H236237   3.181   3.663   8.676  1.5686  0.5650  1.6776
 4892TIP3   OH236238   0.167   4.117   0.472 -0.1219  0.1044  0.3984
 4892TIP3    H136239   0.255   4.090   0.446  0.6271  1.9885  0.8285
 4892TIP3    H236240   0.132   4.043   0.521  0.9452 -0.9416 -0.3773
 4893TIP3   OH236241   3.350   0.377   6.662  0.6050  0.3212 -0.4004
 4893TIP3    H136242   3.377   0.435   6.591  0.5224 -0.1914 -0.8566
 4893TIP3    H236243   3.255   0.368   6.652  0.7136 -0.4759 -0.7865
 4894TIP3   OH236244   1.618   0.815   8.094  0.0937 -0.1282  0.3588
 4894TIP3    H136245   1.606   0.787   8.185 -0.2394 -0.1499  0.3096
 4894TIP3    H236246   1.688   0.759   8.061  0.1452 -0.1913  0.5721
 4895TIP3   OH236247   2.307   6.447   0.651  0.2275 -0.5378 -0.3341
 4895TIP3    H136248   2.366   6.483   0.585 -0.6833  0.9076 -0.4097
 4895TIP3    H236249   2.237   6.513   0.660  0.2381 -0.7341  1.9569
 4896TIP3   OH236250   6.454   1.104   8.448 -0.1701  0.1353 -0.7971
 4896TIP3    H136251   6.464   1.010   8.464  0.1532  0.4025  0.7334
 4896TIP3    H236252   6.488   1.117   8.359 -2.9110 -1.6147 -2.2444
 4897TIP3   OH236253   3.993   1.581   7.695 -0.1902 -0.2109  0.7194
 4897TIP3    H136254   4.070   1.621   7.654  0.2569 -0.2831  1.4917
 4897TIP3    H236255   3.970   1.509   7.636 -0.0729  0.2117  0.1368
 4898TIP3   OH236256   6.758   0.329   7.137  0.5434  0.5444  0.4738
 4898TIP3    H136257   6.800   0.393   7.079 -0.7351  2.0116  1.1125
 4898TIP3    H236258   6.669   0.320   7.102 -0.0048  0.8770  1.7338
 4899TIP3   OH236259   3.559   5.347   8.546  0.4529  0.0970  0.2599
 4899TIP3    H136260   3.601   5.416   8.596  0.0662  0.5214  0.0075
 4899TIP3    H236261   3.480   5.388   8.510  0.4915 -0.3236 -0.3254
 4900TIP3   OH236262   1.859   0.097   7.488 -0.5014 -0.5324 -0.3694
 4900TIP3    H136263   1.819   0.184   7.497  0.3752 -0.0736 -0.8609
 4900TIP3    H236264   1.859   0.062   7.578 -1.3995 -0.2827 -0.2593
 4901TIP3   OH236265   0.205   1.147   7.416  0.2429 -0.7381 -0.0742
 4901TIP3    H136266   0.173   1.067   7.375  1.4290 -0.5488 -1.4753
 4901TIP3    H236267   0.195   1.214   7.349  2.0191 -0.3684 -0.0303
 4902TIP3   OH236268   1.410   4.303   8.743  0.3482 -0.1046  0.2443
 4902TIP3    H136269   1.482   4.340   8.795 -1.1167 -0.6676  2.8284
 4902TIP3    H236270   1.396   4.216   8.781 -0.4717 -0.7624 -1.4788
 4903TIP3   OH236271   3.571   3.774   8.693  0.2403  0.0986 -0.7026
 4903TIP3    H136272   3.564   3.679   8.690  1.6083 -0.1127  0.9086
 4903TIP3    H236273   3.631   3.796   8.622  1.5430 -0.5042  0.1576
 4904TIP3   OH236274   2.444   2.783   7.042 -0.3367 -0.4843 -0.0426
 4904TIP3    H136275   2.355   2.815   7.051 -0.2260  0.0213 -0.6149
 4904TIP3    H236276   2.498   2.848   7.087 -0.2702 -0.8662  0.4303
 4905TIP3   OH236277   1.895   4.466   1.202 -0.0845 -0.8151  0.2180
 4905TIP3    H136278   1.956   4.453   1.275  0.2925 -1.1090 -0.1441
 4905TIP3    H236279   1.809   4.452   1.241  0.0665 -0.2776  0.7627
 4906TIP3   OH236280   3.787   0.092   7.783 -0.9623 -0.0834 -0.2404
 4906TIP3    H136281   3.787   0.147   7.704  1.7626  0.9307  0.3742
 4906TIP3    H236282   3.853   0.132   7.840 -1.6081 -1.8260  1.8389
 4907TIP3   OH236283   4.369   3.562   2.110  0.1925  0.1692 -0.2498
 4907TIP3    H136284   4.424   3.484   2.111  0.0031  0.0388  0.2070
 4907TIP3    H236285   4.308   3.547   2.038  0.5628  0.1833 -0.5716
 4908TIP3   OH236286   3.924   0.768   1.292  0.1075 -1.0689  0.4848
 4908TIP3    H136287   3.855   0.824   1.254  2.2080  1.9722  0.8264
 4908TIP3    H236288   3.961   0.723   1.217  0.9392  1.0956 -0.4928
 4909TIP3   OH236289   4.518   0.771   1.167  0.2026  0.0633 -0.2338
 4909TIP3    H136290   4.493   0.853   1.211  0.7029  0.2870 -0.3667
 4909TIP3    H236291   4.558   0.719   1.236 -0.6039 -0.2960 -0.0206
 4910TIP3   OH236292   3.226   3.935   6.511  0.2884 -0.5734  0.4927
 4910TIP3    H136293   3.173   3.909   6.435  0.6213 -0.3549  0.1840
 4910TIP3    H236294   3.297   3.986   6.474 -0.4412  0.9369  1.0820
 4911TIP3   OH236295   0.050   0.012   8.305  0.2401 -0.2156 -0.5525
 4911TIP3    H136296   0.037  -0.083   8.310  0.2199 -0.1388  1.1890
 4911TIP3    H236297   0.002   0.048   8.379  1.4329  1.0245 -0.3276
 4912TIP3   OH236298   6.739   4.002   6.170  0.3973 -0.3400 -0.5751
 4912TIP3    H136299   6.792   3.961   6.102  1.6889 -0.0721  0.2381
 4912TIP3    H236300   6.794   4.071   6.205 -1.2235  1.2379 -0.9926
 4913TIP3   OH236301   6.315   6.625   7.802  0.0095 -0.3606  0.6403
 4913TIP3    H136302   6.358   6.605   7.719  1.1115  0.2731  1.0277
 4913TIP3    H236303   6.369   6.695   7.840 -0.7381 -0.3268  1.6740
 4914TIP3   OH236304   3.724   6.651   8.630  0.5078  0.8311  0.2198
 4914TIP3    H136305   3.711   6.599   8.550  2.4131  0.0521  0.3634
 4914TIP3    H236306   3.654   6.622   8.689  0.2505 -0.0050 -0.4726
 4915TIP3   OH236307   5.707   1.967   0.483  0.5512 -0.2624  0.5155
 4915TIP3    H136308   5.646   2.016   0.538  1.3127  1.2203  0.0899
 4915TIP3    H236309   5.794   1.995   0.514  1.0067 -1.1635  0.0831
 4916TIP3   OH236310   3.204   2.604   6.781 -0.0865 -0.2529 -0.0005
 4916TIP3    H136311   3.294   2.583   6.807 -0.9361 -3.2477  0.8536
 4916TIP3    H236312   3.167   2.649   6.857  0.1482 -0.7183  0.3961
 4917TIP3   OH236313   4.567   1.703   1.329  0.1517 -0.2817 -0.2605
 4917TIP3    H136314   4.515   1.708   1.248 -1.2195 -0.1989  0.5848
 4917TIP3    H236315   4.623   1.627   1.316  0.1342 -0.1236 -1.3902
 4918TIP3   OH236316   5.662   6.269   0.307 -0.0495  0.1835 -0.0010
 4918TIP3    H136317   5.707   6.317   0.377 -0.3585  0.9859 -0.3418
 4918TIP3    H236318   5.585   6.321   0.288 -1.8639 -1.7874  1.4104
 4919TIP3   OH236319   4.286   3.154   7.805 -0.5572  0.2822  0.3733
 4919TIP3    H136320   4.229   3.117   7.872  0.7825  1.2951  2.1668
 4919TIP3    H236321   4.250   3.123   7.722 -1.3249 -2.3950  1.6126
 4920TIP3   OH236322   6.792   2.232   7.248  0.5261 -0.0162  0.3650
 4920TIP3    H136323   6.710   2.236   7.298  0.4556 -0.5424  0.2958
 4920TIP3    H236324   6.807   2.322   7.219 -0.1940  0.0242  0.1092
 4921TIP3   OH236325   0.400   4.046   6.523  0.1049 -0.5846  0.0278
 4921TIP3    H136326   0.354   3.973   6.564  0.8656 -0.8877  0.3569
 4921TIP3    H236327   0.399   4.026   6.429  0.4919 -1.1241  0.1355
 4922TIP3   OH236328   3.091   4.207   8.456  0.4379  0.1170 -0.3899
 4922TIP3    H136329   3.144   4.144   8.505  2.5165  2.0857  0.1049
 4922TIP3    H236330   3.155   4.267   8.418 -1.4047  2.0650 -0.6161
 4923TIP3   OH236331   0.265   0.896   1.434 -0.2027 -0.0670 -0.6882
 4923TIP3    H136332   0.306   0.911   1.519 -0.8199  0.6921 -0.5153
 4923TIP3    H236333   0.264   0.983   1.392 -1.1080 -0.1801 -0.9184
 4924TIP3   OH236334   1.129   3.081   7.655  0.3396 -0.4345  0.2956
 4924TIP3    H136335   1.068   3.048   7.589  0.4485 -0.0141 -0.0137
 4924TIP3    H236336   1.211   3.034   7.638  0.0666 -1.1229  0.8148
 4925TIP3   OH236337   5.889   6.469   7.761 -0.2369 -0.0522  0.0501
 4925TIP3    H136338   5.869   6.464   7.667 -0.6938 -0.7284  0.1765
 4925TIP3    H236339   5.984   6.455   7.766 -0.0284  1.1112 -0.3933
 4926TIP3   OH236340   2.626   0.731   6.886 -0.0610 -0.2670 -0.4687
 4926TIP3    H136341   2.695   0.766   6.830 -0.9554  1.5660 -0.5150
 4926TIP3    H236342   2.650   0.760   6.974 -1.5102  1.8217 -0.6746
 4927TIP3   OH236343   6.095   0.232   1.106 -0.3084  0.1015 -0.4346
 4927TIP3    H136344   6.053   0.159   1.060 -1.7948 -0.1232  1.1534
 4927TIP3    H236345   6.131   0.287   1.037  2.0694 -2.7369 -1.7074
 4928TIP3   OH236346   2.899   4.104   7.817 -0.2241 -0.1653 -0.3343
 4928TIP3    H136347   2.853   4.153   7.885 -0.6364  0.6261 -1.1505
 4928TIP3    H236348   2.956   4.044   7.864  1.0213  1.7455  0.7473
 4929TIP3   OH236349   2.733   6.090   8.664  0.0074  0.2748  0.2069
 4929TIP3    H136350   2.827   6.080   8.672 -0.0221  1.2937  2.8968
 4929TIP3    H236351   2.720   6.183   8.645 -0.4577  0.0927 -0.3977
 4930TIP3   OH236352   2.680   0.268   0.310 -0.1757  0.3323 -0.8263
 4930TIP3    H136353   2.614   0.235   0.371 -0.3727 -1.2152 -1.8178
 4930TIP3    H236354   2.632   0.284   0.229  0.4170  0.5497 -1.1393
 4931TIP3   OH236355   5.167   1.277   7.366 -0.6947 -0.2456  0.3522
 4931TIP3    H136356   5.126   1.262   7.451 -0.2509  0.2397  0.6578
 4931TIP3    H236357   5.100   1.250   7.302 -1.9240  1.4881  0.8108
 4932TIP3   OH236358   2.931   3.519   8.568 -0.5259  0.0362 -0.2569
 4932TIP3    H136359   3.015   3.531   8.614 -0.8503  0.6168  0.2023
 4932TIP3    H236360   2.893   3.441   8.608 -0.4515  0.0884 -0.0829
 4933TIP3   OH236361   0.592   1.838   0.686 -0.1446 -0.0056 -0.1877
 4933TIP3    H136362   0.589   1.932   0.705 -3.3409 -0.0138 -0.1234
 4933TIP3    H236363   0.604   1.833   0.591  2.5199  0.3070  0.0420
 4934TIP3   OH236364   6.031   2.528   7.955  0.4574  0.4005 -0.0210
 4934TIP3    H136365   5.958   2.512   7.895  0.7040 -2.6971  0.3481
 4934TIP3    H236366   6.013   2.615   7.991 -1.1514  1.2038 -2.4859
 4935TIP3   OH236367   5.109   6.570   0.358 -0.0154  0.2450 -0.5248
 4935TIP3    H136368   5.015   6.554   0.346  0.4487 -3.3997 -0.6406
 4935TIP3    H236369   5.137   6.609   0.276 -1.4830  1.9930 -0.2520
 4936TIP3   OH236370   0.134   5.303   7.798 -1.0115 -0.3701  0.3913
 4936TIP3    H136371   0.167   5.364   7.864  1.3029  0.6077 -1.5190
 4936TIP3    H236372   0.085   5.358   7.737 -1.9517 -1.0522  0.5008
 4937TIP3   OH236373   6.015   2.784   7.072 -0.1263  0.9676 -0.1364
 4937TIP3    H136374   6.046   2.739   6.994 -1.8043  1.3301 -1.0593
 4937TIP3    H236375   6.061   2.868   7.071  0.2232  0.7761 -0.4590
 4938TIP3   OH236376   2.314   0.698   1.937 -0.0721  0.4564 -0.3114
 4938TIP3    H136377   2.295   0.654   1.854  1.2576  0.5161 -0.6648
 4938TIP3    H236378   2.284   0.636   2.004 -0.8567  0.2667 -0.8217
 4939TIP3   OH236379   3.572   3.972   7.315  0.4230 -0.6258 -0.3320
 4939TIP3    H136380   3.629   3.958   7.391  0.9150  0.0150 -0.5729
 4939TIP3    H236381   3.504   4.032   7.347  0.7651 -0.1678 -0.4580
 4940TIP3   OH236382   2.717   4.432   0.833  0.2508 -0.3485 -0.1989
 4940TIP3    H136383   2.661   4.468   0.901  0.0890  0.5929 -0.8099
 4940TIP3    H236384   2.660   4.373   0.783  0.1493 -0.3854 -0.0402
 4941TIP3   OH236385   6.205   2.418   0.882 -0.3883 -0.0370  0.8051
 4941TIP3    H136386   6.190   2.330   0.848  0.1315 -0.7830  2.3837
 4941TIP3    H236387   6.255   2.403   0.963  0.6601  1.7683  0.5360
 4942TIP3   OH236388   6.546   2.561   0.170 -0.1050 -0.4970 -0.4788
 4942TIP3    H136389   6.521   2.615   0.245 -0.0362 -0.9148 -0.1564
 4942TIP3    H236390   6.480   2.581   0.103 -1.6239 -1.9670  0.5323
 4943TIP3   OH236391   6.506   1.092   1.412 -0.2662  0.4311  0.0922
 4943TIP3    H136392   6.564   1.108   1.337 -0.6147  1.4782  0.0298
 4943TIP3    H236393   6.418   1.100   1.377 -0.5489 -2.2263 -0.0542
 4944TIP3   OH236394   5.153   0.985   6.734 -0.6651  0.1631  0.2737
 4944TIP3    H136395   5.137   0.973   6.828  0.2135  0.0385  0.4183
 4944TIP3    H236396   5.220   1.053   6.730  0.1883 -0.6763 -0.2010
 4945TIP3   OH236397   1.692   3.626   6.384  0.6106 -0.1611  0.2409
 4945TIP3    H136398   1.714   3.680   6.308  0.3253 -0.4143 -0.0247
 4945TIP3    H236399   1.772   3.580   6.405  0.8436  0.3236  0.4352
 4946TIP3   OH236400   2.657   0.856   8.086  0.5665  0.3775  0.9551
 4946TIP3    H136401   2.606   0.889   8.160 -2.2758  0.9899 -1.1030
 4946TIP3    H236402   2.615   0.774   8.062  0.4776  0.8805 -0.7991
 4947TIP3   OH236403   1.081   6.456   1.425  0.1858 -0.6697 -0.3793
 4947TIP3    H136404   1.096   6.414   1.510 -2.0850 -0.8145  0.0243
 4947TIP3    H236405   1.160   6.438   1.375  0.6414 -2.5880  0.9265
 4948TIP3   OH236406   0.113   4.077   7.354  0.5127 -0.3372  0.1100
 4948TIP3    H136407   0.027   4.110   7.327 -0.1753 -1.9243  0.2258
 4948TIP3    H236408   0.138   4.132   7.428 -0.6731 -0.2116  0.4345
 4949TIP3   OH236409   5.447   0.279   6.413 -0.5166  0.0895  0.3060
 4949TIP3    H136410   5.465   0.304   6.322  0.1853 -0.5549  0.2554
 4949TIP3    H236411   5.407   0.357   6.452  0.2458  0.7740 -0.2424
 4950TIP3   OH236412   5.070   3.489   6.696 -0.4395  0.4706  0.0183
 4950TIP3    H136413   4.999   3.515   6.637 -0.4377  0.1905 -0.1098
 4950TIP3    H236414   5.150   3.516   6.650 -0.4018 -0.4010 -0.4496
 4951TIP3   OH236415   0.000   2.537   0.169  0.7915 -0.0004 -0.3335
 4951TIP3    H136416   0.011   2.597   0.244  0.4959  0.1408 -0.4020
 4951TIP3    H236417  -0.088   2.555   0.137  1.3261  0.7610 -1.4344
 4952TIP3   OH236418   0.836   1.558   0.977  0.2650  0.2890  0.5929
 4952TIP3    H136419   0.846   1.650   1.000  1.2581  0.5672 -0.8261
 4952TIP3    H236420   0.810   1.559   0.885  1.6422 -0.8509  0.1548
 4953TIP3   OH236421   4.199   5.395   0.152  0.2341 -0.2708 -0.2796
 4953TIP3    H136422   4.200   5.330   0.222 -1.1056  1.5533  1.5547
 4953TIP3    H236423   4.270   5.455   0.175 -0.1902  0.3188 -0.4831
 4954TIP3   OH236424   0.638   2.545   8.520  0.1750 -0.0350 -0.1314
 4954TIP3    H136425   0.681   2.590   8.447 -0.9363 -0.0615 -0.8246
 4954TIP3    H236426   0.593   2.614   8.568  1.0661  0.0099  0.6653
 4955TIP3   OH236427   5.181   4.842   8.034 -0.5580 -0.0320 -0.1893
 4955TIP3    H136428   5.184   4.749   8.016  0.5719  0.0634 -0.6286
 4955TIP3    H236429   5.273   4.866   8.052 -0.6331  1.1846 -1.2051
 4956TIP3   OH236430   3.668   3.049   0.200 -0.0232  0.0295  0.0064
 4956TIP3    H136431   3.661   3.144   0.194 -0.9821  0.1817  2.4185
 4956TIP3    H236432   3.599   3.016   0.142 -0.5934  0.8701  0.1903
 4957TIP3   OH236433   2.200   5.523   7.689  0.4106 -0.3147 -0.0814
 4957TIP3    H136434   2.108   5.535   7.665  0.1943 -0.6198  0.5562
 4957TIP3    H236435   2.196   5.481   7.775  1.1434  1.3899  0.8306
 4958TIP3   OH236436   0.033   3.735   1.857 -0.0425  0.0535 -0.3428
 4958TIP3    H136437  -0.049   3.690   1.837 -0.5357  0.0791  1.4281
 4958TIP3    H236438   0.085   3.670   1.904  0.8293  0.1511 -1.1445
 4959TIP3   OH236439   3.221   0.514   7.925  0.2957  0.4695  0.0764
 4959TIP3    H136440   3.210   0.600   7.885  0.7871 -0.4255 -2.1438
 4959TIP3    H236441   3.307   0.485   7.895 -0.6577 -1.5811 -0.8672
 4960TIP3   OH236442   0.780   5.967   0.763 -0.6613 -0.5378 -0.7610
 4960TIP3    H136443   0.788   5.982   0.857  1.4060 -0.7889 -0.8638
 4960TIP3    H236444   0.864   5.994   0.726 -1.7093  0.3868 -2.6750
 4961TIP3   OH236445   3.923   2.435   0.724 -0.2070 -0.2235  0.0499
 4961TIP3    H136446   3.936   2.360   0.667  0.6451  0.7919 -1.1427
 4961TIP3    H236447   4.011   2.465   0.747 -0.4609  1.4380 -0.9364
 4962TIP3   OH236448   2.189   2.024   7.989 -0.6852  0.1216 -0.4364
 4962TIP3    H136449   2.129   2.071   7.931 -1.2023  0.5386  0.4098
 4962TIP3    H236450   2.133   1.962   8.035 -0.0347 -1.2209 -1.4090
 4963TIP3   OH236451   4.160   3.398   8.094 -0.1908 -0.1127  0.8375
 4963TIP3    H136452   4.167   3.454   8.016 -0.7176  1.0239  1.5777
 4963TIP3    H236453   4.244   3.409   8.139  0.0638 -0.6677  0.5124
 4964TIP3   OH236454   4.469   3.224   6.573 -0.2494 -0.2764  0.1062
 4964TIP3    H136455   4.562   3.201   6.565 -0.2937 -1.1141  1.5603
 4964TIP3    H236456   4.465   3.318   6.555  1.0707  0.0226  1.2374
 4965TIP3   OH236457   4.494   1.955   6.513  0.8241 -0.3594  0.2970
 4965TIP3    H136458   4.472   1.922   6.426  1.8462  1.4642 -0.7142
 4965TIP3    H236459   4.583   1.990   6.503  0.9437 -0.0908  2.0754
 4966TIP3   OH236460   1.059   2.824   0.482  0.4758  0.8532 -0.3178
 4966TIP3    H136461   1.085   2.864   0.399  0.3271  0.6473 -0.4652
 4966TIP3    H236462   1.022   2.896   0.533 -1.4946  0.6096 -1.2739
 4967TIP3   OH236463   5.813   6.174   8.380 -0.1350  0.5679  0.0147
 4967TIP3    H136464   5.733   6.181   8.432 -0.0138  1.8021  0.0446
 4967TIP3    H236465   5.856   6.259   8.389 -0.0980  0.8141 -2.0825
 4968TIP3   OH236466   5.320   4.993   7.043  0.5726 -0.1391  0.2153
 4968TIP3    H136467   5.360   4.970   6.959  1.1958  1.3545  0.0756
 4968TIP3    H236468   5.325   4.913   7.094  1.7691 -0.6015 -0.5781
 4969TIP3   OH236469   4.447   2.724   8.407 -0.3352  0.8943 -0.1231
 4969TIP3    H136470   4.530   2.679   8.425 -0.6553  0.0959 -0.5912
 4969TIP3    H236471   4.383   2.653   8.398 -0.6441  1.3428 -1.9916
 4970TIP3   OH236472   2.759   6.616   7.282  0.1654  0.0992 -0.1180
 4970TIP3    H136473   2.699   6.651   7.216  0.4249  0.2651 -0.2708
 4970TIP3    H236474   2.745   6.522   7.280  0.0584  0.1179 -0.2995
 4971TIP3   OH236475   6.514   3.073   8.631 -0.1685  0.3679  0.6940
 4971TIP3    H136476   6.586   3.057   8.570 -0.7327  0.2739  0.0409
 4971TIP3    H236477   6.555   3.067   8.717  0.1088 -2.5265  0.4638
 4972TIP3   OH236478   4.197   0.362   6.509 -0.3778  0.2052 -0.1659
 4972TIP3    H136479   4.252   0.396   6.580  1.0254 -0.6172 -0.8059
 4972TIP3    H236480   4.146   0.437   6.479 -2.1291  0.2869  2.6428
 4973TIP3   OH236481   5.572   5.022   0.701 -0.1331 -0.2891 -0.0566
 4973TIP3    H136482   5.642   5.058   0.755 -0.7449  0.5968  0.1645
 4973TIP3    H236483   5.590   5.055   0.613 -1.2053  1.3875  0.3103
 4974TIP3   OH236484   0.707   5.139   7.321  0.3469  0.3212 -0.3232
 4974TIP3    H136485   0.643   5.209   7.331  0.6317  0.4707  0.5575
 4974TIP3    H236486   0.684   5.075   7.388  1.6736  0.8312  0.6783
 4975TIP3   OH236487   5.637   3.922   7.982  0.2955 -0.0586 -0.0212
 4975TIP3    H136488   5.566   3.905   7.921 -0.6626 -0.1236  1.0771
 4975TIP3    H236489   5.667   4.011   7.960 -1.0979  0.5465  0.4226
 4976TIP3   OH236490   2.598   4.080   8.397  0.0818  0.5617  0.1735
 4976TIP3    H136491   2.634   4.018   8.460  3.0379  0.4001 -1.4693
 4976TIP3    H236492   2.667   4.146   8.387 -1.1483  1.6809 -1.3662
 4977TIP3   OH236493   4.180   5.676   7.380 -0.4671  0.5985  0.3575
 4977TIP3    H136494   4.213   5.706   7.295 -0.4368 -0.9021 -0.1949
 4977TIP3    H236495   4.223   5.733   7.444 -1.1232  2.2911 -0.6502
 4978TIP3   OH236496   6.347   1.017   7.839  0.7578 -0.3648 -0.1227
 4978TIP3    H136497   6.370   1.030   7.748  0.0478 -0.6575 -0.3549
 4978TIP3    H236498   6.409   1.070   7.888  3.3862 -2.7640 -0.5710
 4979TIP3   OH236499   3.433   4.342   0.782 -0.1902 -0.1418  0.3039
 4979TIP3    H136500   3.431   4.341   0.878 -0.2234 -1.7682  0.3170
 4979TIP3    H236501   3.343   4.357   0.756 -0.4391 -1.1214  0.5529
 4980TIP3   OH236502   0.682   3.510   1.456 -0.3847 -0.4249 -0.4613
 4980TIP3    H136503   0.768   3.533   1.422 -0.2969 -0.0074  0.0309
 4980TIP3    H236504   0.638   3.594   1.467 -1.2139 -0.6820 -1.6050
 4981TIP3   OH236505   5.293   1.631   8.054 -0.5906 -0.3520  0.0505
 4981TIP3    H136506   5.381   1.651   8.022 -0.2212  0.1288  1.3197
 4981TIP3    H236507   5.243   1.610   7.975  0.0059  1.8488 -1.0025
 4982TIP3   OH236508   4.901   6.741   7.644  0.1987  0.0700  0.7613
 4982TIP3    H136509   4.957   6.759   7.719  1.3296  0.2765 -0.0973
 4982TIP3    H236510   4.947   6.673   7.595 -0.6580 -0.2700  0.4039
 4983TIP3   OH236511   0.437   6.112   0.115 -0.2598  0.6905  0.5423
 4983TIP3    H136512   0.439   6.195   0.162 -0.3161 -0.0883  1.9959
 4983TIP3    H236513   0.503   6.058   0.158  0.5932  0.3388 -1.1236
 4984TIP3   OH236514   0.550   2.085   1.012  1.2335 -0.6334 -0.4478
 4984TIP3    H136515   0.531   2.009   0.957  2.5811 -0.6860 -0.8922
 4984TIP3    H236516   0.614   2.053   1.075 -0.4023 -0.6050  1.2882
 4985TIP3   OH236517   1.875   5.047   1.618  0.2886  0.2267 -0.1697
 4985TIP3    H136518   1.791   5.046   1.571 -0.4202  0.9852  1.0437
 4985TIP3    H236519   1.906   4.957   1.613 -1.2889 -0.3860  0.5419
 4986TIP3   OH236520   4.232   3.192   8.734 -0.4986  0.0956  0.8771
 4986TIP3    H136521   4.248   3.171   8.642 -0.9847  0.9581  0.5799
 4986TIP3    H236522   4.279   3.125   8.782 -0.5425 -0.5904 -0.0036
 4987TIP3   OH236523   5.808   6.047   0.472  0.1544  0.3875  0.8314
 4987TIP3    H136524   5.885   6.104   0.475  0.5019  0.0121 -0.4004
 4987TIP3    H236525   5.735   6.106   0.455  0.5570  0.4745 -0.7915
 4988TIP3   OH236526   5.354   1.153   8.231 -0.4660 -0.0814  0.4647
 4988TIP3    H136527   5.430   1.209   8.215  0.4476 -1.5188 -0.3477
 4988TIP3    H236528   5.337   1.110   8.147 -1.1295 -1.0580  1.0845
 4989TIP3   OH236529   3.987   6.096   6.929 -0.7936  0.7705 -0.2472
 4989TIP3    H136530   4.021   6.097   6.839  1.6430 -1.8200  0.5186
 4989TIP3    H236531   3.920   6.027   6.928 -1.2963  1.2453 -0.1902
 4990TIP3   OH236532   2.344   1.232   7.537  0.6166 -0.0702 -0.4305
 4990TIP3    H136533   2.354   1.137   7.524  0.9629  0.0269 -0.8931
 4990TIP3    H236534   2.397   1.251   7.614 -2.2928 -0.8258  1.9641
 4991TIP3   OH236535   6.157   2.935   2.216 -0.3328 -0.1718 -0.1753
 4991TIP3    H136536   6.227   2.888   2.172  1.0324  0.8022  0.8932
 4991TIP3    H236537   6.137   3.009   2.160  0.8558  0.6259  0.4276
 4992TIP3   OH236538   0.076   0.830   6.197 -0.0808 -0.0265  0.7991
 4992TIP3    H136539   0.053   0.847   6.288 -2.3159  0.8989  0.1354
 4992TIP3    H236540   0.033   0.900   6.148  0.0617 -1.1788 -1.0665
 4993TIP3   OH236541   5.320   5.585   6.807  0.1285 -0.2294 -0.0795
 4993TIP3    H136542   5.359   5.569   6.893  0.7173 -2.1021 -0.6539
 4993TIP3    H236543   5.229   5.608   6.825  0.9052  2.1395  1.1708
 4994TIP3   OH236544   3.955   3.058   6.048  0.3870 -0.0317  0.1200
 4994TIP3    H136545   3.923   3.003   6.119  0.0583 -1.9646 -1.4311
 4994TIP3    H236546   3.876   3.089   6.004  0.5905  0.5960  0.1926
 4995TIP3   OH236547   1.327   2.048   1.794 -0.2533 -0.1983 -0.8423
 4995TIP3    H136548   1.260   2.029   1.859  1.1810 -1.4623  0.3615
 4995TIP3    H236549   1.341   1.966   1.748 -0.2610  0.3203 -1.7949
 4996TIP3   OH236550   4.685   3.886   1.132  0.3117 -0.4069  0.5718
 4996TIP3    H136551   4.734   3.956   1.089  0.3349 -0.5010  0.4461
 4996TIP3    H236552   4.605   3.929   1.165  0.3998 -0.2890  0.6323
 4997TIP3   OH236553   0.995   6.189   1.583  0.5825  0.5941  0.1486
 4997TIP3    H136554   1.053   6.121   1.617 -1.1506 -0.8205  0.4273
 4997TIP3    H236555   0.986   6.252   1.655 -1.9112 -1.6347  1.9608
 4998TIP3   OH236556   1.121   1.876   1.447  0.2745 -1.0311  0.3739
 4998TIP3    H136557   1.100   1.802   1.389 -0.0694 -2.0303  1.7328
 4998TIP3    H236558   1.104   1.843   1.535 -0.9313  1.0325  0.9623
 4999TIP3   OH236559   1.237   0.773   0.481 -0.2044  0.2613 -0.5067
 4999TIP3    H136560   1.206   0.701   0.427 -0.4458 -0.5620  0.7084
 4999TIP3    H236561   1.333   0.765   0.478 -0.2258 -1.4378  1.2977
 5000TIP3   OH236562   5.844   6.392   7.251 -0.4897  0.1022  0.0554
 5000TIP3    H136563   5.753   6.378   7.227 -0.4483  1.7902 -1.2767
 5000TIP3    H236564   5.894   6.337   7.191 -0.5841 -1.3548  1.2262
 5001TIP3   OH236565   5.450   6.155   1.096  0.2189 -0.3911  0.0883
 5001TIP3    H136566   5.460   6.109   1.179 -1.2976  0.9024  1.0409
 5001TIP3    H236567   5.404   6.094   1.039  1.1522 -1.2369  0.2222
 5002TIP3   OH236568   6.689   0.795   8.139  0.7456 -0.3431  0.4852
 5002TIP3    H136569   6.678   0.807   8.234 -1.3098  1.3024  0.1024
 5002TIP3    H236570   6.706   0.702   8.129  1.6383 -0.4458  2.5238
 5003TIP3   OH236571   5.788   1.034   2.544 -0.1209 -0.1745  0.1871
 5003TIP3    H136572   5.836   1.055   2.464 -1.2418  2.2845  0.0798
 5003TIP3    H236573   5.722   1.102   2.552  0.3852  0.1287  3.5783
 5004TIP3   OH236574   2.607   6.398   2.304 -0.0424 -0.4711 -0.5038
 5004TIP3    H136575   2.543   6.329   2.287 -0.8966 -0.2746  1.5302
 5004TIP3    H236576   2.648   6.372   2.386 -1.2492  1.9454  0.9937
 5005TIP3   OH236577   2.580   3.236   1.597 -0.4912 -0.8209 -0.2800
 5005TIP3    H136578   2.603   3.218   1.688  2.2809 -0.3308 -0.7768
 5005TIP3    H236579   2.611   3.326   1.582 -1.0999 -0.8163 -1.6366
 5006TIP3   OH236580   4.232   5.525   0.450  0.1747  0.5445 -0.3045
 5006TIP3    H136581   4.247   5.521   0.544 -1.6151  3.0840  0.2071
 5006TIP3    H236582   4.319   5.540   0.412  1.3737 -3.1997  0.5363
 5007TIP3   OH236583   0.039   3.775   7.289  0.0139  0.5045 -0.1356
 5007TIP3    H136584   0.077   3.786   7.202  0.0976 -2.2567 -0.5423
 5007TIP3    H236585  -0.047   3.816   7.284 -0.2196 -0.1139 -1.7500
 5008TIP3   OH236586   0.964   6.823   7.709  0.6135 -0.3446 -0.0089
 5008TIP3    H136587   1.028   6.802   7.777 -1.6190  0.1690  2.4666
 5008TIP3    H236588   0.956   6.919   7.713  0.2541 -0.3368 -0.7984
 5009TIP3   OH236589   1.274   5.424   7.934  0.4771  0.4819 -0.3583
 5009TIP3    H136590   1.353   5.406   7.985  0.9550  1.8722 -0.5825
 5009TIP3    H236591   1.252   5.514   7.955 -0.3473  0.5058 -1.2610
 5010TIP3   OH236592   6.449   5.753   1.595 -0.0512 -0.0800  0.5968
 5010TIP3    H136593   6.498   5.708   1.665  2.0404  1.1035 -0.0208
 5010TIP3    H236594   6.369   5.784   1.638  0.1077 -1.3314  1.8844
 5011TIP3   OH236595   5.158   3.805   6.938  0.2276  0.2082 -0.4889
 5011TIP3    H136596   5.065   3.826   6.944  0.5425  1.4355  0.4929
 5011TIP3    H236597   5.165   3.715   6.972 -0.3699  0.8326  1.4596
 5012TIP3   OH236598   0.865   5.757   8.410  0.0356 -0.1343 -0.2648
 5012TIP3    H136599   0.876   5.850   8.391  2.6200 -0.6635 -1.9612
 5012TIP3    H236600   0.946   5.717   8.378 -0.8777 -2.9430  0.6658
 5013TIP3   OH236601   2.770   2.720   8.223  0.2304 -0.3606 -0.0962
 5013TIP3    H136602   2.711   2.646   8.237 -0.1417 -0.1299 -0.4119
 5013TIP3    H236603   2.855   2.690   8.256  0.0368 -0.8501 -0.0334
 5014TIP3   OH236604   3.707   4.514   2.308 -0.1332 -0.0268 -0.2358
 5014TIP3    H136605   3.742   4.456   2.240 -1.3428  0.9976 -1.7990
 5014TIP3    H236606   3.783   4.561   2.341  0.4257 -0.2143 -1.2113
 5015TIP3   OH236607   1.601   3.173   0.226  0.1855 -0.4281  0.4281
 5015TIP3    H136608   1.525   3.228   0.248  2.3235  2.4780  1.1192
 5015TIP3    H236609   1.633   3.209   0.143  0.6631 -1.8208 -0.0131
 5016TIP3   OH236610   4.589   6.139   0.371  0.4754 -0.2745  0.3069
 5016TIP3    H136611   4.614   6.048   0.387  1.7167 -0.1454 -0.6720
 5016TIP3    H236612   4.568   6.142   0.278 -0.6558  0.2163  0.5661
 5017TIP3   OH236613   6.466   0.196   1.609 -0.5046  0.1356 -0.3668
 5017TIP3    H136614   6.464   0.212   1.704 -0.6577  1.3745 -0.5549
 5017TIP3    H236615   6.532   0.257   1.576 -0.6799 -0.0608 -1.0961
 5018TIP3   OH236616   0.651   3.400   1.700  0.0210  0.0088 -0.1337
 5018TIP3    H136617   0.653   3.427   1.608  2.8303 -0.6357 -0.3662
 5018TIP3    H236618   0.695   3.472   1.746 -0.2145 -0.2561  0.5126
 5019TIP3   OH236619   6.318   4.502   2.027 -0.6248 -0.4867 -0.4297
 5019TIP3    H136620   6.257   4.527   2.096  0.4844 -3.2384  1.7687
 5019TIP3    H236621   6.302   4.408   2.014  1.3068 -0.7010 -1.6849
 5020TIP3   OH236622   4.323   1.749   5.649  0.0914  1.1439  0.0374
 5020TIP3    H136623   4.340   1.842   5.664 -0.1393  0.9432  1.7447
 5020TIP3    H236624   4.369   1.705   5.720  0.3693 -0.0764 -0.8681
 5021TIP3   OH236625   6.769   0.667   7.444 -0.5010 -0.1117  0.3906
 5021TIP3    H136626   6.795   0.757   7.460  0.2283 -0.1710 -0.3734
 5021TIP3    H236627   6.717   0.642   7.520  0.8461  0.3478  1.4862
 5022TIP3   OH236628   6.056   0.579   0.049  0.5482 -0.3758 -0.2636
 5022TIP3    H136629   6.093   0.589   0.137 -0.1890 -0.5181  0.0635
 5022TIP3    H236630   6.132   0.585  -0.009  1.5052 -3.2059  0.5218
 5023TIP3   OH236631   3.057   6.395   1.194 -0.1853 -0.4508  0.0091
 5023TIP3    H136632   3.046   6.302   1.214  0.8071 -0.4019  0.8698
 5023TIP3    H236633   2.989   6.439   1.246  0.4333 -0.5765  0.9600
 5024TIP3   OH236634   6.501   5.888   1.372 -0.5514  0.0524 -0.5557
 5024TIP3    H136635   6.498   5.815   1.434 -0.7775  1.3726  1.0381
 5024TIP3    H236636   6.546   5.852   1.296  0.4513 -1.4124  0.6594
 5025TIP3   OH236637   1.000   1.627   1.301  0.3541 -0.1392 -0.0126
 5025TIP3    H136638   1.029   1.599   1.214 -0.8814 -1.1589 -0.1349
 5025TIP3    H236639   0.998   1.546   1.352  0.9965  0.4401  0.9568
 5026TIP3   OH236640   1.258   0.909   0.819  0.1972 -0.3239 -0.0702
 5026TIP3    H136641   1.326   0.845   0.798  1.9440  1.0456  1.1561
 5026TIP3    H236642   1.259   0.917   0.914 -0.1910  1.2765 -0.1551
 5027TIP3   OH236643   5.419   1.177   6.893 -0.1446 -0.5928 -0.2070
 5027TIP3    H136644   5.355   1.220   6.950 -1.1699 -1.8878 -0.3262
 5027TIP3    H236645   5.380   1.183   6.806  0.1511 -0.9295 -0.3610
 5028TIP3   OH236646   1.533   1.925   8.005 -0.6726 -0.5728 -0.2781
 5028TIP3    H136647   1.494   2.000   7.959  0.7687  2.1673  2.5541
 5028TIP3    H236648   1.459   1.886   8.052 -1.3270 -0.4521 -1.1705
 5029TIP3   OH236649   4.337   2.812   1.447  0.3319 -0.2207  0.4365
 5029TIP3    H136650   4.305   2.737   1.396 -0.7339  0.2956  0.3156
 5029TIP3    H236651   4.263   2.838   1.502  0.7273  0.6557  0.5822
 5030TIP3   OH236652   1.654   2.068   7.112 -0.5127 -0.2981  0.1567
 5030TIP3    H136653   1.579   2.114   7.076 -1.3245 -1.1497  0.7298
 5030TIP3    H236654   1.652   1.982   7.071 -0.3853 -0.6436  0.8498
 5031TIP3   OH236655   4.389   5.547   6.242 -0.1471 -0.0608 -0.4784
 5031TIP3    H136656   4.360   5.625   6.289  1.5750  1.2540 -1.4679
 5031TIP3    H236657   4.481   5.536   6.267  0.0983 -0.7800 -1.6093
 5032TIP3   OH236658   1.482   2.047   0.363 -0.0267  0.0097  0.3888
 5032TIP3    H136659   1.442   2.086   0.286  0.6521  2.1301  1.0520
 5032TIP3    H236660   1.556   1.998   0.328  1.2549  2.2521 -0.2616
 5033TIP3   OH236661   5.287   5.769   0.022  0.3274 -0.5328  0.1420
 5033TIP3    H136662   5.257   5.689  -0.022  1.4132  0.2339 -2.2134
 5033TIP3    H236663   5.381   5.754   0.036  0.1080 -0.5164  1.7322
 5034TIP3   OH236664   3.457   1.948   7.887  0.1875 -0.3825 -0.0134
 5034TIP3    H136665   3.476   2.033   7.926 -0.7561 -0.7407  1.3151
 5034TIP3    H236666   3.461   1.962   7.793 -1.2409  1.4509  0.1464
 5035TIP3   OH236667   4.715   4.515   7.318 -0.1608  0.3739  0.2665
 5035TIP3    H136668   4.794   4.503   7.370 -0.6253 -3.8924  0.3266
 5035TIP3    H236669   4.746   4.518   7.227  0.1902 -3.1158  0.1281
 5036TIP3   OH236670   1.097   6.011   8.756  0.0841  0.3632  0.1651
 5036TIP3    H136671   1.129   6.101   8.750  0.1618  0.2916 -0.5390
 5036TIP3    H236672   1.165   5.958   8.715 -0.1541  0.0289  0.1990
 5037TIP3   OH236673   3.165   4.468   8.286  0.0937 -0.4283 -0.1155
 5037TIP3    H136674   3.139   4.560   8.284 -0.6501 -0.5197  2.5239
 5037TIP3    H236675   3.260   4.469   8.276  0.0444  0.5794 -0.5761
 5038TIP3   OH236676   1.383   3.493   6.651  0.0032 -0.2516 -0.0090
 5038TIP3    H136677   1.459   3.436   6.662 -0.3330 -1.3300 -2.5889
 5038TIP3    H236678   1.309   3.440   6.682  0.1245  0.3960  1.4798
 5039TIP3   OH236679   1.536   1.087   8.105  0.5985  0.2814 -0.5818
 5039TIP3    H136680   1.609   1.026   8.103  0.0657 -0.4386  0.7747
 5039TIP3    H236681   1.460   1.033   8.123 -0.2151  1.0883 -1.4847
 5040TIP3   OH236682   3.529   2.298   6.524 -0.2504  0.6130 -0.5497
 5040TIP3    H136683   3.451   2.307   6.579  0.0250  0.9792 -0.2194
 5040TIP3    H236684   3.494   2.280   6.436 -0.6928  0.1798 -0.2878
 5041TIP3   OH236685   4.650   1.114   1.686  0.3862 -0.5544 -0.1730
 5041TIP3    H136686   4.675   1.165   1.763  1.7370 -0.0564 -0.9013
 5041TIP3    H236687   4.694   1.158   1.613 -0.1390 -1.5318 -1.1077
 5042TIP3   OH236688   1.778   4.140   1.033  0.4265  0.4305  0.0113
 5042TIP3    H136689   1.786   4.215   0.975  0.0728 -0.9722 -1.9244
 5042TIP3    H236690   1.688   4.144   1.066  0.4154  0.8649 -0.0718
 5043TIP3   OH236691   3.096   6.282   1.622  0.1386  0.3132 -0.3119
 5043TIP3    H136692   3.014   6.247   1.586  0.6160 -1.0162 -0.1454
 5043TIP3    H236693   3.069   6.361   1.669 -1.3201 -0.9520  1.1110
 5044TIP3   OH236694   6.710   0.464   1.847 -0.4809  0.1925  0.0461
 5044TIP3    H136695   6.769   0.522   1.798  0.2757  0.4802  1.2359
 5044TIP3    H236696   6.752   0.455   1.933 -1.1606 -1.2310  0.2588
 5045TIP3   OH236697   1.652   1.467   7.025 -0.0089  0.2292 -0.2372
 5045TIP3    H136698   1.561   1.446   7.045 -0.1265 -0.5327 -1.4468
 5045TIP3    H236699   1.687   1.505   7.106 -1.1706 -0.2120  0.4907
 5046TIP3   OH236700   6.749   2.946   7.818 -0.0744 -0.4435  0.1733
 5046TIP3    H136701   6.844   2.952   7.832 -0.4252  1.2458  2.5277
 5046TIP3    H236702   6.732   3.005   7.745  0.4880  1.2912  1.3580
 5047TIP3   OH236703   6.171   0.282   0.695  0.7195 -0.0789 -0.4438
 5047TIP3    H136704   6.165   0.359   0.750  0.8496 -0.8298  0.6544
 5047TIP3    H236705   6.178   0.209   0.756  3.9785 -0.7224 -1.3829
 5048TIP3   OH236706   1.311   3.796   0.448  0.1923 -0.0039 -0.2572
 5048TIP3    H136707   1.373   3.777   0.378 -0.5768 -2.0784 -0.4202
 5048TIP3    H236708   1.358   3.773   0.528  0.5276  0.9176 -0.1753
 5049TIP3   OH236709   3.020   2.794   0.576 -0.8773 -0.3527 -0.0463
 5049TIP3    H136710   3.052   2.703   0.576  0.2246  0.0234  0.4331
 5049TIP3    H236711   3.034   2.824   0.666  0.9241  1.0177 -0.7296
 5050TIP3   OH236712   0.257   5.494   7.437 -0.1465  0.1157 -0.2124
 5050TIP3    H136713   0.332   5.478   7.494 -0.3041 -0.5078 -0.1761
 5050TIP3    H236714   0.243   5.411   7.392 -1.5897 -0.1631  0.6972
 5051TIP3   OH236715   3.009   4.687   1.336 -0.2429 -0.4439  0.2208
 5051TIP3    H136716   3.006   4.783   1.339 -0.4996 -0.4671  0.9212
 5051TIP3    H236717   3.050   4.667   1.252 -1.1630  0.2617 -0.4267
 5052TIP3   OH236718   0.782   0.006   0.598 -0.4288 -0.8199 -0.2517
 5052TIP3    H136719   0.718  -0.065   0.596 -0.4476 -0.7935 -1.0177
 5052TIP3    H236720   0.743   0.072   0.655 -0.8593 -1.0193 -0.3076
 5053TIP3   OH236721   2.324   1.242   0.290  0.1414 -0.4197 -0.3901
 5053TIP3    H136722   2.326   1.231   0.195  1.0628  0.9724 -0.5645
 5053TIP3    H236723   2.312   1.337   0.302 -0.9111 -0.6980  0.8918
 5054TIP3   OH236724   4.600   6.806   7.114  0.1566  0.0598 -0.3810
 5054TIP3    H136725   4.516   6.818   7.069  1.2277  0.4880 -2.3946
 5054TIP3    H236726   4.658   6.870   7.073  0.9677  1.3034  2.4567
 5055TIP3   OH236727   5.946   1.847   0.192  0.2288  0.0332  0.3415
 5055TIP3    H136728   5.871   1.815   0.243  0.0895 -0.8772 -0.4017
 5055TIP3    H236729   6.015   1.782   0.208  0.2397 -0.1673 -0.4709
 5056TIP3   OH236730   3.300   6.656   0.079 -0.0830 -0.3180  0.3396
 5056TIP3    H136731   3.216   6.642   0.123  0.3751 -0.2333  1.2631
 5056TIP3    H236732   3.322   6.747   0.098  0.0762 -0.2440 -0.1654
 5057TIP3   OH236733   6.458   0.036   8.022 -0.3652 -0.0934  0.1549
 5057TIP3    H136734   6.536  -0.014   8.047 -0.3314  0.2415  0.7277
 5057TIP3    H236735   6.475   0.064   7.932  0.9205  1.3915  0.8231
 5058TIP3   OH236736   0.738   2.218   0.045 -0.2484 -0.1882  0.6690
 5058TIP3    H136737   0.777   2.275  -0.021 -1.4150  3.2901  2.6986
 5058TIP3    H236738   0.806   2.211   0.113 -0.5987 -0.0415  1.0413
 5059TIP3   OH236739   5.893   4.731   0.319  0.7567 -0.2236  0.1200
 5059TIP3    H136740   5.981   4.760   0.293  0.7600 -0.0336  0.3389
 5059TIP3    H236741   5.874   4.781   0.399  0.2144  0.1833 -0.2510
 5060TIP3   OH236742   4.604   6.474   0.008 -0.7199 -0.2126  0.3401
 5060TIP3    H136743   4.544   6.453  -0.063 -0.4396  0.4125 -0.0933
 5060TIP3    H236744   4.648   6.392   0.028 -1.4102 -0.5831  0.3742
 5061TIP3   OH236745   2.683   6.600   7.660  0.1639 -0.2656 -0.0394
 5061TIP3    H136746   2.676   6.504   7.666 -2.1128 -0.1237  0.1917
 5061TIP3    H236747   2.646   6.632   7.741  0.4954  0.8502 -0.3133
 5062TIP3   OH236748   3.570   2.168   7.131  0.0080 -0.2695 -0.1223
 5062TIP3    H136749   3.613   2.251   7.152  0.0839  0.0333 -1.3807
 5062TIP3    H236750   3.494   2.193   7.078  0.6887 -1.0412 -1.5190
 5063TIP3   OH236751   6.436   0.906   0.971  0.4834  0.3180 -0.5654
 5063TIP3    H136752   6.502   0.837   0.971 -0.4908 -0.6503  0.5923
 5063TIP3    H236753   6.355   0.861   0.947  0.0837  1.3519 -1.2302
 5064TIP3   OH236754   1.859   6.139   0.479 -0.8994  0.0387  0.0300
 5064TIP3    H136755   1.827   6.078   0.413 -0.7011  0.7202 -0.7137
 5064TIP3    H236756   1.940   6.175   0.442  0.6484 -1.4584  1.7668
 5065TIP3   OH236757   5.958   2.040   0.563 -1.3634  0.0482 -0.3544
 5065TIP3    H136758   6.038   2.009   0.520 -0.4473  1.6855  0.0924
 5065TIP3    H236759   5.969   2.015   0.654 -1.6262 -0.2394 -0.4032
 5066TIP3   OH236760   2.201   6.557   0.353  0.5376 -0.3088  0.6873
 5066TIP3    H136761   2.139   6.520   0.291  0.5442 -1.2240  1.2136
 5066TIP3    H236762   2.287   6.541   0.314  0.6265 -2.1651  1.5739
 5067TIP3   OH236763   1.126   6.189   0.694  0.3507 -0.5164 -0.0314
 5067TIP3    H136764   1.123   6.105   0.739  1.5533 -0.9634 -0.7415
 5067TIP3    H236765   1.039   6.198   0.654  0.0923 -1.2380  0.3479
 5068TIP3   OH236766   5.679   1.719   8.325  0.1568  0.6248 -0.1663
 5068TIP3    H136767   5.741   1.694   8.256 -0.2798 -1.1788  0.0557
 5068TIP3    H236768   5.613   1.770   8.279 -0.6289 -1.3236 -1.3338
 5069TIP3   OH236769   4.418   4.282   7.543 -0.5335  0.8131  0.2958
 5069TIP3    H136770   4.436   4.291   7.449 -0.8937 -0.9376  0.0369
 5069TIP3    H236771   4.499   4.309   7.586  0.9734 -1.8510 -0.6603
 5070TIP3   OH236772   1.925   0.874   2.054 -0.3317  0.5658 -0.3527
 5070TIP3    H136773   1.872   0.796   2.043 -1.0973  1.0290 -0.0267
 5070TIP3    H236774   1.958   0.868   2.144  0.1341  0.3059 -0.5369
 5071TIP3   OH236775   2.277   4.987   8.697 -0.2499  0.0064  0.1395
 5071TIP3    H136776   2.255   5.076   8.669 -1.0316  0.6337  2.5023
 5071TIP3    H236777   2.241   4.980   8.785 -1.7102 -3.2543 -0.5813
 5072TIP3   OH236778   4.517   6.162   0.101 -0.4105 -0.4945 -0.0387
 5072TIP3    H136779   4.558   6.179   0.017 -0.8676 -1.6458 -0.5232
 5072TIP3    H236780   4.454   6.091   0.083 -1.9015  0.5428  0.8592
 5073TIP3   OH236781   3.803   3.841   0.008  0.1572  0.1564 -0.0463
 5073TIP3    H136782   3.721   3.816  -0.035  0.5648  0.3329 -0.9560
 5073TIP3    H236783   3.870   3.826  -0.059  0.6501  1.7238  0.0763
 5074TIP3   OH236784   3.602   6.332   7.643 -0.1268  0.8081 -0.3381
 5074TIP3    H136785   3.663   6.272   7.686 -1.0896  0.5382  0.7089
 5074TIP3    H236786   3.528   6.277   7.617 -0.9145  1.4770  0.4133
 5075TIP3   OH236787   3.916   4.007   5.940 -0.2743  0.4707 -0.4640
 5075TIP3    H136788   3.946   4.077   5.999 -0.8451  0.5264 -0.2227
 5075TIP3    H236789   3.993   3.982   5.890 -0.0179  1.1483 -0.4203
 5076TIP3   OH236790   5.882   0.155   0.150  0.5566 -0.0327  0.2580
 5076TIP3    H136791   5.792   0.123   0.140  1.2397 -1.6808 -1.2175
 5076TIP3    H236792   5.936   0.077   0.141  2.1409  0.7191  2.3283
 5077TIP3   OH236793   1.220   2.374   7.470 -0.0867 -0.0795 -0.1353
 5077TIP3    H136794   1.130   2.408   7.470  0.7786  2.5024  0.7065
 5077TIP3    H236795   1.218   2.302   7.532 -1.8065 -0.8786 -1.0406
 5078TIP3   OH236796   5.612   3.768   0.590  0.6746  0.1832 -0.2045
 5078TIP3    H136797   5.573   3.801   0.671  0.7926 -1.0338  0.3635
 5078TIP3    H236798   5.702   3.803   0.591  1.1059 -0.8884  0.8657
 5079TIP3   OH236799   3.098   3.330   6.931 -0.3171  0.8060 -0.1368
 5079TIP3    H136800   3.091   3.403   6.870 -1.7008 -0.3378 -1.4221
 5079TIP3    H236801   3.126   3.256   6.876  1.3643  0.4057  1.1787
 5080TIP3   OH236802   0.135   5.820   8.795  0.2870 -0.3719  0.0926
 5080TIP3    H136803   0.150   5.801   8.703  0.3279 -1.3477  0.2856
 5080TIP3    H236804   0.104   5.911   8.797  2.6654  0.5296 -0.6500
 5081TIP3   OH236805   4.855   2.228   0.244 -0.2001  0.1156  0.1632
 5081TIP3    H136806   4.858   2.157   0.180 -0.1416 -1.7876  2.1762
 5081TIP3    H236807   4.767   2.224   0.281 -0.0021  0.7352  0.7182
 5082TIP3   OH236808   5.008   2.527   0.856 -0.4566 -0.4099 -0.2270
 5082TIP3    H136809   4.985   2.603   0.803  2.0705  0.1840 -0.5975
 5082TIP3    H236810   5.012   2.559   0.946  1.6870  0.2520 -0.5029
 5083TIP3   OH236811   3.021   5.675   7.491 -0.0214  0.1103 -0.0063
 5083TIP3    H136812   3.080   5.600   7.483  0.2054  0.3972 -1.2636
 5083TIP3    H236813   3.007   5.684   7.585  2.7508  0.6245  0.4599
 5084TIP3   OH236814   4.490   1.149   8.462 -0.4325  0.2823  0.3635
 5084TIP3    H136815   4.571   1.102   8.441  0.3621  0.5144  2.6093
 5084TIP3    H236816   4.424   1.081   8.471  0.2688 -0.2551  1.6638
 5085TIP3   OH236817   6.334   2.328   2.133  0.2127  0.0020 -0.0787
 5085TIP3    H136818   6.371   2.265   2.071  0.4220 -0.6123  0.6539
 5085TIP3    H236819   6.340   2.285   2.218 -2.0869 -0.1031  0.1121
 5086TIP3   OH236820   6.550   1.671   1.099  0.0093  0.4129 -0.0926
 5086TIP3    H136821   6.630   1.619   1.097 -1.1903 -1.5233 -0.3744
 5086TIP3    H236822   6.548   1.709   1.187 -0.2217 -1.9982  1.0233
 5087TIP3   OH236823   4.991   2.394   6.857  0.5624  0.2800  0.2551
 5087TIP3    H136824   5.026   2.309   6.831  0.8183  0.3569  0.3428
 5087TIP3    H236825   4.896   2.384   6.851  0.5638 -0.2486  0.9836
 5088TIP3   OH236826   6.176   0.653   6.891 -0.4189 -0.8085 -0.0944
 5088TIP3    H136827   6.170   0.682   6.800 -2.2074 -0.6733  0.0306
 5088TIP3    H236828   6.143   0.727   6.942 -0.3672 -1.2550  0.5952
 5089TIP3   OH236829   6.601   6.384   0.079 -0.1272 -0.0746  0.3942
 5089TIP3    H136830   6.628   6.474   0.061 -1.8967  0.5063  0.5406
 5089TIP3    H236831   6.675   6.347   0.128  0.9538  1.0378 -0.3239
 5090TIP3   OH236832   3.184   0.736   7.757 -0.0999 -0.0422 -0.4639
 5090TIP3    H136833   3.169   0.826   7.788 -0.9733 -0.1029 -0.6821
 5090TIP3    H236834   3.262   0.743   7.702  0.1701  0.4775 -0.0299
 5091TIP3   OH236835   5.634   5.897   1.556 -0.1163  0.4446 -0.1925
 5091TIP3    H136836   5.591   5.971   1.601 -0.8186 -1.1459  1.8995
 5091TIP3    H236837   5.712   5.879   1.608  0.1628 -0.1643 -0.8051
 5092TIP3   OH236838   2.478   5.746   1.317  0.5441  0.5293 -0.3447
 5092TIP3    H136839   2.490   5.655   1.346  0.3878  0.5080 -0.3508
 5092TIP3    H236840   2.458   5.794   1.398  1.9460  0.7938 -0.1268
 5093TIP3   OH236841   0.919   4.804   7.892 -0.5814 -0.2530  0.6782
 5093TIP3    H136842   0.937   4.889   7.852 -1.4575 -0.6626 -0.6890
 5093TIP3    H236843   0.917   4.821   7.986  1.5564  0.7660  0.5947
 5094TIP3   OH236844   3.096   6.639   0.280  0.7299  0.3036  0.2178
 5094TIP3    H136845   3.025   6.703   0.273  0.9747  0.6165  0.5638
 5094TIP3    H236846   3.088   6.603   0.368  0.4891 -0.2772 -0.0294
 5095TIP3   OH236847   6.207   1.764   0.943 -0.4107 -0.2853  0.1076
 5095TIP3    H136848   6.213   1.771   1.038 -0.4263 -0.1785  0.1011
 5095TIP3    H236849   6.206   1.670   0.926  4.5826 -0.5320 -0.0866
 5096TIP3   OH236850   0.672   4.984   1.217 -0.0684  0.0445  0.4561
 5096TIP3    H136851   0.768   4.976   1.216 -0.1564 -1.5672  1.0942
 5096TIP3    H236852   0.649   4.982   1.310 -0.8263 -1.6869  0.2663
 5097TIP3   OH236853   4.861   1.275   0.258  0.6612 -0.2000 -0.5441
 5097TIP3    H136854   4.804   1.335   0.209 -0.4853 -0.6230  0.2276
 5097TIP3    H236855   4.828   1.188   0.235  0.6222 -0.4288  0.3667
 5098TIP3   OH236856   3.814   0.988   8.197 -0.5618 -0.4642 -0.2414
 5098TIP3    H136857   3.813   1.070   8.148  0.3084 -0.6365 -0.5610
 5098TIP3    H236858   3.897   0.990   8.245 -0.6264 -1.0667 -0.0995
 5099TIP3   OH236859   4.987   3.182   8.400  0.0244  0.4482 -0.4290
 5099TIP3    H136860   5.043   3.254   8.428 -1.4484  1.4325  0.1223
 5099TIP3    H236861   5.035   3.103   8.424  1.5823  1.2172 -0.8524
 5100TIP3   OH236862   5.928   0.885   8.165 -0.0048  0.5621  0.0350
 5100TIP3    H136863   5.919   0.790   8.178 -0.1010  0.7655  1.6949
 5100TIP3    H236864   6.009   0.907   8.212 -1.2959  1.6528  1.8957
 5101TIP3   OH236865   4.949   5.956   6.681 -0.0692  0.0026  0.5738
 5101TIP3    H136866   4.889   5.950   6.606  0.7616  0.1606 -0.1147
 5101TIP3    H236867   5.036   5.963   6.642  0.3527  0.4107  1.5532
 5102TIP3   OH236868   5.978   0.337   7.479  0.1051  0.9247  0.4068
 5102TIP3    H136869   5.896   0.330   7.528 -1.0221 -1.4146 -1.6167
 5102TIP3    H236870   5.974   0.424   7.440 -0.9187  1.2262  1.1260
 5103TIP3   OH236871   5.847   4.784   1.268  0.1721  0.0662 -0.6468
 5103TIP3    H136872   5.797   4.793   1.350  1.7339  2.8733  0.1523
 5103TIP3    H236873   5.934   4.754   1.297  0.4883  0.2652 -1.3868
 5104TIP3   OH236874   5.561   2.214   1.100  0.0014 -0.0329  0.5823
 5104TIP3    H136875   5.501   2.159   1.050  1.8690 -2.0705  0.4138
 5104TIP3    H236876   5.614   2.257   1.034  1.0699 -1.0798  0.7202
 5105TIP3   OH236877   6.210   0.774   2.038 -0.2181  0.1664 -0.7870
 5105TIP3    H136878   6.176   0.814   2.118  0.3601  0.7541 -0.8247
 5105TIP3    H236879   6.303   0.796   2.038 -0.1490 -0.1077 -1.4577
 5106TIP3   OH236880   1.574   2.790   1.510  0.4752  0.4547 -0.3178
 5106TIP3    H136881   1.538   2.703   1.494 -0.4833  1.0765 -1.7561
 5106TIP3    H236882   1.497   2.847   1.516  0.9181  0.8977  3.1415
 5107TIP3   OH236883   1.867   3.988   7.407  0.0124  0.1649  0.0311
 5107TIP3    H136884   1.774   4.007   7.394 -0.2277 -0.8278  0.1865
 5107TIP3    H236885   1.869   3.900   7.445  1.0534 -0.3383 -1.0936
 5108TIP3   OH236886   2.239   1.594   7.869  0.2299 -0.1110 -0.3943
 5108TIP3    H136887   2.268   1.671   7.820 -0.8816  1.6131  1.4893
 5108TIP3    H236888   2.242   1.522   7.806  1.0357  1.5216 -2.3057
 5109TIP3   OH236889   0.533   6.704   7.362 -0.1753  0.0727  0.1087
 5109TIP3    H136890   0.539   6.783   7.308  0.7932  2.1801  2.9999
 5109TIP3    H236891   0.448   6.666   7.341 -0.3116  1.4030 -1.9854
 5110TIP3   OH236892   3.132   5.557   0.789 -0.5432  0.4538 -0.1931
 5110TIP3    H136893   3.167   5.610   0.861 -0.4714  0.8524 -0.5196
 5110TIP3    H236894   3.206   5.541   0.732 -0.2957 -1.0150  0.4988
 5111TIP3   OH236895   3.268   3.860   6.063  1.3875  0.4869 -0.1957
 5111TIP3    H136896   3.287   3.938   6.114  0.1659  1.8404 -1.6977
 5111TIP3    H236897   3.264   3.891   5.972 -2.0673 -0.6338 -0.5956
 5112TIP3   OH236898   5.177   3.885   1.133 -0.2319  0.4315 -0.1564
 5112TIP3    H136899   5.171   3.929   1.048 -1.9792  1.1290  0.2945
 5112TIP3    H236900   5.234   3.942   1.185 -0.1317  0.6328 -0.4848
 5113TIP3   OH236901   4.853   4.204   6.346 -0.2129  0.1502 -0.0320
 5113TIP3    H136902   4.777   4.260   6.359  0.4796  1.2948 -0.7674
 5113TIP3    H236903   4.834   4.156   6.266  0.1313  0.9526 -0.6024
 5114TIP3   OH236904   2.658   3.919   7.394  0.2637 -0.1519 -0.0572
 5114TIP3    H136905   2.637   3.985   7.460 -0.8848 -0.1048 -0.4531
 5114TIP3    H236906   2.576   3.873   7.379  1.2228 -2.2824  0.8459
 5115TIP3   OH236907   0.748   5.665   8.632  0.3434 -0.0116  0.0767
 5115TIP3    H136908   0.792   5.704   8.557 -0.3187 -0.6420 -0.6622
 5115TIP3    H236909   0.793   5.701   8.708  0.6288  1.1284 -0.6013
 5116TIP3   OH236910   5.225   1.834   0.699 -0.0035  0.1421  0.1230
 5116TIP3    H136911   5.145   1.809   0.653  0.9756  0.3989 -1.8258
 5116TIP3    H236912   5.220   1.929   0.706 -1.7835 -0.0543  3.8438
 5117TIP3   OH236913   4.837   4.577   0.583  0.1342  0.4155  0.4505
 5117TIP3    H136914   4.797   4.549   0.501 -4.0036  1.3275  1.8801
 5117TIP3    H236915   4.881   4.659   0.562  0.6708 -0.2344 -1.1217
 5118TIP3   OH236916   3.405   4.456   0.162 -0.0007 -0.5576 -0.5302
 5118TIP3    H136917   3.407   4.362   0.143 -0.1717 -0.3285 -1.7901
 5118TIP3    H236918   3.314   4.474   0.185 -0.0026 -0.6742 -0.4457
 5119TIP3   OH236919   0.972   0.343   0.059  0.1355  0.1055 -0.2116
 5119TIP3    H136920   0.957   0.347   0.153  2.1023  1.2809  0.1329
 5119TIP3    H236921   1.010   0.257   0.044  0.1803  0.0584  0.1595
 5120TIP3   OH236922   1.587   1.502   0.649  0.4282 -0.1158  0.0389
 5120TIP3    H136923   1.628   1.448   0.717  1.4790 -0.7490 -1.0476
 5120TIP3    H236924   1.628   1.472   0.567 -1.3757  0.0506 -0.9764
 5121TIP3   OH236925   1.328   4.288   8.478  0.2892  0.6751 -0.2238
 5121TIP3    H136926   1.357   4.310   8.567 -0.7971  1.0081  0.0632
 5121TIP3    H236927   1.242   4.329   8.470 -0.8023 -1.4723 -0.4962
 5122TIP3   OH236928   0.602   4.795   7.463 -0.1147 -1.0357 -0.3599
 5122TIP3    H136929   0.633   4.876   7.504 -0.3419 -0.7934 -0.6573
 5122TIP3    H236930   0.606   4.730   7.532 -2.7762 -0.1226  0.7605
 5123TIP3   OH236931   6.299   3.614   8.731 -0.1842  0.0919  0.2462
 5123TIP3    H136932   6.347   3.648   8.655 -0.8241  0.0963 -0.1669
 5123TIP3    H236933   6.268   3.692   8.777 -1.8902  0.1263 -0.8538
 5124TIP3   OH236934   1.541   2.706   0.789 -0.3134  0.4260  0.5954
 5124TIP3    H136935   1.535   2.614   0.814 -0.8666  0.6788  1.4327
 5124TIP3    H236936   1.635   2.722   0.778 -0.2705 -1.4350 -4.3034
 5125TIP3   OH236937   0.082   2.968   0.565  0.1805  0.5501 -0.4569
 5125TIP3    H136938   0.157   3.024   0.583  0.4025  1.0601 -2.6647
 5125TIP3    H236939   0.115   2.879   0.577  0.5276  0.7973  0.5958
 5126TIP3   OH236940   4.059   2.998   8.011 -0.1243  0.6364  0.1180
 5126TIP3    H136941   4.004   2.961   8.080 -0.4222  0.3994 -0.2399
 5126TIP3    H236942   4.149   2.982   8.041 -0.2476 -0.2874  0.0301
 5127TIP3   OH236943   4.439   1.065   7.060 -0.0416  0.4591 -0.3103
 5127TIP3    H136944   4.492   1.137   7.027  0.2881  0.3524 -0.0081
 5127TIP3    H236945   4.360   1.107   7.096  0.6758  0.7782  0.9473
 5128TIP3   OH236946   0.626   3.903   1.166  0.0703  0.3183 -0.0160
 5128TIP3    H136947   0.605   3.846   1.092 -0.0919 -0.2555  0.4616
 5128TIP3    H236948   0.546   3.953   1.181  0.3794  1.0462 -0.7603
 5129TIP3   OH236949   1.760   5.830   7.157  0.1831 -0.4474 -0.7003
 5129TIP3    H136950   1.676   5.786   7.149  0.1981 -0.8074  0.8586
 5129TIP3    H236951   1.759   5.896   7.087 -1.2081 -0.7224 -0.9683
 5130TIP3   OH236952   3.464   4.780   8.084  0.9856  0.0506  0.5995
 5130TIP3    H136953   3.459   4.857   8.140  1.2316  1.6938 -1.4886
 5130TIP3    H236954   3.393   4.792   8.021  2.4780 -0.1840 -1.2087
 5131TIP3   OH236955   2.487   2.685   7.371  0.1005 -0.0246 -0.0218
 5131TIP3    H136956   2.423   2.679   7.442 -1.5859 -1.3048 -1.5637
 5131TIP3    H236957   2.473   2.772   7.333  0.8265  0.5596  1.0054
 5132TIP3   OH236958   3.290   6.677   1.870  0.5039  0.0091 -0.6371
 5132TIP3    H136959   3.302   6.604   1.810  1.4208 -0.0082 -0.4363
 5132TIP3    H236960   3.362   6.737   1.849  0.0691  0.6078 -0.4389
 5133TIP3   OH236961   6.769   5.687   2.198 -0.5664  0.1652  0.2408
 5133TIP3    H136962   6.775   5.718   2.108  2.0988 -1.4581 -0.2424
 5133TIP3    H236963   6.711   5.611   2.193  0.0598 -0.2844 -0.2187
 5134TIP3   OH236964   3.797   2.006   8.507  0.3100 -0.4831  0.0972
 5134TIP3    H136965   3.767   2.097   8.513  0.1051 -0.4473 -1.1486
 5134TIP3    H236966   3.734   1.964   8.449  1.4784 -0.9243 -0.8925
 5135TIP3   OH236967   6.250   2.247   1.678  0.2327 -0.0725  0.1234
 5135TIP3    H136968   6.327   2.233   1.732  0.2256 -1.3950 -0.1793
 5135TIP3    H236969   6.176   2.246   1.739  0.2770 -0.9707  0.1749
 5136TIP3   OH236970   6.082   3.989   7.293 -0.0981 -0.1744  0.3453
 5136TIP3    H136971   5.991   3.993   7.262  0.1643 -2.6555 -1.0095
 5136TIP3    H236972   6.081   3.921   7.360  0.8116 -0.5755 -0.0303
 5137TIP3   OH236973   0.142   4.497   7.660 -0.0369 -0.3406  0.6117
 5137TIP3    H136974   0.141   4.582   7.704  1.0944 -0.1457  0.2903
 5137TIP3    H236975   0.231   4.465   7.672 -0.4042 -1.4149  0.5860
 5138TIP3   OH236976   3.345   2.131   8.364 -0.0849  0.1219 -0.0641
 5138TIP3    H136977   3.386   2.186   8.298  0.4519 -0.0101  0.1485
 5138TIP3    H236978   3.390   2.154   8.446  0.8535 -1.3190 -0.1361
 5139TIP3   OH236979   6.521   5.640   7.236  0.1159  0.2375  0.4241
 5139TIP3    H136980   6.515   5.735   7.233 -1.3584  0.1599 -0.9514
 5139TIP3    H236981   6.482   5.611   7.153 -1.0510 -1.5992  1.5218
 5140TIP3   OH236982   6.163   1.359   7.450  0.5244 -0.0589 -0.0990
 5140TIP3    H136983   6.171   1.404   7.365  1.5335 -1.2146 -0.6494
 5140TIP3    H236984   6.125   1.274   7.428 -0.0080 -0.0459  0.7364
 5141TIP3   OH236985   2.578   3.956   6.764  0.7825 -0.3748  0.3758
 5141TIP3    H136986   2.525   3.950   6.684  0.9095  0.4320  0.2166
 5141TIP3    H236987   2.604   3.866   6.783  1.4398 -0.4924 -0.9608
 5142TIP3   OH236988   4.319   2.877   8.083  0.1807 -0.3335 -0.2540
 5142TIP3    H136989   4.386   2.932   8.125 -0.0245  1.3476 -1.9844
 5142TIP3    H236990   4.369   2.811   8.035  0.7268  1.4925 -2.3189
 5143TIP3   OH236991   0.694   0.371   2.497 -0.0308 -0.1692  0.5337
 5143TIP3    H136992   0.616   0.420   2.470 -0.5395 -0.4510  1.4491
 5143TIP3    H236993   0.711   0.401   2.586  0.7189 -0.3601  0.4580
 5144TIP3   OH236994   6.220   6.189   7.409 -0.3663  0.1865  0.3739
 5144TIP3    H136995   6.145   6.166   7.354 -0.7154  0.0100  0.9131
 5144TIP3    H236996   6.296   6.182   7.351 -0.5706 -1.3287  0.2467
 5145TIP3   OH236997   3.204   4.362   6.454  0.7027  0.4786  1.1377
 5145TIP3    H136998   3.249   4.370   6.370  0.5276  2.2331  1.1828
 5145TIP3    H236999   3.216   4.447   6.496  1.4931 -0.5965  3.2637
 5146TIP3   OH237000   2.576   2.585   1.952 -0.4957 -0.1854  0.2766
 5146TIP3    H137001   2.591   2.538   2.034 -0.8053 -0.6243  0.0849
 5146TIP3    H237002   2.626   2.666   1.961  0.8236 -0.9692  0.2319
 5147TIP3   OH237003   5.252   2.410   7.912 -0.0392  0.2029  0.0553
 5147TIP3    H137004   5.339   2.417   7.872 -0.1306 -0.5331 -0.3005
 5147TIP3    H237005   5.217   2.499   7.908  0.8461  0.5850  0.5626
 5148TIP3   OH237006   4.510   4.635   7.481 -0.0871 -0.4469 -0.4027
 5148TIP3    H137007   4.574   4.594   7.424  2.5095  0.3543  1.7000
 5148TIP3    H237008   4.505   4.726   7.450 -1.2751 -0.8068 -1.3565
 5149TIP3   OH237009   5.938   4.981   1.091  0.1914 -0.2747 -0.1821
 5149TIP3    H137010   5.899   4.910   1.141 -1.7767  1.6829  1.2759
 5149TIP3    H237011   5.950   5.051   1.155  1.1378  1.0576 -1.7387
 5150TIP3   OH237012   1.486   0.499   8.531  0.6872  0.1043  0.4775
 5150TIP3    H137013   1.507   0.410   8.503 -0.3124  0.6560 -2.4103
 5150TIP3    H237014   1.559   0.524   8.587  3.9611 -0.6716 -2.9826
 5151TIP3   OH237015   6.816   6.506   7.573  0.0993  0.0731 -0.2947
 5151TIP3    H137016   6.810   6.558   7.493  1.8978 -0.1363 -0.5983
 5151TIP3    H237017   6.814   6.416   7.544 -0.0977 -0.0167 -0.0148
 5152TIP3   OH237018   3.318   4.258   8.751 -0.0654 -0.2089  0.5032
 5152TIP3    H137019   3.340   4.179   8.702 -0.2491 -0.4927  0.8733
 5152TIP3    H237020   3.371   4.253   8.831  1.9666  1.3689 -0.6324
 5153TIP3   OH237021   0.140   6.029   7.268 -0.1185  0.2904 -0.6785
 5153TIP3    H137022   0.165   5.946   7.309 -0.0927  0.6017 -0.0525
 5153TIP3    H237023   0.056   6.011   7.226 -0.4820  0.1362  0.0878
 5154TIP3   OH237024   2.120   3.607   0.324  0.4517  0.2068 -0.0698
 5154TIP3    H137025   2.201   3.592   0.276  0.0046 -1.7268 -0.3140
 5154TIP3    H237026   2.103   3.701   0.314  0.9686  0.0957 -2.7687
 5155TIP3   OH237027   1.202   3.944   0.165 -0.4115 -0.3150 -0.0012
 5155TIP3    H137028   1.137   3.889   0.120  2.1595 -1.5936 -2.4459
 5155TIP3    H237029   1.279   3.888   0.172  1.1951  1.8673  0.6837
 5156TIP3   OH237030   1.885   6.547   1.278 -0.0506  0.2475  0.5818
 5156TIP3    H137031   1.847   6.463   1.251 -1.9896  1.4346 -0.5887
 5156TIP3    H237032   1.824   6.581   1.343  0.5825  0.8816  0.8569
 5157TIP3   OH237033   1.484   5.874   1.726 -0.3760 -0.0784  0.5856
 5157TIP3    H137034   1.416   5.807   1.730  0.5967 -1.1467 -0.0770
 5157TIP3    H237035   1.482   5.916   1.812 -0.6950 -1.2869  1.1870
 5158TIP3   OH237036   5.967   3.365   7.372 -0.7686  0.2620  0.2293
 5158TIP3    H137037   5.946   3.456   7.392  0.6782  1.4323 -2.8788
 5158TIP3    H237038   5.882   3.323   7.357 -1.4006  1.4234  0.4843
 5159TIP3   OH237039   5.130   6.251   6.389 -0.4506 -0.1335  0.8439
 5159TIP3    H137040   5.048   6.203   6.384 -0.6725  0.3447 -0.6986
 5159TIP3    H237041   5.194   6.194   6.347  0.3497 -1.1016  3.2499
 5160TIP3   OH237042   1.543   6.496   8.764 -0.4942 -0.6347 -0.5881
 5160TIP3    H137043   1.505   6.471   8.848 -0.8775 -0.5764 -0.7426
 5160TIP3    H237044   1.625   6.446   8.759  0.2287  0.3863  0.4349
 5161TIP3   OH237045   3.725   5.771   7.622 -0.5255  0.3619  0.5984
 5161TIP3    H137046   3.742   5.752   7.530  2.0973 -1.1147  1.2581
 5161TIP3    H237047   3.641   5.817   7.623 -0.6769  0.3408 -2.4827
 5162TIP3   OH237048   0.504   3.365   0.729  0.5182  0.6401 -0.1641
 5162TIP3    H137049   0.461   3.446   0.754  1.3118  0.8164  0.6553
 5162TIP3    H237050   0.509   3.369   0.633  0.8680  1.7198 -0.1071
 5163TIP3   OH237051   6.450   4.845   1.204 -0.0955 -0.1348  0.0152
 5163TIP3    H137052   6.466   4.837   1.298 -0.0016  0.1654  0.0265
 5163TIP3    H237053   6.401   4.766   1.181  1.0464 -0.8814  0.0590
 5164TIP3   OH237054   2.834   3.779   7.830  0.0599  0.6599 -0.0819
 5164TIP3    H137055   2.827   3.718   7.757  2.0157  1.1731 -0.7417
 5164TIP3    H237056   2.773   3.850   7.808 -0.4355  0.1156 -0.4890
 5165TIP3   OH237057   2.111   0.116   0.153  0.1173  0.4511  0.2332
 5165TIP3    H137058   2.128   0.070   0.235 -0.4738  0.2013  0.2258
 5165TIP3    H237059   2.038   0.068   0.114  0.5463  0.4185 -0.5540
 5166TIP3   OH237060   0.797   0.914   0.788 -0.0988  0.0040  0.0414
 5166TIP3    H137061   0.768   0.970   0.860  0.4796 -1.7174  1.7233
 5166TIP3    H237062   0.792   0.825   0.825  2.9280 -0.7236 -1.0716
 5167TIP3   OH237063   5.203   5.585   1.404 -0.1531  0.5428  0.4321
 5167TIP3    H137064   5.136   5.574   1.472 -1.5239 -1.4397 -1.1281
 5167TIP3    H237065   5.159   5.561   1.322  2.3823 -0.6142 -0.7170
 5168TIP3   OH237066   0.968   0.937   8.126 -1.0892  0.3714 -0.0394
 5168TIP3    H137067   0.993   0.981   8.207 -1.3804 -0.9820  0.8193
 5168TIP3    H237068   0.879   0.905   8.142 -0.4210 -1.6887 -0.0775
 5169TIP3   OH237069   1.862   5.233   1.218  0.4093  0.3202 -0.0377
 5169TIP3    H137070   1.895   5.166   1.158  2.0959  0.2113  0.9270
 5169TIP3    H237071   1.906   5.314   1.190  0.4983  0.4520  0.4675
 5170TIP3   OH237072   3.172   5.283   1.721  0.0046  0.5934  0.1297
 5170TIP3    H137073   3.097   5.315   1.771  0.9583  1.5192  1.0271
 5170TIP3    H237074   3.144   5.198   1.687 -1.0783  0.4446  1.3166
 5171TIP3   OH237075   1.207   0.117   1.132 -0.3727 -0.2564 -0.1789
 5171TIP3    H137076   1.117   0.147   1.118 -0.4266 -0.4268 -0.2048
 5171TIP3    H237077   1.261   0.181   1.088 -0.4096  0.5705  0.9346
 5172TIP3   OH237078   3.492   5.142   7.873  0.1425  0.4664  0.5611
 5172TIP3    H137079   3.577   5.143   7.829  0.7045 -0.2518  1.6132
 5172TIP3    H237080   3.503   5.200   7.948 -0.3138  0.3927  0.6839
 5173TIP3   OH237081   0.390   3.392   1.201 -0.4674 -0.0937 -0.1292
 5173TIP3    H137082   0.371   3.334   1.127 -2.8252 -0.8446  0.9905
 5173TIP3    H237083   0.441   3.338   1.262 -0.3420 -0.1347 -0.2696
 5174TIP3   OH237084   6.392   1.341   1.296  0.5052 -0.1374  0.5208
 5174TIP3    H137085   6.316   1.364   1.243  0.6433 -1.4080 -0.2619
 5174TIP3    H237086   6.356   1.307   1.377  0.1827 -1.4720 -0.1493
 5175TIP3   OH237087   2.930   5.868   0.797  0.3849 -0.1638  0.2298
 5175TIP3    H137088   2.958   5.881   0.706 -1.3241 -0.5177 -0.3863
 5175TIP3    H237089   2.835   5.857   0.791  0.0535  1.1955  2.2244
 5176TIP3   OH237090   4.860   5.313   1.669  0.6152 -0.1001 -0.0046
 5176TIP3    H137091   4.886   5.236   1.617 -1.8508 -0.3867 -0.9314
 5176TIP3    H237092   4.879   5.387   1.612 -0.1669 -0.2762 -0.5058
 5177TIP3   OH237093   5.018   2.968   0.620 -1.0202  0.2876  0.2032
 5177TIP3    H137094   4.984   3.048   0.661 -0.3375  0.2148  0.9290
 5177TIP3    H237095   4.973   2.897   0.666 -2.1421  0.2500 -0.9050
 5178TIP3   OH237096   4.411   0.461   8.316 -0.4454 -0.7652  0.2934
 5178TIP3    H137097   4.473   0.408   8.267  0.3492  0.2790  0.1373
 5178TIP3    H237098   4.440   0.454   8.407 -0.8721 -1.2939  0.3950
 5179TIP3   OH237099   6.162   6.678   0.572 -0.0822  0.5089 -0.1793
 5179TIP3    H137100   6.086   6.737   0.566 -1.9952 -1.8111 -0.3385
 5179TIP3    H237101   6.184   6.658   0.481 -0.3183 -0.0395 -0.1202
 5180TIP3   OH237102   0.626   2.672   7.132  0.3380 -0.4643  0.1541
 5180TIP3    H137103   0.721   2.662   7.122  0.5959  0.4974  1.3476
 5180TIP3    H237104   0.610   2.765   7.115 -0.0622 -0.1490  2.0447
 5181TIP3   OH237105   3.814   4.715   8.490 -0.0183  0.1771 -0.3410
 5181TIP3    H137106   3.858   4.678   8.567  0.1296 -0.6717 -0.8245
 5181TIP3    H237107   3.739   4.763   8.526  0.9299  1.1269  0.4484
 5182TIP3   OH237108   4.800   2.070   6.394 -0.3530 -0.1455  0.7794
 5182TIP3    H137109   4.857   2.032   6.461  2.5236  0.1824 -1.3478
 5182TIP3    H237110   4.844   2.149   6.365 -1.9416  0.1946 -0.9380
 5183TIP3   OH237111   4.425   4.444   8.692  0.1310 -0.4754 -0.4655
 5183TIP3    H137112   4.389   4.467   8.606  2.1743  1.4356 -0.8899
 5183TIP3    H237113   4.448   4.528   8.731  0.4046 -1.3909  1.4493
 5184TIP3   OH237114   3.553   4.145   8.371 -0.0775  0.4206  0.0367
 5184TIP3    H137115   3.635   4.181   8.337  0.4190  1.0184  1.7878
 5184TIP3    H237116   3.505   4.221   8.404 -2.6898  0.5201 -3.4669
 5185TIP3   OH237117   1.825   4.415   0.950 -1.2871 -0.5814 -0.3396
 5185TIP3    H137118   1.848   4.440   1.040  0.3625 -1.0805 -0.5890
 5185TIP3    H237119   1.749   4.470   0.929 -0.1556  1.4101  0.4688
 5186TIP3   OH237120   5.723   2.789   7.076 -0.7183 -0.4515  0.0893
 5186TIP3    H137121   5.813   2.767   7.100 -0.3941  0.9206  0.2508
 5186TIP3    H237122   5.718   2.767   6.983  0.4200  1.1810 -0.4175
 5187TIP3   OH237123   3.639   0.294   0.046  0.1107 -0.0298  0.0503
 5187TIP3    H137124   3.710   0.325  -0.010 -2.5769  1.6151 -2.8245
 5187TIP3    H237125   3.641   0.199   0.037  0.0774  0.1535 -2.6773
 5188TIP3   OH237126   4.845   6.269   0.340 -0.0317 -0.2868 -0.5741
 5188TIP3    H137127   4.754   6.279   0.366 -0.1596 -1.1161 -0.6790
 5188TIP3    H237128   4.876   6.358   0.326 -0.4141  0.0973  0.8398
 5189TIP3   OH237129   5.601   2.098   1.545  0.1635  0.2338 -0.0159
 5189TIP3    H137130   5.575   2.044   1.470 -0.0378 -1.5295  1.2564
 5189TIP3    H237131   5.691   2.124   1.526  0.5638 -1.2759 -0.3000
 5190TIP3   OH237132   6.383   6.310   0.220  0.3394  0.3637  0.3701
 5190TIP3    H137133   6.318   6.266   0.165  0.8595 -0.8103  0.6602
 5190TIP3    H237134   6.463   6.311   0.167  0.6872 -0.2596  0.8615
 5191TIP3   OH237135   1.804   2.156   8.012 -0.5532 -0.1474  0.5165
 5191TIP3    H137136   1.721   2.202   8.023  0.1941  1.7240 -1.1252
 5191TIP3    H237137   1.779   2.064   8.002 -2.7204  0.5926 -2.2094
 5192TIP3   OH237138   6.794   2.905   7.087  0.0250 -0.0319  0.1227
 5192TIP3    H137139   6.822   2.944   7.004 -0.0386  0.2385  0.2280
 5192TIP3    H237140   6.706   2.871   7.070 -0.8330  1.8206  0.6341
 5193TIP3   OH237141   5.500   6.796   2.147 -0.2544  0.6136 -0.4945
 5193TIP3    H137142   5.585   6.814   2.187 -0.1860 -0.4808 -0.1091
 5193TIP3    H237143   5.436   6.832   2.209 -0.1895 -1.8706  1.1932
 5194TIP3   OH237144   0.845   3.288   0.491 -0.1428 -0.0401 -0.0036
 5194TIP3    H137145   0.832   3.310   0.584  0.6882  0.6364 -0.0282
 5194TIP3    H237146   0.778   3.222   0.472 -0.0983 -0.4446  1.1678
 5195TIP3   OH237147   1.094   4.431   8.450 -0.1868 -0.6448  0.1014
 5195TIP3    H137148   1.089   4.526   8.445 -0.0903 -0.6127  0.5074
 5195TIP3    H237149   1.082   4.400   8.360 -1.5615 -0.3140  0.1479
 5196TIP3   OH237150   6.136   6.119   7.672 -0.0048  0.1654  0.5302
 5196TIP3    H137151   6.148   6.202   7.718 -2.4691  0.1894  1.2520
 5196TIP3    H237152   6.139   6.143   7.579 -0.3553  0.9998  0.7248
 5197TIP3   OH237153   4.443   3.350   0.921 -0.2065 -0.0933 -0.2198
 5197TIP3    H137154   4.361   3.381   0.958  0.6989  2.0899  0.1028
 5197TIP3    H237155   4.499   3.335   0.997 -0.1517 -1.1543 -0.4560
 5198TIP3   OH237156   3.076   1.207   6.698  0.3897  0.0310 -0.0706
 5198TIP3    H137157   3.027   1.161   6.766 -0.7243  1.8026  0.4112
 5198TIP3    H237158   3.129   1.271   6.746  1.2445 -0.1377 -0.7615
 5199TIP3   OH237159   0.538   4.547   7.621  0.4101 -0.4775  0.3020
 5199TIP3    H137160   0.523   4.626   7.673 -1.3581 -0.6885  0.1741
 5199TIP3    H237161   0.482   4.481   7.661  0.0129 -0.9939 -1.0725
 5200TIP3   OH237162   4.286   4.424   6.953 -0.5422 -0.8762 -0.0270
 5200TIP3    H137163   4.362   4.430   6.895 -0.9776  1.8147 -0.4568
 5200TIP3    H237164   4.321   4.437   7.041 -0.4062 -0.3504 -0.1552
 5201TIP3   OH237165   3.941   5.309   8.170  0.4529 -0.1338  0.3675
 5201TIP3    H137166   4.027   5.273   8.192  0.4191 -0.3399  0.1615
 5201TIP3    H237167   3.942   5.317   8.074  0.1019 -0.4837  0.3339
 5202TIP3   OH237168   1.908   3.960   8.556 -0.1147 -0.1876 -0.0907
 5202TIP3    H137169   1.914   4.031   8.492  0.3641  1.8108  2.0208
 5202TIP3    H237170   1.829   3.980   8.607  0.2856 -0.9158  0.8502
 5203TIP3   OH237171   3.565   5.502   7.802  0.3631 -0.4651  0.0982
 5203TIP3    H137172   3.517   5.556   7.739 -0.5193 -1.4733 -0.1082
 5203TIP3    H237173   3.543   5.540   7.887 -0.0583 -0.3452 -0.0599
 5204TIP3   OH237174   6.081   5.792   8.465  0.0082  0.0462 -0.0515
 5204TIP3    H137175   6.026   5.800   8.543 -0.3891 -1.0001 -0.2063
 5204TIP3    H237176   6.066   5.874   8.416 -1.3743 -0.1879 -0.0580
 5205TIP3   OH237177   5.320   3.904   7.144 -0.2084 -0.4635  0.1340
 5205TIP3    H137178   5.285   3.854   7.070  1.0394 -1.4250  0.1553
 5205TIP3    H237179   5.406   3.934   7.114  0.2874 -0.8114  1.1480
 5206TIP3   OH237180   1.663   5.338   7.869  0.7062 -0.3708 -0.2796
 5206TIP3    H137181   1.742   5.286   7.853  2.0469  1.2243  0.8993
 5206TIP3    H237182   1.620   5.342   7.783  0.9488 -2.7151 -0.5772
 5207TIP3   OH237183   0.747   5.270   1.570  0.3984  0.1665 -0.1857
 5207TIP3    H137184   0.751   5.175   1.584 -1.2887  0.2693  1.4839
 5207TIP3    H237185   0.819   5.305   1.621 -0.3113 -0.1098  1.0533
 5208TIP3   OH237186   0.332   5.563   6.598  0.6112  0.7664 -0.4363
 5208TIP3    H137187   0.305   5.551   6.507  1.5114  0.5012 -0.6884
 5208TIP3    H237188   0.252   5.556   6.648  0.5348 -3.6452 -0.8039
 5209TIP3   OH237189   6.754   3.520   6.135  1.2575 -0.2264 -0.3726
 5209TIP3    H137190   6.750   3.543   6.228  2.0558  0.1624 -0.4256
 5209TIP3    H237191   6.766   3.425   6.134  2.7699 -0.0632 -0.0315
 5210TIP3   OH237192   4.282   2.310   1.365  0.0455  0.6538 -0.1251
 5210TIP3    H137193   4.364   2.325   1.412 -0.1719  2.4917 -0.2237
 5210TIP3    H237194   4.215   2.351   1.421 -0.8587 -0.9759  0.0461
 5211TIP3   OH237195   1.104   5.540   7.023  0.3716  0.1601 -0.3364
 5211TIP3    H137196   1.126   5.632   7.039 -1.2729  0.4709  0.3446
 5211TIP3    H237197   1.056   5.541   6.941  0.0474 -0.0386 -0.1507
 5212TIP3   OH237198   4.714   5.050   7.980  0.7469 -0.1630 -0.3213
 5212TIP3    H137199   4.724   5.063   8.074 -1.1459 -1.7481  0.1514
 5212TIP3    H237200   4.694   5.137   7.945 -0.1163  0.1883  0.9854
 5213TIP3   OH237201   0.516   3.344   8.695 -0.5535  0.4845 -0.3904
 5213TIP3    H137202   0.426   3.365   8.721 -0.1166  1.0056  0.7844
 5213TIP3    H237203   0.567   3.419   8.725  0.7004 -1.0986  1.7415
 5214TIP3   OH237204   3.268   5.312   7.747  0.2037 -0.3597 -0.6124
 5214TIP3    H137205   3.354   5.280   7.774 -0.2919 -3.6297 -2.4212
 5214TIP3    H237206   3.206   5.247   7.780 -1.6805  1.8710  0.5929
 5215TIP3   OH237207   0.181   0.238   0.250 -0.0231  0.1765 -0.0911
 5215TIP3    H137208   0.276   0.248   0.243 -0.1472  0.9625 -0.7350
 5215TIP3    H237209   0.162   0.256   0.342  0.2693  1.6755 -0.3013
 5216TIP3   OH237210   2.816   3.097   1.005 -0.0689  0.1678  0.6331
 5216TIP3    H137211   2.734   3.141   0.985  0.7473  1.1007 -0.8903
 5216TIP3    H237212   2.814   3.084   1.100 -2.3064 -0.5917  0.5454
 5217TIP3   OH237213   4.829   6.552   0.326  0.1070 -0.2122  0.2492
 5217TIP3    H137214   4.824   6.619   0.257  1.3171  0.2520  0.5908
 5217TIP3    H237215   4.773   6.585   0.396 -0.1291 -0.0744 -0.0036
 5218TIP3   OH237216   0.720   2.419   0.691  0.7843 -0.6181  0.1414
 5218TIP3    H137217   0.716   2.398   0.784 -0.8734  3.5216  1.2579
 5218TIP3    H237218   0.812   2.439   0.674  0.8809 -0.0163  1.3103
 5219TIP3   OH237219   0.720   6.699   1.299 -0.6329  0.0526  0.1723
 5219TIP3    H137220   0.801   6.668   1.259 -0.0939 -1.2193  2.0900
 5219TIP3    H237221   0.669   6.735   1.227  0.9057 -0.7011 -1.3564
 5220TIP3   OH237222   0.218   0.613   2.153  0.2830 -0.5806 -0.5093
 5220TIP3    H137223   0.133   0.641   2.117  0.8909 -0.5881 -2.0181
 5220TIP3    H237224   0.216   0.642   2.244 -1.1445 -0.1551 -0.6493
 5221TIP3   OH237225   2.574   3.727   7.662 -0.3499 -0.0065 -0.9491
 5221TIP3    H137226   2.544   3.799   7.606 -0.1980  0.4257 -0.4789
 5221TIP3    H237227   2.561   3.759   7.751 -1.6145 -1.1198 -0.7231
 5222TIP3   OH237228   2.248   3.028   6.588  0.0212 -0.4748 -0.0478
 5222TIP3    H137229   2.200   2.946   6.582 -0.2171 -0.2709 -1.1488
 5222TIP3    H237230   2.181   3.096   6.589  0.2310 -0.2717  0.1992
 5223TIP3   OH237231   5.685   4.769   8.570  0.3147 -0.1265  0.0130
 5223TIP3    H137232   5.751   4.776   8.640 -0.8908  1.0876  1.0946
 5223TIP3    H237233   5.608   4.734   8.613 -0.1546 -0.2962 -0.9428
 5224TIP3   OH237234   2.054   0.917   1.680  0.4562 -0.6749 -0.8212
 5224TIP3    H137235   2.121   0.974   1.718 -0.7812  2.3301 -2.8181
 5224TIP3    H237236   2.091   0.829   1.688  2.8224  0.3898  1.7538
 5225TIP3   OH237237   6.566   1.962   0.298  0.0743 -0.1450  0.1236
 5225TIP3    H137238   6.652   1.980   0.262  0.4531  0.1366  1.1209
 5225TIP3    H237239   6.523   2.047   0.305 -0.4335 -0.3204 -0.6991
 5226TIP3   OH237240   5.445   1.788   6.389 -0.0711  0.1842  0.4730
 5226TIP3    H137241   5.351   1.770   6.393 -0.0395  0.1101  0.9170
 5226TIP3    H237242   5.462   1.805   6.296 -0.9718  2.6515  0.6796
 5227TIP3   OH237243   3.571   2.000   6.056 -0.6969  0.1812 -0.0709
 5227TIP3    H137244   3.606   2.078   6.100 -1.2250 -0.2466  1.1584
 5227TIP3    H237245   3.648   1.946   6.040 -0.5199  0.1808  0.7050
 5228TIP3   OH237246   0.443   2.521   7.020 -0.3582 -0.2574  0.6274
 5228TIP3    H137247   0.520   2.563   7.058  0.2596 -0.0208 -0.8013
 5228TIP3    H237248   0.442   2.551   6.929 -1.0039 -1.8010  0.0792
 5229TIP3   OH237249   2.003   4.257   6.721  0.5017  0.2134  0.3142
 5229TIP3    H137250   1.946   4.330   6.747  0.1033 -0.0298  0.1256
 5229TIP3    H237251   2.088   4.280   6.757  0.4439  0.9093  0.0192
 5230TIP3   OH237252   1.183   2.087   0.017 -0.1537  0.4312 -0.1168
 5230TIP3    H137253   1.179   2.175   0.056  0.0277 -0.4935  2.1786
 5230TIP3    H237254   1.139   2.031   0.081  1.0719 -1.3704 -0.7732
 5231TIP3   OH237255   4.835   4.706   8.550  0.3317 -0.5303 -0.1407
 5231TIP3    H137256   4.746   4.672   8.554 -0.7966  2.0988 -0.4853
 5231TIP3    H237257   4.828   4.794   8.587  2.3317  0.5408 -2.1030
 5232TIP3   OH237258   1.723   3.764   0.045  0.3541  0.3814  0.4207
 5232TIP3    H137259   1.658   3.709  -0.000  1.0440  0.2734 -0.4514
 5232TIP3    H237260   1.780   3.701   0.090  1.6273  0.3064 -1.2253
 5233TIP3   OH237261   5.472   2.842   7.740  0.0349 -0.0256  0.1161
 5233TIP3    H137262   5.514   2.907   7.683  0.4127 -0.2033  0.1875
 5233TIP3    H237263   5.428   2.782   7.679  0.0531  0.0461  0.0324
 5234TIP3   OH237264   1.849   3.024   1.545 -0.0886  0.0830 -0.3977
 5234TIP3    H137265   1.797   3.097   1.579 -0.1959  0.0791 -0.5485
 5234TIP3    H237266   1.850   3.038   1.450 -0.9450 -0.6371 -0.5363
 5235TIP3   OH237267   4.203   6.755   0.778 -0.8984 -0.2249 -0.5167
 5235TIP3    H137268   4.277   6.696   0.785 -2.1689 -2.0115 -1.4929
 5235TIP3    H237269   4.232   6.835   0.822  0.8458 -1.5712  0.9195
 5236TIP3   OH237270   0.097   4.490   1.128 -0.1614  0.3873  0.2805
 5236TIP3    H137271   0.129   4.505   1.216  1.8124  2.1819 -0.6726
 5236TIP3    H237272   0.098   4.576   1.086  0.0639 -0.5842 -1.8519
 5237TIP3   OH237273   3.061   5.902   0.560  0.7409  0.0634  0.5588
 5237TIP3    H137274   3.079   5.831   0.498 -0.2032  0.3094 -0.0280
 5237TIP3    H237275   3.146   5.925   0.596  1.2248 -0.5393 -0.1608
 5238TIP3   OH237276   0.728   0.249   0.701  0.4518 -0.3946 -0.4003
 5238TIP3    H137277   0.792   0.307   0.659  0.9371 -0.3299  0.4150
 5238TIP3    H237278   0.668   0.308   0.747 -0.3801 -0.4392 -1.3946
 5239TIP3   OH237279   3.564   1.797   0.853  0.0512 -0.1129  0.4891
 5239TIP3    H137280   3.519   1.812   0.769  0.9801 -1.9889 -0.3967
 5239TIP3    H237281   3.496   1.808   0.919 -1.2526 -0.9154 -0.6768
 5240TIP3   OH237282   3.909   3.039   1.434  0.3087 -0.6487  0.2929
 5240TIP3    H137283   3.835   2.987   1.403 -0.4828 -0.8932  2.4123
 5240TIP3    H237284   3.884   3.066   1.522  2.3339  0.1358  0.6867
 5241TIP3   OH237285   6.015   3.603   7.669 -0.6844 -0.1678  0.1774
 5241TIP3    H137286   5.971   3.518   7.678  2.0445 -1.6197  1.0394
 5241TIP3    H237287   6.068   3.611   7.749  0.0538  1.7778 -0.4466
 5242TIP3   OH237288   0.036   5.157   7.502 -0.4477 -0.1569  0.2881
 5242TIP3    H137289   0.101   5.160   7.432 -0.4455 -0.8595  0.2478
 5242TIP3    H237290   0.077   5.102   7.569 -0.5015  0.4075  0.7883
 5243TIP3   OH237291   4.207   4.795   7.641  0.6493  0.5205 -0.2150
 5243TIP3    H137292   4.252   4.715   7.670  0.6364  0.1303 -1.2438
 5243TIP3    H237293   4.204   4.850   7.719  0.7341 -0.4478  0.4863
 5244TIP3   OH237294   6.380   1.757   7.992 -0.7377 -0.0309  0.4185
 5244TIP3    H137295   6.453   1.798   7.945 -1.8625  1.2574 -0.2759
 5244TIP3    H237296   6.379   1.801   8.077  1.0198 -2.0533  1.5887
 5245TIP3   OH237297   2.382   1.973   8.680  0.0812  0.3605 -0.2112
 5245TIP3    H137298   2.437   1.997   8.754  0.2573  0.3646 -0.3437
 5245TIP3    H237299   2.443   1.953   8.609 -0.0873  0.3961 -0.3693
 5246TIP3   OH237300   4.688   2.229   6.678 -0.4765 -0.4412  0.3484
 5246TIP3    H137301   4.710   2.136   6.673 -1.3955 -0.6122 -1.6192
 5246TIP3    H237302   4.594   2.232   6.662 -0.4416  0.8201  0.3118
 5247TIP3   OH237303   1.148   6.439   0.598  0.5644  0.3106 -0.0434
 5247TIP3    H137304   1.123   6.349   0.620  2.2793  0.1698  1.6351
 5247TIP3    H237305   1.240   6.432   0.573 -0.4128  0.9720 -4.7510
 5248TIP3   OH237306   1.861   2.876   7.672 -0.1110  0.0173 -0.1609
 5248TIP3    H137307   1.850   2.818   7.596 -0.4088  0.1002 -0.1844
 5248TIP3    H237308   1.881   2.817   7.744 -0.4206 -0.1200 -0.1837
 5249TIP3   OH237309   6.458   2.874   8.410 -0.4067 -0.0329 -0.1800
 5249TIP3    H137310   6.529   2.828   8.364 -0.8915 -1.1624  0.1625
 5249TIP3    H237311   6.494   2.892   8.497 -1.1355 -2.3505  0.6842
 5250TIP3   OH237312   0.074   3.367   8.336  0.8459  0.1731  0.3477
 5250TIP3    H137313   0.076   3.394   8.244  1.2878 -0.9859 -0.0072
 5250TIP3    H237314  -0.016   3.342   8.352  0.6072  1.0685  0.4519
 5251TIP3   OH237315   5.774   5.178   6.739 -0.8161 -0.6279 -0.1091
 5251TIP3    H137316   5.809   5.266   6.746 -0.6384 -0.7330  0.3458
 5251TIP3    H237317   5.777   5.158   6.646 -1.3497  0.0454 -0.2823
 5252TIP3   OH237318   1.149   2.278   1.035  0.2794  0.5183 -0.5650
 5252TIP3    H137319   1.074   2.321   1.076  1.2939  0.6733  1.1973
 5252TIP3    H237320   1.179   2.215   1.100  2.8477  1.7911 -0.3991
 5253TIP3   OH237321   3.521   0.755   0.305  0.1495  0.4227  0.2749
 5253TIP3    H137322   3.487   0.731   0.392 -1.1524 -0.7648 -0.5073
 5253TIP3    H237323   3.530   0.671   0.259  0.2988  1.0669 -0.9140
 5254TIP3   OH237324   6.132   6.786   7.679 -0.1980  0.1474  0.1405
 5254TIP3    H137325   6.102   6.707   7.636 -3.1611 -0.0510  2.2756
 5254TIP3    H237326   6.198   6.756   7.742  0.3706 -0.2670 -0.6419
 5255TIP3   OH237327   2.696   0.463   8.293 -0.0896 -0.4948 -0.0286
 5255TIP3    H137328   2.648   0.543   8.314 -2.1274 -2.2008  2.5325
 5255TIP3    H237329   2.666   0.439   8.205 -1.3493  0.2973  0.1664
 5256TIP3   OH237330   4.633   0.935   0.975 -0.3717 -0.2265 -0.6985
 5256TIP3    H137331   4.548   0.953   0.934  0.0840 -0.5031 -1.8029
 5256TIP3    H237332   4.616   0.859   1.032 -1.3798  1.1323  0.9266
 5257TIP3   OH237333   1.182   0.766   1.511 -0.2203 -0.4340 -0.4754
 5257TIP3    H137334   1.237   0.822   1.566  1.6483  1.0816 -3.6379
 5257TIP3    H237335   1.243   0.728   1.447 -2.4446 -0.8896 -2.4497
 5258TIP3   OH237336   5.367   6.108   6.419  0.3746  0.3835 -0.4109
 5258TIP3    H137337   5.419   6.058   6.356 -2.0210  0.1341 -2.3403
 5258TIP3    H237338   5.295   6.049   6.443  0.3810  1.0492  1.4175
 5259TIP3   OH237339   0.528   0.268   7.209 -0.0258 -0.7442 -0.0732
 5259TIP3    H137340   0.483   0.263   7.294  0.8287  0.8000  0.5091
 5259TIP3    H237341   0.612   0.225   7.225  0.4454  0.2124  0.1090
 5260TIP3   OH237342   4.033   0.615   8.199 -0.2877  0.1343  0.2753
 5260TIP3    H137343   4.065   0.704   8.186  0.9392 -0.4254 -0.7843
 5260TIP3    H237344   3.979   0.597   8.122 -0.1362 -0.1995  0.2461
 5261TIP3   OH237345   3.371   0.463   7.589 -0.0818  0.2161 -0.0152
 5261TIP3    H137346   3.289   0.511   7.576 -0.7459 -1.1157 -0.9396
 5261TIP3    H237347   3.351   0.374   7.560  1.7917 -0.0565 -0.5570
 5262TIP3   OH237348   5.007   4.665   7.266  0.4504 -0.6774 -0.7424
 5262TIP3    H137349   5.091   4.620   7.256  1.6569  0.6001  2.4314
 5262TIP3    H237350   5.031   4.757   7.281 -1.5242 -0.2635  0.1587
 5263TIP3   OH237351   5.365   1.127   0.810  0.0170 -0.5555 -0.2226
 5263TIP3    H137352   5.378   1.053   0.869 -0.0221 -0.9992 -0.7559
 5263TIP3    H237353   5.453   1.162   0.796  0.1270 -0.9338 -0.5088
 5264TIP3   OH237354   0.490   5.948   7.420  0.2703  0.7084 -0.0156
 5264TIP3    H137355   0.451   5.886   7.358  1.7751 -0.0001 -0.2901
 5264TIP3    H237356   0.441   5.934   7.501 -0.1772 -0.0111 -0.3976
 5265TIP3   OH237357   2.207   5.939   1.354  0.2431  0.0097  0.4419
 5265TIP3    H137358   2.206   5.845   1.371 -0.4173  0.2173  1.6531
 5265TIP3    H237359   2.135   5.954   1.293  0.1913 -0.2363  0.4438
 5266TIP3   OH237360   1.403   3.233   8.013 -0.1141  0.1250  0.1596
 5266TIP3    H137361   1.413   3.225   7.918 -1.4688  0.8471 -0.0731
 5266TIP3    H237362   1.333   3.171   8.035  0.2820 -0.1325  0.7129
 5267TIP3   OH237363   4.115   2.483   6.881 -0.2368 -0.0392  0.1010
 5267TIP3    H137364   4.181   2.548   6.857  1.1821 -1.3209  0.4079
 5267TIP3    H237365   4.075   2.458   6.797  0.8960 -0.5154 -0.3149
 5268TIP3   OH237366   0.310   4.923   7.052 -0.2651  0.1293  0.4715
 5268TIP3    H137367   0.270   4.954   6.971 -0.9270 -0.7561  0.4429
 5268TIP3    H237368   0.236   4.891   7.104  0.0823  1.1181  1.6395
 5269TIP3   OH237369   3.132   4.439   1.459  0.7020  0.2886 -0.7522
 5269TIP3    H137370   3.172   4.496   1.524  0.7610  0.6656 -1.1153
 5269TIP3    H237371   3.049   4.482   1.438  0.1021 -0.4724 -0.0216
 5270TIP3   OH237372   3.445   4.705   7.765 -0.2340 -0.1508  0.2392
 5270TIP3    H137373   3.373   4.765   7.746  0.0766  0.0355 -0.3683
 5270TIP3    H237374   3.523   4.759   7.763 -0.1370 -0.1960  1.7098
 5271TIP3   OH237375   4.573   3.428   8.054  0.1170 -0.3239  0.1554
 5271TIP3    H137376   4.667   3.414   8.045  0.2120 -0.3901  1.1425
 5271TIP3    H237377   4.558   3.516   8.020  0.7521  0.2240  1.2461
 5272TIP3   OH237378   6.475   2.245   7.999  0.2329 -0.0998  0.1239
 5272TIP3    H137379   6.432   2.318   8.044 -0.0122  1.0337 -1.8408
 5272TIP3    H237380   6.419   2.170   8.019 -1.2963  0.8603 -0.3176
 5273TIP3   OH237381   5.167   5.384   7.570  0.3406  0.3356  0.0895
 5273TIP3    H137382   5.221   5.336   7.507 -0.8926  0.2947 -0.9783
 5273TIP3    H237383   5.133   5.459   7.520  0.2525  0.9429  1.0331
 5274TIP3   OH237384   3.915   3.266   7.646  0.2806  0.3541  0.2027
 5274TIP3    H137385   3.887   3.237   7.732  0.9787 -0.8755  0.0338
 5274TIP3    H237386   3.878   3.202   7.585  0.4163  0.7847 -0.3445
 5275TIP3   OH237387   0.676   4.142   7.820  0.2812 -0.6489 -0.0052
 5275TIP3    H137388   0.746   4.119   7.881  2.4806  0.1984 -2.0514
 5275TIP3    H237389   0.721   4.185   7.747 -2.2966 -0.7914 -1.8098
 5276TIP3   OH237390   2.414   5.976   1.149 -0.0070  0.2373 -0.0633
 5276TIP3    H137391   2.444   5.885   1.146  0.4456  0.3740  0.1517
 5276TIP3    H237392   2.366   5.982   1.232  0.1508  0.2484  0.0285
 5277TIP3   OH237393   3.153   4.964   8.516 -1.1391  0.1896  0.0809
 5277TIP3    H137394   3.163   5.051   8.554  1.3962 -0.0824  0.2191
 5277TIP3    H237395   3.129   4.908   8.590 -4.1715  0.8909 -0.2347
 5278TIP3   OH237396   0.939   2.180   8.456  0.1101  0.3726 -0.8226
 5278TIP3    H137397   0.879   2.109   8.434  0.9489 -0.9523  0.8961
 5278TIP3    H237398   0.909   2.254   8.404 -1.7229 -0.8135 -1.5519
 5279TIP3   OH237399   2.631   6.637   7.943 -0.2082 -0.3575  0.0714
 5279TIP3    H137400   2.546   6.648   7.986 -2.2190 -0.3836 -3.5426
 5279TIP3    H237401   2.667   6.725   7.939  0.3232 -0.4155  2.1303
 5280TIP3   OH237402   1.148   4.636   7.582 -0.2108 -0.0358  0.9481
 5280TIP3    H137403   1.228   4.585   7.593  0.8167  0.6930 -2.0974
 5280TIP3    H237404   1.177   4.720   7.547 -2.3067 -0.0893 -1.1880
 5281TIP3   OH237405   2.890   0.264   8.082  0.5668 -0.7142  0.0389
 5281TIP3    H137406   2.874   0.355   8.057 -2.2939 -0.3458  2.6293
 5281TIP3    H237407   2.983   0.250   8.064  0.6122  1.8990 -2.6666
 5282TIP3   OH237408   1.852   1.271   2.282 -0.6154  0.9310  0.4551
 5282TIP3    H137409   1.836   1.355   2.239 -1.3327  1.0361  0.9006
 5282TIP3    H237410   1.768   1.251   2.324 -0.4330  0.0164  0.3903
 5283TIP3   OH237411   4.960   2.522   0.458 -0.3390  0.2753  0.4110
 5283TIP3    H137412   4.907   2.591   0.419  0.2507  0.2825 -0.4068
 5283TIP3    H237413   5.050   2.549   0.442 -0.0810 -1.1381 -0.7959
 5284TIP3   OH237414   3.475   5.068   8.525  0.4094  0.3302  0.1444
 5284TIP3    H137415   3.383   5.084   8.547 -0.2377  0.0738 -2.1613
 5284TIP3    H237416   3.521   5.147   8.556 -0.8928  1.3127 -0.3527
 5285TIP3   OH237417   4.972   5.888   0.498 -0.6250  0.1975 -0.2605
 5285TIP3    H137418   5.020   5.853   0.573 -1.7321 -0.9900 -0.0719
 5285TIP3    H237419   4.970   5.982   0.513  1.5826  0.3022 -0.2641
 5286TIP3   OH237420   2.611   2.200   0.630  0.1765 -0.1561 -0.2394
 5286TIP3    H137421   2.557   2.256   0.687 -1.7137  0.2441 -2.3122
 5286TIP3    H237422   2.627   2.122   0.683 -1.1518  0.3627  1.0250
 5287TIP3   OH237423   1.931   1.816   1.269 -0.7076  0.0955 -0.1473
 5287TIP3    H137424   1.858   1.759   1.294 -0.7082 -0.2302 -0.8678
 5287TIP3    H237425   1.913   1.840   1.178 -0.4730  0.8834  0.0106
 5288TIP3   OH237426   5.906   4.563   0.851 -0.2208  0.3272 -0.7861
 5288TIP3    H137427   5.970   4.628   0.880 -0.1656 -0.8892  2.2284
 5288TIP3    H237428   5.936   4.481   0.890 -2.6770 -0.6398 -0.7414
 5289TIP3   OH237429   5.135   3.365   7.685  0.3654 -0.0165  0.1358
 5289TIP3    H137430   5.085   3.374   7.604 -0.7182 -2.4767  0.4134
 5289TIP3    H237431   5.075   3.393   7.754  1.2714  2.0361  0.1774
 5290TIP3   OH237432   5.482   1.127   1.062 -0.0364  0.3159 -0.0937
 5290TIP3    H137433   5.443   1.204   1.020 -1.2313  0.3950  1.1140
 5290TIP3    H237434   5.524   1.162   1.141  0.9405 -0.0377 -0.4424
 5291TIP3   OH237435   5.343   4.807   6.345  0.2731 -0.1279 -0.2585
 5291TIP3    H137436   5.401   4.731   6.338  0.2566 -0.2840  1.0011
 5291TIP3    H237437   5.260   4.771   6.377  0.1925  0.3856  0.1277
 5292TIP3   OH237438   4.373   5.352   1.701 -0.1406  0.0959  0.1214
 5292TIP3    H137439   4.296   5.358   1.645 -1.2039  0.1527  1.5176
 5292TIP3    H237440   4.352   5.410   1.775  1.2342  0.0773  0.5456
 5293TIP3   OH237441   3.617   2.479   6.116  0.4648  0.0335 -0.2587
 5293TIP3    H137442   3.691   2.462   6.174  0.9318 -1.3788 -1.2215
 5293TIP3    H237443   3.635   2.426   6.038 -1.3390  0.0165 -0.6951
 5294TIP3   OH237444   2.441   4.492   7.726  0.4118 -0.1035  0.4248
 5294TIP3    H137445   2.527   4.466   7.691  0.0074 -0.9703  0.0662
 5294TIP3    H237446   2.423   4.429   7.796 -0.0316 -0.0631  0.3505
 5295TIP3   OH237447   0.636   1.067   0.986 -0.4654 -0.3924  0.5922
 5295TIP3    H137448   0.585   1.129   0.933  0.7148 -0.5214 -0.7668
 5295TIP3    H237449   0.593   1.068   1.072 -2.9475 -0.7297 -0.5346
 5296TIP3   OH237450   0.544   0.815   1.243  0.0656  0.3532 -0.6170
 5296TIP3    H137451   0.616   0.757   1.220 -2.0420 -2.0881 -1.4789
 5296TIP3    H237452   0.559   0.837   1.335  1.1421 -1.2208 -0.3851
 5297TIP3   OH237453   0.142   2.510   8.030  0.4700 -0.6614 -0.4161
 5297TIP3    H137454   0.096   2.522   7.947 -1.8861  0.5405  0.9467
 5297TIP3    H237455   0.074   2.484   8.091  1.8059  0.1534  1.5150
 5298TIP3   OH237456   6.355   3.715   7.937 -0.1245 -0.3783 -0.3817
 5298TIP3    H137457   6.322   3.626   7.926 -0.5134 -0.9325  3.7987
 5298TIP3    H237458   6.445   3.704   7.967 -0.0409  0.6486 -0.2306
 5299TIP3   OH237459   1.496   6.028   0.057  0.2060 -0.2903  0.6644
 5299TIP3    H137460   1.580   5.989   0.031  0.3438  0.1444  0.4518
 5299TIP3    H237461   1.471   6.083  -0.018  0.0266  0.0529  0.9745
 5300TIP3   OH237462   0.936   3.524   1.345  0.0182 -0.2547  0.3227
 5300TIP3    H137463   1.018   3.543   1.391  0.6877  2.3812 -1.6789
 5300TIP3    H237464   0.963   3.476   1.267 -0.5623 -0.8027  0.4503
 5301TIP3   OH237465   6.493   2.019   8.654  0.1196  0.7092 -0.1079
 5301TIP3    H137466   6.492   2.099   8.707 -1.3509  1.3137 -0.9862
 5301TIP3    H237467   6.508   1.949   8.717 -0.7025  1.4850  0.9964
 5302TIP3   OH237468   5.711   3.398   7.013  0.2474 -0.0249 -0.6749
 5302TIP3    H137469   5.712   3.487   6.978 -0.9698 -0.8502 -3.0533
 5302TIP3    H237470   5.705   3.342   6.935  0.4885 -2.1757  0.7648
 5303TIP3   OH237471   1.614   2.345   0.595  0.0363  0.6092  0.1814
 5303TIP3    H137472   1.646   2.256   0.578 -3.2044 -0.4073 -1.4818
 5303TIP3    H237473   1.692   2.399   0.593  2.0018 -2.0225 -0.0095
 5304TIP3   OH237474   6.586   6.794   0.648 -0.0632  0.7724 -0.5817
 5304TIP3    H137475   6.515   6.839   0.693 -0.1477  0.8986 -0.8356
 5304TIP3    H237476   6.579   6.703   0.676  0.6172  1.0617  0.5769
 5305TIP3   OH237477   3.475   1.451   8.502  0.2706 -0.1015  0.2410
 5305TIP3    H137478   3.539   1.448   8.574  2.0022  1.2623 -1.1749
 5305TIP3    H237479   3.447   1.542   8.498 -1.2816 -0.5434  0.3756
 5306TIP3   OH237480   0.861   0.239   8.601  0.2930  0.0613  0.5540
 5306TIP3    H137481   0.859   0.198   8.687 -1.3184 -0.2540  0.3974
 5306TIP3    H237482   0.782   0.293   8.598  1.3480  1.6372  0.0044
 5307TIP3   OH237483   0.900   5.828   8.811  0.1485  0.1818  0.3192
 5307TIP3    H137484   0.870   5.870   8.892 -0.3404  0.7115 -0.1240
 5307TIP3    H237485   0.951   5.895   8.766 -1.3172  0.6243 -0.7830
 5308TIP3   OH237486   2.040   4.056   1.782 -0.2526 -0.7841  0.3640
 5308TIP3    H137487   2.117   4.112   1.793 -2.6602  2.7940  0.7330
 5308TIP3    H237488   2.002   4.049   1.870 -1.8629  0.0119 -0.2209
 5309TIP3   OH237489   3.506   1.037   0.587  0.0297  0.5542 -0.3930
 5309TIP3    H137490   3.480   1.069   0.501  2.3962  2.4107 -0.5101
 5309TIP3    H237491   3.518   1.117   0.639  0.1627 -0.4716  1.1960
 5310TIP3   OH237492   0.399   5.838   1.263  0.4393 -0.4647 -0.6662
 5310TIP3    H137493   0.433   5.819   1.176 -2.2101 -2.2402 -1.4491
 5310TIP3    H237494   0.309   5.866   1.248  0.4320  0.8333  1.4326
 5311TIP3   OH237495   6.665   0.178   8.153  0.1095 -0.4492  0.5032
 5311TIP3    H137496   6.692   0.087   8.161 -1.9192 -1.1688 -0.3638
 5311TIP3    H237497   6.637   0.188   8.062 -0.4881  0.8243  0.7977
 5312TIP3   OH237498   6.663   1.597   1.642 -0.3662 -0.7150  0.1843
 5312TIP3    H137499   6.586   1.599   1.698 -1.2283  1.0695 -0.9515
 5312TIP3    H237500   6.647   1.666   1.578  2.3308 -0.0538  0.1074
 5313TIP3   OH237501   1.233   2.454   0.786  0.2362 -0.1803  0.6037
 5313TIP3    H137502   1.292   2.379   0.778  1.3638  0.5736  1.5794
 5313TIP3    H237503   1.195   2.446   0.874 -0.1743  0.0250  0.4521
 5314TIP3   OH237504   1.956   3.710   8.669  0.0129 -0.1046  0.0216
 5314TIP3    H137505   2.045   3.736   8.691 -0.2106  1.3419 -0.6423
 5314TIP3    H237506   1.917   3.788   8.630 -0.6413 -1.5269 -2.4166
 5315TIP3   OH237507   1.299   1.090   7.847 -0.3578 -0.0995 -0.0179
 5315TIP3    H137508   1.346   1.164   7.886 -1.6174 -0.5430  2.4808
 5315TIP3    H237509   1.240   1.131   7.783 -0.1761  0.9216  0.4432
 5316TIP3   OH237510   2.926   3.558   0.931 -0.3543 -0.0537  0.3830
 5316TIP3    H137511   2.973   3.476   0.916  2.0194  1.2148  0.4615
 5316TIP3    H237512   2.930   3.570   1.026  0.8542  0.9749  0.2252
 5317TIP3   OH237513   6.170   5.332   6.879 -0.4479 -0.1012  0.2375
 5317TIP3    H137514   6.165   5.409   6.823 -1.3881 -0.5800 -0.3817
 5317TIP3    H237515   6.216   5.266   6.826 -0.7962 -0.3612  0.2503
 5318TIP3   OH237516   5.618   3.418   0.344 -0.3269 -0.2991  0.0095
 5318TIP3    H137517   5.524   3.411   0.358 -0.3558 -0.0406 -0.0521
 5318TIP3    H237518   5.646   3.328   0.326 -0.5930 -0.3516 -0.1566
 5319TIP3   OH237519   3.093   3.165   1.754 -0.4574  0.1397  0.4046
 5319TIP3    H137520   3.136   3.174   1.839  0.1013  1.0886  0.0263
 5319TIP3    H237521   3.000   3.153   1.776 -0.2772  0.0503  1.1562
 5320TIP3   OH237522   1.672   3.314   0.639  0.4866 -0.0445 -0.6394
 5320TIP3    H137523   1.656   3.378   0.708 -0.0336  0.4928 -1.2364
 5320TIP3    H237524   1.625   3.236   0.668  1.0147 -0.1139  0.0320
 5321TIP3   OH237525   5.455   0.506   1.720  0.5294  0.7758 -0.0573
 5321TIP3    H137526   5.384   0.570   1.721  0.0846  0.2891  1.2386
 5321TIP3    H237527   5.417   0.427   1.759  0.7569 -0.6426 -2.4819
 5322TIP3   OH237528   0.526   1.475   8.546 -0.4293 -0.6838 -0.2358
 5322TIP3    H137529   0.528   1.560   8.589  2.0010 -0.4888 -0.5845
 5322TIP3    H237530   0.463   1.485   8.475 -0.7810  0.5501  0.2241
 5323TIP3   OH237531   2.956   1.075   0.977 -0.2885 -0.0490 -0.2922
 5323TIP3    H137532   2.873   1.121   0.964 -0.6796 -0.2630  1.2405
 5323TIP3    H237533   2.954   1.003   0.914 -1.4661 -0.2805 -0.0154
 5324TIP3   OH237534   4.445   5.808   1.125  0.1725 -0.1592 -0.0744
 5324TIP3    H137535   4.375   5.869   1.101 -1.8052 -2.1858  0.1823
 5324TIP3    H237536   4.431   5.793   1.219 -1.2262 -3.0579 -0.6524
 5325TIP3   OH237537   5.094   3.433   7.013  0.1996 -0.0580  0.1396
 5325TIP3    H137538   5.037   3.364   7.046  0.8201 -0.8546 -0.4232
 5325TIP3    H237539   5.085   3.429   6.918 -0.1686  0.9994  0.1148
 5326TIP3   OH237540   1.382   0.308   2.561  0.1985  0.2401  0.0084
 5326TIP3    H137541   1.376   0.239   2.628 -0.0099  0.4778  0.2362
 5326TIP3    H237542   1.320   0.281   2.494  0.0077  0.2816  0.1668
 5327TIP3   OH237543   0.983   3.477   1.073 -0.1613  0.2104  0.2307
 5327TIP3    H137544   0.896   3.437   1.079 -0.0155 -0.2206 -0.4617
 5327TIP3    H237545   1.033   3.418   1.018  0.9800 -0.2280  1.6707
 5328TIP3   OH237546   4.133   3.117   6.480  0.2841 -0.0695 -0.2121
 5328TIP3    H137547   4.095   3.108   6.568 -2.1852  2.0074 -0.9290
 5328TIP3    H237548   4.142   3.211   6.468  1.4685 -0.3623 -1.8521
 5329TIP3   OH237549   0.403   0.016   7.144 -0.0078  0.0991 -0.0394
 5329TIP3    H137550   0.390   0.110   7.131  1.0813  0.1800 -0.7538
 5329TIP3    H237551   0.470  -0.007   7.079 -1.3086 -1.4737 -0.8911
 5330TIP3   OH237552   5.518   5.372   6.836  0.5297  0.3718  0.2432
 5330TIP3    H137553   5.464   5.449   6.820  1.0376  0.4299 -1.4327
 5330TIP3    H237554   5.486   5.307   6.773  0.9822 -0.3228  0.7210
 5331TIP3   OH237555   1.518   0.962   7.607 -0.1280 -0.1878  0.4497
 5331TIP3    H137556   1.528   0.940   7.699  1.1221 -1.8526 -0.0303
 5331TIP3    H237557   1.435   0.919   7.581 -0.2423 -0.1133  0.6923
 5332TIP3   OH237558   4.927   4.180   1.826  0.4414  0.1012  0.2270
 5332TIP3    H137559   4.998   4.242   1.841  0.3553  0.1903  0.2714
 5332TIP3    H237560   4.851   4.220   1.868  0.2359  0.2663 -0.2921
 5333TIP3   OH237561   3.546   5.837   1.073 -0.2442 -0.2012  0.5648
 5333TIP3    H137562   3.486   5.910   1.084 -0.8234 -0.3286 -1.4299
 5333TIP3    H237563   3.613   5.869   1.013  0.6137 -0.6977  1.2238
 5334TIP3   OH237564   5.298   2.927   0.763 -0.5705  1.0652 -0.5998
 5334TIP3    H137565   5.304   2.861   0.693  0.5610 -0.2092  0.6189
 5334TIP3    H237566   5.290   3.010   0.717 -0.0749  0.2485 -2.2505
 5335TIP3   OH237567   1.163   4.367   0.601  0.3493  0.2343 -0.3537
 5335TIP3    H137568   1.237   4.420   0.571  0.1266 -0.5589 -2.4953
 5335TIP3    H237569   1.203   4.288   0.636  0.5652  0.0623 -0.9699
 5336TIP3   OH237570   1.484   2.589   8.381 -0.3315  0.0512 -0.7883
 5336TIP3    H137571   1.574   2.620   8.388 -0.6954  1.1336 -0.8072
 5336TIP3    H237572   1.487   2.499   8.414  0.3590  0.8047  1.3211
 5337TIP3   OH237573   1.594   2.438   0.859  0.1646  0.0725 -0.6477
 5337TIP3    H137574   1.590   2.404   0.769  0.1047 -1.9297  0.0719
 5337TIP3    H237575   1.610   2.361   0.913  0.8251  1.3399  1.0250
 5338TIP3   OH237576   6.320   5.785   7.924 -0.0020  0.4624  0.3963
 5338TIP3    H137577   6.320   5.692   7.905  0.7854  0.2814  1.2004
 5338TIP3    H237578   6.314   5.827   7.838  0.6124 -0.3252 -0.0438
 5339TIP3   OH237579   0.572   6.796   6.922  0.5179 -0.2309 -0.4929
 5339TIP3    H137580   0.625   6.730   6.877  1.2769  0.2755 -0.3716
 5339TIP3    H237581   0.609   6.880   6.893  0.3486  0.1160  0.2704
 5340TIP3   OH237582   3.778   4.935   1.918 -0.1014 -0.1726  0.3770
 5340TIP3    H137583   3.807   5.020   1.949 -0.3534 -0.6933  2.1561
 5340TIP3    H237584   3.793   4.937   1.823 -2.7545  2.9036 -0.1453
 5341TIP3   OH237585   5.423   2.754   2.318 -0.1745  0.2056  0.1881
 5341TIP3    H137586   5.335   2.735   2.284  0.2480 -0.5835 -0.4880
 5341TIP3    H237587   5.409   2.827   2.379 -1.5013 -0.7624  1.1085
 5342TIP3   OH237588   5.681   4.174   1.475  0.2514 -0.0192 -0.1605
 5342TIP3    H137589   5.775   4.176   1.456  0.1054  1.3438 -0.8033
 5342TIP3    H237590   5.671   4.230   1.553 -0.0120 -0.2779 -0.0063
 5343TIP3   OH237591   0.181   0.449   6.522 -0.5868  0.2520 -0.2498
 5343TIP3    H137592   0.239   0.392   6.471 -0.1656  1.6295 -1.3666
 5343TIP3    H237593   0.127   0.388   6.573 -1.5303 -1.2955 -2.8475
 5344TIP3   OH237594   2.226   0.460   7.256 -0.1609 -0.2707  0.5165
 5344TIP3    H137595   2.186   0.480   7.171 -0.1531 -0.3395  0.4965
 5344TIP3    H237596   2.201   0.533   7.312 -1.0368 -0.7469  0.7486
 5345TIP3   OH237597   5.998   5.031   1.850 -0.4076  0.3985 -0.2852
 5345TIP3    H137598   5.937   4.964   1.879  0.2756 -0.4867 -0.8389
 5345TIP3    H237599   6.039   5.063   1.931 -0.2880 -0.2971 -0.0653
 5346TIP3   OH237600   5.438   4.887   8.227  0.5538  0.5766 -0.0193
 5346TIP3    H137601   5.522   4.849   8.254  0.5761  0.3544 -0.3999
 5346TIP3    H237602   5.462   4.968   8.183  0.5439  0.7116  0.2205
 5347TIP3   OH237603   2.941   1.814   1.188  0.4599 -0.4396  0.2725
 5347TIP3    H137604   2.993   1.885   1.150  0.4814 -1.4987 -1.8356
 5347TIP3    H237605   3.004   1.743   1.202 -0.2473 -1.5405 -1.7962
 5348TIP3   OH237606   3.991   3.524   8.572  0.3379  0.5371 -0.2479
 5348TIP3    H137607   3.997   3.503   8.479 -0.5786  1.7454 -0.6063
 5348TIP3    H237608   3.986   3.620   8.574 -1.4012  0.4511  0.9309
 5349TIP3   OH237609   6.719   3.855   1.440  0.3034 -0.1095 -0.2258
 5349TIP3    H137610   6.647   3.885   1.384 -0.6221 -0.3163  0.8236
 5349TIP3    H237611   6.797   3.899   1.404 -0.5432  1.1978 -0.5479
 5350TIP3   OH237612   1.130   6.326   2.540  0.0561  0.2371 -0.4470
 5350TIP3    H137613   1.075   6.257   2.504 -2.0179  1.1964  0.7032
 5350TIP3    H237614   1.069   6.387   2.580  1.9216  1.9302 -0.0048
 5351TIP3   OH237615   0.839   4.109   8.530  0.2128 -0.5196 -0.3547
 5351TIP3    H137616   0.864   4.202   8.534 -1.3324  0.1628 -3.4057
 5351TIP3    H237617   0.898   4.072   8.464 -1.2173 -0.9044 -1.4433
 5352TIP3   OH237618   3.599   1.152   6.356 -0.1754  0.1792 -0.0879
 5352TIP3    H137619   3.593   1.141   6.261  0.0761  0.1117 -0.0946
 5352TIP3    H237620   3.619   1.065   6.389 -1.8936 -0.1583  0.1675
 5353TIP3   OH237621   3.005   5.569   1.153  0.4478 -0.5558  0.0300
 5353TIP3    H137622   3.086   5.618   1.135  0.8066 -1.6541 -1.5418
 5353TIP3    H237623   2.971   5.547   1.067 -1.5689 -0.1170  0.6776
 5354TIP3   OH237624   6.789   3.838   8.133  0.1004  0.0560  0.1873
 5354TIP3    H137625   6.753   3.787   8.205  1.4258 -1.2846 -0.0356
 5354TIP3    H237626   6.713   3.864   8.081 -0.6218 -1.7870  0.2681
 5355TIP3   OH237627   2.046   2.007   1.467  0.1330  0.0704 -0.2767
 5355TIP3    H137628   2.002   2.073   1.414  0.5880 -1.3239 -2.5087
 5355TIP3    H237629   2.001   1.925   1.445  0.9991 -0.7101  0.7687
 5356TIP3   OH237630   2.759   6.650   0.408 -0.0974  0.1331 -0.4699
 5356TIP3    H137631   2.698   6.601   0.352 -2.0534 -0.0191  1.6479
 5356TIP3    H237632   2.762   6.738   0.369  0.0185 -0.4460 -1.8068
 5357TIP3   OH237633   3.412   0.121   1.791 -0.3679 -0.0792  0.1987
 5357TIP3    H137634   3.444   0.172   1.717 -0.6151 -0.7262 -0.3644
 5357TIP3    H237635   3.331   0.165   1.818 -1.5038 -1.1140 -1.3680
 5358TIP3   OH237636   5.406   4.056   1.214 -0.0221  0.4590  0.2424
 5358TIP3    H137637   5.438   4.068   1.125 -2.2899 -2.2914 -1.1159
 5358TIP3    H237638   5.425   4.139   1.258  1.8614  1.6485 -2.5212
 5359TIP3   OH237639   4.232   6.460   1.446  0.1569 -0.1989 -1.0482
 5359TIP3    H137640   4.246   6.472   1.540  1.2885  1.4160 -1.3809
 5359TIP3    H237641   4.160   6.398   1.440 -0.0567 -0.1927  0.8869
 5360TIP3   OH237642   5.812   5.596   6.494  0.4188  0.4106 -0.5108
 5360TIP3    H137643   5.888   5.591   6.436 -0.4498 -1.0562 -1.6210
 5360TIP3    H237644   5.756   5.523   6.465  0.0257 -0.5182  2.3077
 5361TIP3   OH237645   4.138   1.482   7.300  0.0251 -0.3982  0.3611
 5361TIP3    H137646   4.169   1.450   7.385  0.9769 -1.2012 -0.2649
 5361TIP3    H237647   4.048   1.509   7.316  0.2990 -0.1994  1.7093
 5362TIP3   OH237648   1.165   6.235   7.831  0.6936 -0.7454 -0.0406
 5362TIP3    H137649   1.080   6.278   7.839  1.1169  0.0519  0.2868
 5362TIP3    H237650   1.145   6.149   7.793 -0.0989  0.0325 -1.4904
 5363TIP3   OH237651   2.600   4.361   7.004  0.4725  0.5884  0.0607
 5363TIP3    H137652   2.529   4.385   6.945  0.3404 -0.6510 -0.2961
 5363TIP3    H237653   2.664   4.431   6.992 -0.2363  1.1816 -0.3725
 5364TIP3   OH237654   0.479   3.791   8.713  0.3841  0.0327 -0.5213
 5364TIP3    H137655   0.426   3.848   8.658 -0.0436 -1.2940 -1.5467
 5364TIP3    H237656   0.565   3.790   8.671  1.5077  2.6223  1.4437
 5365TIP3   OH237657   0.250   1.247   8.218  0.3131 -0.5570 -0.4534
 5365TIP3    H137658   0.187   1.313   8.189 -1.1211 -1.4104  0.6411
 5365TIP3    H237659   0.302   1.291   8.286  0.1478 -0.2172 -0.5450
 5366TIP3   OH237660   2.577   6.202   1.479 -0.0717 -0.3737  0.1047
 5366TIP3    H137661   2.650   6.216   1.419  0.5121  0.0629  0.9038
 5366TIP3    H237662   2.597   6.120   1.524 -0.5970 -0.7925 -0.4189
 5367TIP3   OH237663   2.253   6.110   8.673 -0.1994  0.1424 -0.1414
 5367TIP3    H137664   2.221   6.055   8.745  1.8327 -1.3504 -0.2945
 5367TIP3    H237665   2.346   6.120   8.691  1.2564 -3.1532 -4.1706
 5368TIP3   OH237666   2.381   0.752   6.792  0.6507  0.5019 -0.5488
 5368TIP3    H137667   2.333   0.710   6.864  1.0282 -1.1208 -1.2146
 5368TIP3    H237668   2.472   0.754   6.821  0.5531  1.4602 -0.2663
 5369TIP3   OH237669   0.424   2.788   8.410  0.7820  0.1890 -0.6234
 5369TIP3    H137670   0.387   2.820   8.327  2.6035 -0.1738 -1.6337
 5369TIP3    H237671   0.448   2.697   8.392 -0.7531 -0.5927  1.0030
 5370TIP3   OH237672   1.701   1.730   1.784  0.2476 -0.0887  0.2820
 5370TIP3    H137673   1.793   1.708   1.801  0.0219 -1.1536  0.1799
 5370TIP3    H237674   1.690   1.717   1.690  0.0233  0.1667  0.2726
 5371TIP3   OH237675   4.270   3.494   7.073  0.3626  0.2675  0.3027
 5371TIP3    H137676   4.348   3.520   7.025 -0.2604 -0.5929 -1.2555
 5371TIP3    H237677   4.204   3.480   7.005 -0.7132 -0.4625  1.4637
 5372TIP3   OH237678   5.519   0.132   6.634  0.0047 -0.5260  0.0270
 5372TIP3    H137679   5.491   0.181   6.557  0.5546 -0.4691 -0.1382
 5372TIP3    H237680   5.610   0.109   6.617  1.0215  1.8212  1.8058
 5373TIP3   OH237681   4.516   2.487   6.502 -0.9582 -0.0503 -0.2626
 5373TIP3    H137682   4.482   2.404   6.536 -2.8895  0.9325  0.3592
 5373TIP3    H237683   4.439   2.532   6.468  0.1368  1.2684 -1.0918
 5374TIP3   OH237684   5.555   0.763   7.741 -0.2835 -0.4099 -0.1887
 5374TIP3    H137685   5.603   0.799   7.666  2.3458  0.4891  1.7517
 5374TIP3    H237686   5.588   0.673   7.749  0.4414 -0.0879  0.6024
 5375TIP3   OH237687   5.884   2.011   1.910  0.4012 -0.5451  0.6030
 5375TIP3    H137688   5.852   1.926   1.878 -0.7677 -0.1796  0.7438
 5375TIP3    H237689   5.817   2.040   1.972 -0.4845  1.5731 -1.1855
 5376TIP3   OH237690   2.484   1.130   8.631  0.2276 -0.0939  0.5318
 5376TIP3    H137691   2.457   1.047   8.669 -1.2793 -0.7787 -1.8355
 5376TIP3    H237692   2.569   1.112   8.590 -0.3968 -0.6892 -0.5425
 5377TIP3   OH237693   2.630   1.467   2.153 -0.0997  0.4569 -0.2244
 5377TIP3    H137694   2.695   1.531   2.181  0.8354 -0.2651 -0.6695
 5377TIP3    H237695   2.616   1.412   2.230  0.8034 -0.1712 -0.4922
 5378TIP3   OH237696   2.509   2.498   1.451 -0.9101 -0.6862  0.5286
 5378TIP3    H137697   2.458   2.419   1.472 -0.2209 -0.8785  1.5609
 5378TIP3    H237698   2.562   2.513   1.529  1.8442 -1.4070 -1.1032
 5379TIP3   OH237699   5.240   0.180   0.970 -0.0997  0.3087 -0.2135
 5379TIP3    H137700   5.203   0.203   1.055 -1.1404 -1.2769 -0.2150
 5379TIP3    H237701   5.309   0.117   0.990 -0.3073 -0.0248 -0.5264
 5380TIP3   OH237702   2.615   5.490   8.545  0.3529  0.0721  0.0006
 5380TIP3    H137703   2.678   5.455   8.608  0.1263  0.4844  0.4598
 5380TIP3    H237704   2.609   5.583   8.565  0.1235  0.1716 -0.4989
 5381TIP3   OH237705   1.029   2.948   6.980  0.3052  0.4366 -0.0235
 5381TIP3    H137706   1.026   2.897   6.899 -2.3182 -1.3916  1.0762
 5381TIP3    H237707   1.070   2.889   7.043  0.4068  1.0250  0.4629
 5382TIP3   OH237708   0.634   3.882   0.426 -0.2225 -0.3560 -0.1989
 5382TIP3    H137709   0.558   3.933   0.399  0.2111  0.6678  0.4175
 5382TIP3    H237710   0.709   3.937   0.402  0.5221 -2.5261 -3.3029
 5383TIP3   OH237711   3.356   4.214   0.424 -0.5645 -0.2685  0.6273
 5383TIP3    H137712   3.297   4.150   0.461 -0.8971 -0.5924 -0.4197
 5383TIP3    H237713   3.315   4.241   0.342 -0.6742  1.6490  1.2520
 5384TIP3   OH237714   5.234   2.431   6.703  0.2788 -0.7774 -0.4068
 5384TIP3    H137715   5.144   2.456   6.721  0.6759 -0.6150  1.5765
 5384TIP3    H237716   5.244   2.443   6.609 -1.1420  1.2736 -0.3503
 5385TIP3   OH237717   2.614   6.344   0.714 -0.2355  0.3673 -0.7936
 5385TIP3    H137718   2.550   6.376   0.777  1.0195  1.7558 -0.1933
 5385TIP3    H237719   2.569   6.272   0.670 -1.0968 -0.7691  1.7633
 5386TIP3   OH237720   3.432   6.528   7.149  0.3014 -0.1947 -0.2984
 5386TIP3    H137721   3.493   6.562   7.083 -0.8053  1.6459 -0.4375
 5386TIP3    H237722   3.345   6.554   7.117 -0.2533  1.0036  2.0046
 5387TIP3   OH237723   2.685   5.582   6.507  0.3458  0.0761 -0.7269
 5387TIP3    H137724   2.628   5.577   6.430  0.0155 -0.5956 -0.4441
 5387TIP3    H237725   2.722   5.494   6.515 -0.9068 -0.3283  0.8540
 5388TIP3   OH237726   4.550   0.868   8.374 -0.3322  0.1199  0.1541
 5388TIP3    H137727   4.620   0.832   8.429  0.0211 -0.8962 -0.9379
 5388TIP3    H237728   4.479   0.805   8.381 -0.1401 -0.2207 -0.8492
 5389TIP3   OH237729   2.897   2.357   8.392 -0.5242  0.0797 -0.0647
 5389TIP3    H137730   2.829   2.306   8.348  0.8738  0.3986 -2.8136
 5389TIP3    H237731   2.931   2.299   8.460 -0.0678 -2.1268 -2.0548
 5390TIP3   OH237732   4.289   5.808   1.874 -0.6440 -0.2279  0.5180
 5390TIP3    H137733   4.230   5.881   1.893 -2.1478 -1.2580 -0.0528
 5390TIP3    H237734   4.271   5.786   1.782  0.2708 -0.8856  0.4858
 5391TIP3   OH237735   3.374   0.092   8.126  0.5165 -0.4188 -0.5405
 5391TIP3    H137736   3.377   0.121   8.217  0.4373  0.0953 -0.7019
 5391TIP3    H237737   3.465   0.097   8.096  0.7182 -1.5962 -0.1823
 5392TIP3   OH237738   3.247   2.473   1.672 -0.7123 -0.0896 -0.1442
 5392TIP3    H137739   3.153   2.456   1.684 -0.6624 -0.4705 -0.2591
 5392TIP3    H237740   3.287   2.386   1.674 -0.4804 -0.0156 -1.0810
 5393TIP3   OH237741   2.624   2.316   7.269 -0.2815 -0.2536  0.4062
 5393TIP3    H137742   2.569   2.238   7.261 -1.3672  0.5135  0.1220
 5393TIP3    H237743   2.600   2.370   7.193 -0.9684  1.2111  1.6141
 5394TIP3   OH237744   5.864   3.028   0.596 -0.2136  0.0306  0.0112
 5394TIP3    H137745   5.820   2.943   0.600  1.7678 -1.0260  0.6284
 5394TIP3    H237746   5.919   3.031   0.674  1.7055  0.7438 -1.2798
 5395TIP3   OH237747   5.594   2.219   8.670  0.2294 -0.1656 -0.2180
 5395TIP3    H137748   5.588   2.140   8.723  0.3701  0.0832  0.1693
 5395TIP3    H237749   5.684   2.250   8.682 -0.2050  0.7899  0.6945
 5396TIP3   OH237750   5.154   5.283   8.146  0.5313 -0.3608  0.0741
 5396TIP3    H137751   5.240   5.275   8.188  1.3490  2.1573 -0.9362
 5396TIP3    H237752   5.173   5.310   8.057 -1.2970  3.0477  0.5692
 5397TIP3   OH237753   4.315   6.237   0.259  0.4796  0.2942 -0.6315
 5397TIP3    H137754   4.310   6.195   0.174 -1.1634  0.2638 -0.5531
 5397TIP3    H237755   4.395   6.290   0.255  1.7116 -1.5104 -1.3085
 5398TIP3   OH237756   2.953   0.907   8.572 -0.9799  0.4229 -0.0679
 5398TIP3    H137757   2.996   0.865   8.498  1.1647  2.1405  0.0754
 5398TIP3    H237758   3.002   0.877   8.649 -1.0205  1.1994  0.2782
 5399TIP3   OH237759   5.257   3.802   7.771  0.8097 -0.4023  0.2354
 5399TIP3    H137760   5.224   3.811   7.682 -1.9327  0.3573  1.2117
 5399TIP3    H237761   5.275   3.891   7.800  2.1531 -0.6816  0.3073
 5400TIP3   OH237762   0.669   0.692   2.445  0.2132  0.6099 -0.2933
 5400TIP3    H137763   0.614   0.653   2.376 -0.7172  0.3866  0.5469
 5400TIP3    H237764   0.648   0.785   2.443  1.5692  0.9293 -1.5203
 5401TIP3   OH237765   4.823   2.021   6.039  0.4002 -0.1901 -0.0235
 5401TIP3    H137766   4.913   1.997   6.018  1.0543  1.2264  0.9421
 5401TIP3    H237767   4.822   2.032   6.135 -0.6888  0.1783 -0.0517
 5402TIP3   OH237768   6.356   2.417   7.198  0.2249 -0.6123 -0.4961
 5402TIP3    H137769   6.332   2.481   7.266 -0.3662 -0.6348 -0.6738
 5402TIP3    H237770   6.363   2.469   7.118 -0.8371 -0.8518 -0.7546
 5403TIP3   OH237771   2.434   6.530   1.187  0.3187  0.3932 -0.2483
 5403TIP3    H137772   2.463   6.522   1.278  0.5504 -0.1466 -0.3671
 5403TIP3    H237773   2.338   6.526   1.192  0.3509 -0.4695 -0.0948
 5404TIP3   OH237774   4.246   3.893   1.153  0.6404  0.3012  0.2366
 5404TIP3    H137775   4.212   3.966   1.205  0.6660 -0.6138  1.6040
 5404TIP3    H237776   4.266   3.825   1.218  0.0605 -1.1466 -1.0298
 5405TIP3   OH237777   1.884   1.146   8.783 -0.2648 -0.1513 -0.0545
 5405TIP3    H137778   1.833   1.148   8.863 -1.2495  1.6588 -0.6638
 5405TIP3    H237779   1.824   1.177   8.715  0.7120 -1.0652 -1.4002
 5406TIP3   OH237780   6.258   4.236   1.469 -0.4545 -0.0536 -0.3458
 5406TIP3    H137781   6.216   4.316   1.501  0.0877  0.4236 -0.8073
 5406TIP3    H237782   6.188   4.171   1.470 -1.0073  0.5236 -0.3351
 5407TIP3   OH237783   5.158   2.366   8.206 -0.5535  0.2544  0.4033
 5407TIP3    H137784   5.109   2.445   8.179 -0.7332 -0.2592 -0.8388
 5407TIP3    H237785   5.248   2.384   8.180 -0.3253  0.5965  1.3729
 5408TIP3   OH237786   2.305   6.210   7.051  0.1486  0.1061  0.5719
 5408TIP3    H137787   2.298   6.115   7.044  2.1920 -0.0707  0.1043
 5408TIP3    H237788   2.294   6.241   6.961 -0.0615  0.2668  0.6539
 5409TIP3   OH237789   5.508   6.693   0.511 -0.3352 -0.7779  0.0414
 5409TIP3    H137790   5.471   6.776   0.479 -0.6006 -0.4106  1.2268
 5409TIP3    H237791   5.485   6.629   0.444 -0.3459  0.0598 -0.7799
 5410TIP3   OH237792   1.037   4.071   1.436 -0.4943  0.5107  0.0092
 5410TIP3    H137793   1.118   4.122   1.437 -0.5219  0.5890 -1.1690
 5410TIP3    H237794   1.030   4.036   1.525 -0.0882  1.9504  0.6456
 5411TIP3   OH237795   6.509   5.117   7.688  0.3365  0.2480 -0.6741
 5411TIP3    H137796   6.558   5.159   7.759  0.9778 -1.0703 -0.2942
 5411TIP3    H237797   6.484   5.188   7.630 -0.6500  1.4320  1.1398
 5412TIP3   OH237798   5.385   1.337   7.959  0.9555  0.3551 -0.1151
 5412TIP3    H137799   5.432   1.397   8.016  1.3838  0.1579 -0.2619
 5412TIP3    H237800   5.298   1.330   7.999  0.4099  2.1923 -0.8733
 5413TIP3   OH237801   2.559   0.969   1.902  0.6732 -0.2953 -0.4307
 5413TIP3    H137802   2.631   1.005   1.850  1.3934  1.5896  1.6859
 5413TIP3    H237803   2.595   0.960   1.990 -1.3147 -0.5154  0.4213
 5414TIP3   OH237804   0.173   1.077   6.285  0.0674  0.0153 -0.3958
 5414TIP3    H137805   0.199   1.004   6.342  1.1994 -1.2547 -2.4057
 5414TIP3    H237806   0.172   1.039   6.197 -1.1971  1.9954 -1.2951
 5415TIP3   OH237807   0.653   2.634   0.303 -0.0708 -0.0082 -0.5044
 5415TIP3    H137808   0.681   2.551   0.341 -0.8499  1.2202  3.0591
 5415TIP3    H237809   0.717   2.698   0.335 -0.6754  1.1371 -1.4707
 5416TIP3   OH237810   6.245   4.667   6.984 -0.0468  0.1911  0.1602
 5416TIP3    H137811   6.263   4.611   7.059  0.6242  0.3400  0.1102
 5416TIP3    H237812   6.150   4.661   6.972 -0.0931 -0.2148  0.7160
 5417TIP3   OH237813   2.577   0.035   8.242 -0.0783  0.0413 -0.2713
 5417TIP3    H137814   2.547  -0.051   8.272 -2.5355  0.5770 -0.9759
 5417TIP3    H237815   2.672   0.033   8.254 -0.3032 -1.9742  1.7172
 5418TIP3   OH237816   6.508   2.576   2.075 -0.1328 -0.1295  0.4683
 5418TIP3    H137817   6.452   2.523   2.132  0.5996  1.1911  2.5427
 5418TIP3    H237818   6.597   2.545   2.092  0.1214  0.4218  0.1916
 5419TIP3   OH237819   0.923   4.016   7.023 -0.3490  0.3396 -0.1980
 5419TIP3    H137820   0.940   4.093   7.077 -0.9799  0.4803 -0.1927
 5419TIP3    H237821   0.886   4.051   6.942  2.4299  0.3135 -1.6184
 5420TIP3   OH237822   2.025   2.083   0.201  0.1702 -0.2935  0.0994
 5420TIP3    H137823   2.010   2.091   0.296 -0.1573  1.7365 -0.0969
 5420TIP3    H237824   1.987   1.997   0.179  0.1666 -0.7657  1.7787
 5421TIP3   OH237825   6.470   1.551   7.615  1.2180 -0.2742 -0.3640
 5421TIP3    H137826   6.427   1.598   7.544 -0.7575 -0.2253  0.7688
 5421TIP3    H237827   6.407   1.483   7.640  2.5329 -1.2988  0.3058
 5422TIP3   OH237828   0.871   4.890   8.162  0.4958  0.7668 -0.2454
 5422TIP3    H137829   0.914   4.944   8.228 -1.8936  3.5578 -0.8108
 5422TIP3    H237830   0.861   4.804   8.204  0.5266  1.9662  2.3741
 5423TIP3   OH237831   0.193   3.708   0.396 -0.4664  0.3355  0.5199
 5423TIP3    H137832   0.100   3.688   0.388 -0.0747 -1.9344  0.9513
 5423TIP3    H237833   0.210   3.707   0.490  0.3617 -1.4812  0.4045
 5424TIP3   OH237834   1.249   1.949   0.691  0.4642 -0.1097 -0.5138
 5424TIP3    H137835   1.188   2.012   0.653  1.9168  1.2832 -0.6581
 5424TIP3    H237836   1.203   1.865   0.685 -0.5568  0.5089 -2.6110
 5425TIP3   OH237837   3.379   5.694   7.696 -0.4206 -0.7841 -0.3710
 5425TIP3    H137838   3.294   5.700   7.741 -1.4571  0.9144 -2.3595
 5425TIP3    H237839   3.423   5.775   7.719 -0.2215 -0.7103 -1.0169
 5426TIP3   OH237840   2.806   0.133   0.847 -0.3057  0.1063 -0.6740
 5426TIP3    H137841   2.852   0.056   0.815 -0.2520  0.9341 -2.7703
 5426TIP3    H237842   2.717   0.124   0.812 -1.0473 -0.1862  1.1491
 5427TIP3   OH237843   6.675   1.396   1.313 -0.0533  0.5022  0.1038
 5427TIP3    H137844   6.583   1.390   1.287 -0.1806 -0.7940  0.7584
 5427TIP3    H237845   6.674   1.382   1.408  0.8522  0.1409  0.0662
 5428TIP3   OH237846   2.491   1.157   0.594 -0.1167  0.0321 -0.0839
 5428TIP3    H137847   2.414   1.125   0.640 -0.3008  0.6242  0.0274
 5428TIP3    H237848   2.484   1.119   0.506  0.2213 -1.0724  0.3418
 5429TIP3   OH237849   6.468   3.289   0.807  0.5743 -0.0090  0.0205
 5429TIP3    H137850   6.405   3.234   0.761 -0.5380  2.0737 -1.1381
 5429TIP3    H237851   6.446   3.279   0.900 -1.8504  0.9664 -0.3663
 5430TIP3   OH237852   4.908   0.633   1.557 -1.1360  0.0830 -0.3944
 5430TIP3    H137853   4.951   0.585   1.628  1.4891  1.3214 -1.0433
 5430TIP3    H237854   4.979   0.664   1.502 -2.8830  2.2962 -1.5749
 5431TIP3   OH237855   3.455   3.767   0.626 -0.4669 -0.3423 -0.3568
 5431TIP3    H137856   3.390   3.836   0.638 -1.6567 -1.1117 -1.9655
 5431TIP3    H237857   3.498   3.789   0.543 -0.9693 -1.5764 -0.9705
 5432TIP3   OH237858   6.524   6.447   8.217 -0.1232 -0.0995  0.0876
 5432TIP3    H137859   6.430   6.433   8.220 -0.3994  0.7886 -2.3226
 5432TIP3    H237860   6.561   6.369   8.258 -1.8515 -1.8711 -1.5374
 5433TIP3   OH237861   4.169   2.593   1.897 -0.2862  1.0146  0.9448
 5433TIP3    H137862   4.234   2.534   1.934 -0.3767  0.1137 -0.2653
 5433TIP3    H237863   4.090   2.578   1.950 -0.6038 -0.7120  0.0601
 5434TIP3   OH237864   4.051   4.550   7.704  0.5036  0.8221  0.2634
 5434TIP3    H137865   4.144   4.558   7.685  0.4916  1.2070  0.3498
 5434TIP3    H237866   4.008   4.554   7.619  0.6294 -0.5454  0.1090
 5435TIP3   OH237867   1.302   0.120   7.328  0.4548 -0.1140  0.1512
 5435TIP3    H137868   1.315   0.075   7.245  0.1666 -0.2054  0.1524
 5435TIP3    H237869   1.389   0.151   7.353  0.7674 -1.1767  0.4360
 5436TIP3   OH237870   0.549   2.999   7.906 -0.3599  0.1749 -0.4270
 5436TIP3    H137871   0.601   3.022   7.983 -0.8163  1.2757 -0.4332
 5436TIP3    H237872   0.497   2.923   7.935  0.3494 -0.1702 -0.0397
 5437TIP3   OH237873   2.113   4.552   0.427  0.4771  0.2487 -0.2242
 5437TIP3    H137874   2.027   4.511   0.434  1.0979 -1.1514 -0.3876
 5437TIP3    H237875   2.122   4.602   0.508 -0.6405  0.7378 -0.3866
 5438TIP3   OH237876   3.977   6.627   8.333  0.0595 -0.5658 -0.5261
 5438TIP3    H137877   3.980   6.532   8.330 -0.2994 -0.6034  0.1450
 5438TIP3    H237878   3.978   6.654   8.241  1.8113 -1.1507 -0.7239
 5439TIP3   OH237879   5.771   4.318   8.784  0.1763  0.1654 -0.0728
 5439TIP3    H137880   5.789   4.262   8.860  0.3975  1.4597  0.8669
 5439TIP3    H237881   5.753   4.404   8.822 -2.1083  0.3384 -1.3315
 5440TIP3   OH237882   1.824   2.129   1.169 -0.1243  0.5447 -0.2467
 5440TIP3    H137883   1.833   2.057   1.106 -0.9249  0.5930 -0.4245
 5440TIP3    H237884   1.907   2.178   1.161  0.9141 -0.9798  0.6877
 5441TIP3   OH237885   6.429   4.232   2.281 -0.6098  0.0820 -0.0297
 5441TIP3    H137886   6.483   4.185   2.345 -0.2597  0.7755  0.1915
 5441TIP3    H237887   6.443   4.185   2.199  0.8053  0.5913 -0.1059
 5442TIP3   OH237888   5.899   4.125   7.893  0.2326 -0.3682  0.4036
 5442TIP3    H137889   5.983   4.146   7.933 -0.2258 -2.8373  2.9666
 5442TIP3    H237890   5.844   4.202   7.909  0.9817 -0.1195  1.9428
 5443TIP3   OH237891   2.732   2.841   0.949 -0.1869 -0.1539 -0.2125
 5443TIP3    H137892   2.758   2.932   0.966 -0.8655  0.2657 -1.3528
 5443TIP3    H237893   2.638   2.840   0.962 -0.3143 -0.4726 -1.0953
 5444TIP3   OH237894   5.994   2.216   1.746  0.6604 -0.8449 -0.3478
 5444TIP3    H137895   5.992   2.152   1.817  0.4051  1.8985  2.3302
 5444TIP3    H237896   5.905   2.250   1.742  1.5281  1.9008  0.9913
 5445TIP3   OH237897   0.681   1.551   7.729  0.0218 -0.1315  0.3692
 5445TIP3    H137898   0.703   1.526   7.818 -2.4549  0.0131  1.1175
 5445TIP3    H237899   0.685   1.647   7.729  1.7039 -0.1748 -0.2093
 5446TIP3   OH237900   6.173   2.999   7.021  0.0224  0.3342  0.3636
 5446TIP3    H137901   6.148   3.091   7.011 -3.0289 -0.5702 -1.4939
 5446TIP3    H237902   6.262   2.994   6.985 -0.2715  2.3155 -0.7509
 5447TIP3   OH237903   1.320   1.656   1.324 -0.2720  0.0131  0.5756
 5447TIP3    H137904   1.357   1.569   1.337  2.2761  0.9146 -0.1279
 5447TIP3    H237905   1.255   1.644   1.254 -0.3960 -1.3822  0.8922
 5448TIP3   OH237906   5.025   4.513   8.460 -0.3393  0.4061  1.0399
 5448TIP3    H137907   4.938   4.552   8.454 -0.9726 -1.1148 -1.1642
 5448TIP3    H237908   5.080   4.569   8.404 -0.7954 -0.6079 -0.5043
 5449TIP3   OH237909   6.054   0.393   7.931 -0.2308 -0.1103  0.5853
 5449TIP3    H137910   5.978   0.419   7.879 -0.2094  0.3345  0.7701
 5449TIP3    H237911   6.111   0.348   7.869  0.2713  1.3359 -0.0366
 5450TIP3   OH237912   3.687   3.095   6.228  0.0959 -0.1065 -0.8581
 5450TIP3    H137913   3.611   3.080   6.284 -0.7648 -0.5711 -2.1316
 5450TIP3    H237914   3.752   3.031   6.259 -0.3049 -0.2555 -0.3104
 5451TIP3   OH237915   0.383   0.054   8.711  0.6713 -0.2087  0.3296
 5451TIP3    H137916   0.365   0.054   8.617 -0.5194 -0.9117  0.5468
 5451TIP3    H237917   0.307   0.096   8.750  1.7254  1.2652  0.9126
 5452TIP3   OH237918   1.436   6.618   8.101 -0.0179  0.0939 -0.2046
 5452TIP3    H137919   1.363   6.637   8.159 -0.4792 -0.1823 -0.6875
 5452TIP3    H237920   1.457   6.703   8.062 -1.9070 -0.2533 -2.1594
 5453TIP3   OH237921   1.021   4.403   7.454 -0.6748 -0.2157 -0.4313
 5453TIP3    H137922   0.957   4.414   7.384  0.2416  0.6870 -1.1493
 5453TIP3    H237923   1.031   4.490   7.493 -0.0972 -0.4015 -0.1458
 5454TIP3   OH237924   1.167   0.648   7.807 -0.4021  0.2963 -0.1940
 5454TIP3    H137925   1.117   0.645   7.888  0.1033 -0.6065  0.1042
 5454TIP3    H237926   1.235   0.714   7.823 -0.2093  0.0129  0.1892
 5455TIP3   OH237927   0.118   0.876   7.440  0.3807  0.7526  0.0753
 5455TIP3    H137928   0.179   0.810   7.405  0.0070  1.4000 -1.9306
 5455TIP3    H237929   0.164   0.913   7.515  1.0685 -1.0024  0.5672
 5456TIP3   OH237930   0.703   3.149   8.129  0.4646  0.2686 -0.1789
 5456TIP3    H137931   0.778   3.122   8.182 -0.5450 -2.1797  0.1247
 5456TIP3    H237932   0.732   3.229   8.085  1.9817  1.4040  2.6270
 5457TIP3   OH237933   4.268   4.957   1.146  0.0675 -0.2768  0.7542
 5457TIP3    H137934   4.293   4.971   1.054 -1.2035 -1.8796  0.0921
 5457TIP3    H237935   4.316   5.023   1.195  0.6458  0.7453 -1.0928
 5458TIP3   OH237936   2.530   5.236   8.780  0.2651  0.3538  0.1308
 5458TIP3    H137937   2.493   5.263   8.696 -1.1958 -0.9065  0.3176
 5458TIP3    H237938   2.582   5.158   8.759 -1.2278 -0.8047  0.5357
 5459TIP3   OH237939   3.414   5.602   0.006  0.5920  0.7098  0.2094
 5459TIP3    H137940   3.345   5.554   0.052 -0.3259  0.0574 -1.7755
 5459TIP3    H237941   3.492   5.548   0.018  0.5090  0.8058  1.3722
 5460TIP3   OH237942   2.174   1.510   1.038 -0.4650  0.2584  0.8021
 5460TIP3    H137943   2.142   1.564   1.110 -0.1577  0.9075  0.4630
 5460TIP3    H237944   2.167   1.566   0.961 -2.1617 -0.9191  0.0506
 5461TIP3   OH237945   0.971   6.202   7.253  0.2830  0.5144 -0.4348
 5461TIP3    H137946   0.968   6.227   7.345 -1.3922 -0.3562 -0.2153
 5461TIP3    H237947   0.988   6.283   7.207  0.8003  1.0216  0.6183
 5462TIP3   OH237948   5.101   1.837   8.154  0.3539 -0.3148  0.1810
 5462TIP3    H137949   5.164   1.789   8.100 -1.1194 -1.4860 -0.5677
 5462TIP3    H237950   5.104   1.792   8.239 -0.5293 -1.3569 -0.3126
 5463TIP3   OH237951   2.792   4.669   1.495  0.3044  0.5111  0.0986
 5463TIP3    H137952   2.799   4.681   1.400  0.7766  1.6042  0.2612
 5463TIP3    H237953   2.883   4.656   1.524  0.1771  0.3415  0.4259
 5464TIP3   OH237954   5.151   4.577   8.703  0.7858 -0.1903 -0.1726
 5464TIP3    H137955   5.222   4.513   8.703  0.5487 -0.4568 -0.5450
 5464TIP3    H237956   5.100   4.557   8.624  0.6127  0.3497 -0.2003
 5465TIP3   OH237957   5.355   2.750   8.453 -0.0738  0.0719 -0.1485
 5465TIP3    H137958   5.321   2.739   8.542 -1.2484 -0.0320 -0.5945
 5465TIP3    H237959   5.393   2.838   8.453  0.3978 -0.1265  0.5965
 5466TIP3   OH237960   1.240   6.358   0.889  0.6102 -0.3281 -0.1842
 5466TIP3    H137961   1.190   6.319   0.961 -0.0637  1.3247  0.2869
 5466TIP3    H237962   1.218   6.304   0.813  0.8161 -1.6999  0.6849
 5467TIP3   OH237963   2.333   0.353   8.113  0.3439  0.0809 -0.3005
 5467TIP3    H137964   2.274   0.296   8.163  0.4219  0.2780  0.0225
 5467TIP3    H237965   2.421   0.326   8.138  0.3919  1.2085  0.8985
 5468TIP3   OH237966   5.956   2.361   7.381  0.1921  0.4528 -0.2351
 5468TIP3    H137967   5.948   2.442   7.330  0.1026  0.6964  0.1611
 5468TIP3    H237968   5.940   2.388   7.472 -0.2964 -0.0854 -0.1513
 5469TIP3   OH237969   4.810   3.834   7.706  0.2921  0.3290 -0.2234
 5469TIP3    H137970   4.869   3.863   7.776 -0.2134  0.5709  0.1080
 5469TIP3    H237971   4.730   3.885   7.719 -0.5717 -1.1065  0.2963
 5470TIP3   OH237972   2.475   6.821   1.313 -0.7695 -0.2666  0.2284
 5470TIP3    H137973   2.437   6.780   1.236 -2.1710  0.3202  0.5894
 5470TIP3    H237974   2.458   6.760   1.384 -0.8350 -0.1113  0.3473
 5471TIP3   OH237975   6.808   6.744   0.965  0.2628 -0.0444 -0.2132
 5471TIP3    H137976   6.804   6.681   1.037  0.3568  0.1707 -0.0205
 5471TIP3    H237977   6.848   6.695   0.893 -0.7300 -0.5645 -0.4368
 5472TIP3   OH237978   0.430   1.770   7.001  0.5377 -0.1233 -0.0042
 5472TIP3    H137979   0.485   1.719   7.060  1.3024 -1.3596 -1.7043
 5472TIP3    H237980   0.489   1.839   6.968  0.9450 -1.0677 -1.3407
 5473TIP3   OH237981   2.129   3.899   7.335  0.0470  0.1413  0.4906
 5473TIP3    H137982   2.067   3.835   7.301  0.2317  1.0194 -1.6584
 5473TIP3    H237983   2.075   3.974   7.360  0.1004  0.4063 -0.1604
 5474TIP3   OH237984   3.924   6.425   8.743 -0.2800  0.2070 -0.1614
 5474TIP3    H137985   3.891   6.452   8.829 -1.1545  2.3955 -1.1071
 5474TIP3    H237986   3.852   6.442   8.683  0.4927 -0.7987 -1.4109
 5475TIP3   OH237987   0.219   6.554   0.542  0.4318  0.7813  0.1373
 5475TIP3    H137988   0.240   6.543   0.449  0.9530  1.1308  0.2105
 5475TIP3    H237989   0.123   6.564   0.543  0.5710  2.6374 -0.5721
 5476TIP3   OH237990   2.549   3.310   8.175  0.1252 -0.0023 -0.3035
 5476TIP3    H137991   2.473   3.257   8.202 -1.4904  2.2727 -0.1299
 5476TIP3    H237992   2.515   3.368   8.107  2.1725 -0.0803 -1.4493
 5477TIP3   OH237993   5.865   5.107   8.555  0.0725 -0.5287  0.1715
 5477TIP3    H137994   5.939   5.123   8.614 -0.2110 -0.5507  0.5418
 5477TIP3    H237995   5.900   5.123   8.467  0.6646 -1.0823  0.2956
 5478TIP3   OH237996   6.072   4.376   0.972  0.2638 -0.2418  0.0560
 5478TIP3    H137997   6.090   4.282   0.969 -0.5208 -0.4156  0.5743
 5478TIP3    H237998   6.097   4.402   1.061  0.2779 -0.0058 -0.0172
 5479TIP3   OH237999   5.785   1.135   0.487  0.7884  0.5074 -0.3097
 5479TIP3    H138000   5.869   1.175   0.509  0.9808  0.3255 -0.6992
 5479TIP3    H238001   5.730   1.208   0.459 -0.1902  1.1141  2.7407
 5480TIP3   OH238002   5.869   3.971   7.050 -0.0242 -0.3209  0.0966
 5480TIP3    H138003   5.867   4.061   7.017  0.0609 -0.9599 -1.7782
 5480TIP3    H238004   5.887   3.918   6.972  0.8351 -1.8936  1.3243
 5481TIP3   OH238005   4.026   3.114   6.734 -0.0308 -0.1228 -0.7082
 5481TIP3    H138006   4.027   3.178   6.805  0.2751  0.4480 -1.2182
 5481TIP3    H238007   3.936   3.081   6.734  0.2230 -0.8553  0.5715
 5482TIP3   OH238008   2.297   3.172   1.544  0.1472 -0.2461  0.3594
 5482TIP3    H138009   2.309   3.129   1.629 -0.4382 -1.7613 -0.2900
 5482TIP3    H238010   2.363   3.241   1.543  1.4165 -1.3837  1.2958
 5483TIP3   OH238011   2.320   2.305   0.486 -0.1859 -0.3258 -0.1471
 5483TIP3    H138012   2.333   2.317   0.581 -0.8867  1.0664 -0.2067
 5483TIP3    H238013   2.235   2.343   0.469  1.1976  2.2743 -1.8294
 5484TIP3   OH238014   4.644   3.068   0.663 -0.0038  0.4078  0.0187
 5484TIP3    H138015   4.657   3.163   0.663  1.7211  0.2053 -0.0822
 5484TIP3    H238016   4.652   3.043   0.755 -1.8907  0.4879  0.2506
 5485TIP3   OH238017   0.639   6.028   8.266 -0.1197 -0.1575  0.1793
 5485TIP3    H138018   0.590   5.946   8.272 -1.0759  0.3333 -0.5227
 5485TIP3    H238019   0.571   6.095   8.250  0.7657  0.5820 -0.5944
 5486TIP3   OH238020   1.581   5.500   8.664 -0.5048 -0.5075  0.0702
 5486TIP3    H138021   1.666   5.457   8.651 -1.0508 -1.8193  0.6156
 5486TIP3    H238022   1.601   5.581   8.710  0.7341  0.6968 -2.4191
 5487TIP3   OH238023   3.105   1.406   0.488 -0.0876  0.1081 -0.1539
 5487TIP3    H138024   3.100   1.393   0.394  0.8762 -0.4176 -0.1410
 5487TIP3    H238025   3.177   1.469   0.500  0.6108 -0.7479  0.2885
 5488TIP3   OH238026   3.391   5.711   7.425  0.2210  1.0117 -0.2099
 5488TIP3    H138027   3.382   5.723   7.520 -0.9633  0.3130 -0.2114
 5488TIP3    H238028   3.435   5.626   7.416  0.1992  1.0095 -0.2904
 5489TIP3   OH238029   0.801   1.384   0.552  0.5998 -0.2628  0.2018
 5489TIP3    H138030   0.750   1.315   0.595  0.9920 -0.6804  0.0079
 5489TIP3    H238031   0.891   1.368   0.580  0.6757  0.2607  0.2643
 5490TIP3   OH238032   3.083   0.939   7.939 -0.4572  0.7373 -0.0273
 5490TIP3    H138033   3.164   0.983   7.967  0.0765 -0.0683 -0.2777
 5490TIP3    H238034   3.026   1.011   7.911 -0.4984  1.4572  1.7878
 5491TIP3   OH238035   6.284   5.893   8.190  0.1456 -0.1374  0.3836
 5491TIP3    H138036   6.291   5.855   8.102 -0.2716 -0.1442  0.3539
 5491TIP3    H238037   6.301   5.819   8.249  0.5788 -0.1007  0.3124
 5492TIP3   OH238038   3.758   0.663   0.095 -0.0566 -0.0213 -0.0525
 5492TIP3    H138039   3.673   0.619   0.100 -0.1167  0.0172 -0.6394
 5492TIP3    H238040   3.822   0.591   0.102 -0.1518 -0.1695 -0.6317
 5493TIP3   OH238041   4.442   4.243   8.412 -0.7197  0.4030 -0.0729
 5493TIP3    H138042   4.381   4.317   8.422  0.2397  1.1681  0.2929
 5493TIP3    H238043   4.499   4.249   8.488 -0.0722 -0.1966 -0.4997
 5494TIP3   OH238044   5.487   2.678   7.179  0.1589  0.3686  0.3853
 5494TIP3    H138045   5.560   2.715   7.130  0.4722 -0.3995  0.2576
 5494TIP3    H238046   5.439   2.754   7.212 -1.4880  1.0497 -3.1128
 5495TIP3   OH238047   5.413   3.776   1.920  0.2749 -0.4826 -0.2588
 5495TIP3    H138048   5.484   3.725   1.882  1.0236  0.7260 -0.5131
 5495TIP3    H238049   5.403   3.851   1.862  1.1796  1.2149  1.6596
 5496TIP3   OH238050   1.664   5.868   0.588  0.2260  0.1894  0.5820
 5496TIP3    H138051   1.731   5.904   0.647  0.9155  2.9345 -1.6017
 5496TIP3    H238052   1.715   5.827   0.518 -0.3806  0.9241 -0.3077
 5497TIP3   OH238053   0.172   3.025   7.558 -0.3636  0.2309  0.4266
 5497TIP3    H138054   0.233   3.005   7.486 -1.7788  0.1857 -0.8003
 5497TIP3    H238055   0.229   3.044   7.633  1.1716  0.5764 -0.7786
 5498TIP3   OH238056   3.899   4.930   1.654 -0.0011  0.1141  0.7415
 5498TIP3    H138057   3.808   4.912   1.632  0.6602 -0.2005 -2.1370
 5498TIP3    H238058   3.947   4.852   1.626  1.2263  0.4671  1.7439
 5499TIP3   OH238059   0.511   1.144   0.034  0.3202 -0.0452  0.0379
 5499TIP3    H138060   0.561   1.119   0.112  0.0084 -0.6825  0.0397
 5499TIP3    H238061   0.420   1.128   0.057  0.3207 -1.9667 -1.0373
 5500TIP3   OH238062   0.173   0.152   0.007 -0.4196  0.0172  0.3737
 5500TIP3    H138063   0.164   0.190   0.094  0.7750  0.5251  0.2938
 5500TIP3    H238064   0.108   0.198  -0.047  1.3562  2.4383  0.1335
 5501TIP3   OH238065   5.722   6.039   7.103 -0.7124  0.1701  0.2029
 5501TIP3    H138066   5.665   5.963   7.090  0.0741 -0.8867  2.3170
 5501TIP3    H238067   5.756   6.058   7.016  0.5588 -3.1859 -0.2113
 5502TIP3   OH238068   2.910   3.388   1.671  0.2096 -1.0594  0.2121
 5502TIP3    H138069   2.919   3.417   1.762  1.1993 -0.0090 -0.2020
 5502TIP3    H238070   2.977   3.321   1.660  1.9438  0.7004 -0.4579
 5503TIP3   OH238071   0.151   0.429   8.631 -0.4685  0.4321  0.3230
 5503TIP3    H138072   0.203   0.414   8.552  0.0116  0.7485  0.5746
 5503TIP3    H238073   0.215   0.451   8.698 -0.8538 -0.0824  0.8637
 5504TIP3   OH238074   6.289   1.624   0.050 -0.0987  0.4434 -0.3989
 5504TIP3    H138075   6.340   1.702   0.074  1.1093 -0.4846  0.1423
 5504TIP3    H238076   6.251   1.595   0.133 -1.2026  0.8999 -0.7364
 5505TIP3   OH238077   3.399   2.576   1.483 -0.1602 -0.0324  0.0660
 5505TIP3    H138078   3.492   2.564   1.499 -0.3120 -0.2917  0.7878
 5505TIP3    H238079   3.357   2.547   1.563 -0.8642  0.1111 -0.2433
 5506TIP3   OH238080   2.676   5.081   2.047 -0.3793  0.1897  0.0902
 5506TIP3    H138081   2.717   5.110   2.128  0.8405 -0.2500 -0.3549
 5506TIP3    H238082   2.744   5.093   1.980 -0.6540 -1.3908 -0.5168
 5507TIP3   OH238083   1.416   2.190   1.529 -0.9115 -0.1814  0.2766
 5507TIP3    H138084   1.401   2.255   1.460  1.7474 -0.8360 -1.0820
 5507TIP3    H238085   1.424   2.107   1.482  0.9403 -0.6514  1.3042
 5508TIP3   OH238086   4.081   2.230   0.285 -0.0106 -0.1090  0.2572
 5508TIP3    H138087   4.116   2.292   0.349 -1.5143 -0.9611  1.9927
 5508TIP3    H238088   4.039   2.162   0.338  0.8753 -2.2150 -1.5871
 5509TIP3   OH238089   6.379   3.068   7.604 -0.2485  0.0335 -0.2400
 5509TIP3    H138090   6.452   3.103   7.654  2.2307 -1.0924 -2.7775
 5509TIP3    H238091   6.346   2.996   7.656  0.7032  0.3135  0.7926
 5510TIP3   OH238092   1.399   6.329   2.288  0.6570 -0.1082  0.3167
 5510TIP3    H138093   1.427   6.295   2.203 -0.4360 -1.6781  0.5400
 5510TIP3    H238094   1.444   6.275   2.352  0.2049 -0.0262  0.7118
 5511TIP3   OH238095   0.652   6.589   1.549 -0.0100  0.4472  0.1984
 5511TIP3    H138096   0.674   6.620   1.461  1.1671  0.3557  0.4414
 5511TIP3    H238097   0.737   6.569   1.589 -0.6172 -1.0449  0.8017
 5512TIP3   OH238098   3.832   2.432   6.313  0.4896  0.4237  0.3248
 5512TIP3    H138099   3.800   2.478   6.390 -1.0200  0.4883 -0.2990
 5512TIP3    H238100   3.925   2.418   6.330  0.4954  1.6931  1.5122
 5513TIP3   OH238101   3.560   5.732   7.141 -0.1065 -0.0062  0.1037
 5513TIP3    H138102   3.487   5.693   7.094 -0.1417  0.0457  0.1156
 5513TIP3    H238103   3.520   5.797   7.199  0.1041  1.8870 -1.7225
 5514TIP3   OH238104   5.602   6.066   1.879  0.3164  0.3100 -0.6299
 5514TIP3    H138105   5.673   6.016   1.920  0.0498 -0.3551 -0.9532
 5514TIP3    H238106   5.639   6.099   1.797  0.2006 -0.2099 -0.8977
 5515TIP3   OH238107   6.036   1.315   8.146  0.3104  0.3545  0.0921
 5515TIP3    H138108   6.062   1.267   8.067 -0.9141  0.9012 -0.6752
 5515TIP3    H238109   6.117   1.324   8.196  0.4121 -3.5936  0.9015
 5516TIP3   OH238110   6.124   4.323   0.461 -0.2953 -0.0773 -0.0515
 5516TIP3    H138111   6.110   4.386   0.390  0.2810 -1.2755 -1.2628
 5516TIP3    H238112   6.213   4.341   0.491 -0.6421  0.6233  0.5859
 5517TIP3   OH238113   4.455   3.366   7.729 -0.0109 -0.7027 -0.4796
 5517TIP3    H138114   4.417   3.293   7.778  0.3929 -0.5698  0.0367
 5517TIP3    H238115   4.457   3.438   7.791 -1.2326  0.0226 -1.2430
 5518TIP3   OH238116   5.723   4.461   7.720 -0.1597 -0.0666 -0.3447
 5518TIP3    H138117   5.747   4.552   7.705 -0.2321  0.2845  1.4239
 5518TIP3    H238118   5.772   4.411   7.655  1.5389  1.0580  0.0205
 5519TIP3   OH238119   2.463   5.150   1.844  0.3771 -0.3587 -0.1314
 5519TIP3    H138120   2.411   5.225   1.873 -2.1981 -1.7273 -0.8995
 5519TIP3    H238121   2.520   5.131   1.919 -0.2234  1.1950  0.7842
 5520TIP3   OH238122   1.083   2.161   0.580 -0.3149 -0.3872  0.0080
 5520TIP3    H138123   1.054   2.128   0.495 -0.3048 -0.7160  0.1301
 5520TIP3    H238124   1.171   2.195   0.564  0.9684 -3.2219  0.4908
 5521TIP3   OH238125   3.948   3.963   8.140  0.6660 -0.0798  0.7846
 5521TIP3    H138126   3.920   3.916   8.062  1.8613  1.1199 -0.4315
 5521TIP3    H238127   4.021   4.017   8.111 -0.8650  2.8479  1.9688
 5522TIP3   OH238128   0.793   2.118   7.331 -0.0540 -0.1950  0.3608
 5522TIP3    H138129   0.863   2.057   7.307 -0.9852 -0.7919 -0.9725
 5522TIP3    H238130   0.744   2.131   7.249 -0.7543  1.1884  0.9742
 5523TIP3   OH238131   6.682   3.515   1.901  0.1787 -0.1069 -0.2098
 5523TIP3    H138132   6.655   3.438   1.851  0.2897 -0.4513  0.2669
 5523TIP3    H238133   6.726   3.481   1.978 -0.1684  0.4192  0.2341
 5524TIP3   OH238134   6.367   4.365   1.253 -0.1562  0.0276  0.6970
 5524TIP3    H138135   6.331   4.309   1.322 -0.3786  1.0517  1.4292
 5524TIP3    H238136   6.460   4.372   1.274  0.7069 -3.0133 -1.4647
 5525TIP3   OH238137   5.947   1.716   8.737  0.5747  0.0143 -0.3345
 5525TIP3    H138138   5.905   1.670   8.809 -0.6216  1.0911 -0.2998
 5525TIP3    H238139   6.017   1.658   8.708 -0.3107 -1.3991  0.2726
 5526TIP3   OH238140   5.086   5.639   7.034  0.9161  0.8247  0.6792
 5526TIP3    H138141   5.045   5.596   6.960  0.1308 -0.6217  1.8877
 5526TIP3    H238142   5.058   5.730   7.028  0.8927  0.7430 -0.7748
 5527TIP3   OH238143   5.752   2.510   7.869 -0.1642 -0.3262  0.5539
 5527TIP3    H138144   5.768   2.517   7.963  1.8047 -1.9328  0.3987
 5527TIP3    H238145   5.663   2.477   7.862 -0.6301  0.5653  1.8029
 5528TIP3   OH238146   6.697   1.290   6.080 -0.6038 -0.5145 -0.5054
 5528TIP3    H138147   6.658   1.361   6.029 -1.3982 -0.6923 -0.1673
 5528TIP3    H238148   6.622   1.250   6.125  0.1751  0.2814  1.6149
 5529TIP3   OH238149   4.151   3.216   1.453 -0.3094  0.4812 -0.3364
 5529TIP3    H138150   4.082   3.150   1.453 -0.3053  0.3989 -2.5803
 5529TIP3    H238151   4.232   3.166   1.438 -0.0973  0.8239 -0.3501
 5530TIP3   OH238152   5.153   2.757   7.905 -0.3456 -0.3523 -0.2022
 5530TIP3    H138153   5.074   2.757   7.959 -1.4242  2.1269 -1.6168
 5530TIP3    H238154   5.161   2.847   7.875  0.3063 -1.4973 -3.9828
 5531TIP3   OH238155   3.008   6.536   8.622  0.1530  0.0661  0.0790
 5531TIP3    H138156   3.008   6.519   8.528  0.5700  1.4917 -0.2071
 5531TIP3    H238157   2.923   6.575   8.640  0.5876  1.0782  0.0162
 5532TIP3   OH238158   4.143   2.361   0.030  0.5564 -0.1278 -0.1181
 5532TIP3    H138159   4.125   2.334   0.120  0.7690 -0.1262 -0.0742
 5532TIP3    H238160   4.225   2.316   0.007  1.3668  1.1270  0.2437
 5533TIP3   OH238161   4.456   6.243   1.354  0.2531 -0.3355 -0.5484
 5533TIP3    H138162   4.366   6.276   1.345 -0.0217 -0.8595  0.1620
 5533TIP3    H238163   4.470   6.190   1.275 -1.0742 -2.5082  0.5640
 5534TIP3   OH238164   0.343   2.940   7.379  0.3859 -0.6860  0.1510
 5534TIP3    H138165   0.287   2.970   7.307  0.8476  1.4038  0.5950
 5534TIP3    H238166   0.431   2.965   7.353  0.5500  0.1718  1.4285
 5535TIP3   OH238167   3.019   6.488   8.342  0.5214 -0.2428  0.5125
 5535TIP3    H138168   3.102   6.452   8.312  0.0950 -1.1166  0.3694
 5535TIP3    H238169   2.967   6.500   8.263  0.0476 -0.8914  0.7184
 5536TIP3   OH238170   4.327   2.148   1.147  0.2747  0.8193  0.1119
 5536TIP3    H138171   4.295   2.208   1.215  0.3128  1.6273 -0.5641
 5536TIP3    H238172   4.397   2.098   1.190 -1.6944 -0.8693  1.5875
 5537TIP3   OH238173   5.468   2.883   8.784  0.0589 -0.3515 -0.3875
 5537TIP3    H138174   5.559   2.866   8.761  0.0212 -0.6099 -0.3522
 5537TIP3    H238175   5.435   2.940   8.715  0.1303 -0.5944 -0.6236
 5538TIP3   OH238176   1.358   3.989   7.276 -0.0214  0.2575 -0.1908
 5538TIP3    H138177   1.323   3.901   7.264 -0.4251  0.3358  0.3833
 5538TIP3    H238178   1.313   4.042   7.209  0.3165  0.0095 -0.6207
 5539TIP3   OH238179   5.173   6.123   0.113 -0.1702  0.5097 -0.1406
 5539TIP3    H138180   5.164   6.139   0.019 -1.2163 -2.2295 -0.6102
 5539TIP3    H238181   5.083   6.118   0.145  0.1735  0.8991  0.9172
 5540TIP3   OH238182   0.509   1.663   2.147 -0.1137  0.0565  0.1818
 5540TIP3    H138183   0.503   1.614   2.229 -0.8967 -0.3499 -0.1116
 5540TIP3    H238184   0.436   1.724   2.150 -0.7969 -0.6955 -0.6824
 5541TIP3   OH238185   5.202   3.434   1.988  0.1855  0.0032  0.2354
 5541TIP3    H138186   5.132   3.415   1.926 -0.3847  0.1163  0.8372
 5541TIP3    H238187   5.266   3.363   1.974 -0.4907 -0.6343  0.3370
 5542TIP3   OH238188   3.254   3.063   7.450 -0.5380 -0.1162  0.6354
 5542TIP3    H138189   3.196   3.088   7.521  1.3829  2.0156  1.5647
 5542TIP3    H238190   3.237   3.126   7.380  1.5491  1.4984  1.4701
 5543TIP3   OH238191   4.448   2.637   7.926 -0.1515  0.1024 -0.2912
 5543TIP3    H138192   4.442   2.648   7.831  0.9321 -2.2642 -0.6968
 5543TIP3    H238193   4.541   2.624   7.943  0.0197  2.9587  1.4766
 5544TIP3   OH238194   0.254   2.299   0.022  0.4429 -0.3947  0.1320
 5544TIP3    H138195   0.338   2.293  -0.023 -0.7831  1.6492 -2.8107
 5544TIP3    H238196   0.264   2.373   0.082  0.1870  1.5120 -2.0063
 5545TIP3   OH238197   5.460   6.617   6.944  0.2880 -0.6133 -0.5254
 5545TIP3    H138198   5.442   6.705   6.913  1.0904 -0.5753 -0.8935
 5545TIP3    H238199   5.520   6.580   6.880  1.6189 -0.7023  0.7174
 5546TIP3   OH238200   4.268   2.337   1.783  0.2702  0.4304 -0.1002
 5546TIP3    H138201   4.339   2.282   1.750  1.4009  0.1749  2.5188
 5546TIP3    H238202   4.271   2.415   1.728  1.0260 -0.5683 -1.5389
 5547TIP3   OH238203   5.016   1.860   1.701 -0.7750 -0.6230  0.2680
 5547TIP3    H138204   4.949   1.869   1.634  0.2325 -0.3799 -0.7250
 5547TIP3    H238205   5.039   1.767   1.701  0.8454 -0.2809 -1.3775
 5548TIP3   OH238206   4.145   2.038   6.204 -0.1065  0.1597  0.2995
 5548TIP3    H138207   4.160   2.132   6.193  0.8369  0.0021  0.1813
 5548TIP3    H238208   4.170   2.000   6.120  0.1074 -0.2632  0.5519
 5549TIP3   OH238209   6.637   3.563   8.066  0.4709  0.5100 -0.5565
 5549TIP3    H138210   6.695   3.503   8.113 -0.4159  0.5102  0.5783
 5549TIP3    H238211   6.687   3.588   7.988  2.5672  1.5726  1.0237
 5550TIP3   OH238212   2.753   5.800   2.745  0.8556  0.7427 -0.2998
 5550TIP3    H138213   2.684   5.857   2.778  0.6148 -0.5007  1.5112
 5550TIP3    H238214   2.729   5.783   2.654  0.1913  2.3552 -0.4536
 5551TIP3   OH238215   0.001   4.334   0.621  0.9233 -0.1372  0.0657
 5551TIP3    H138216   0.031   4.281   0.547  1.1927  0.0681  0.0220
 5551TIP3    H238217  -0.078   4.291   0.652  0.7572 -0.1777 -0.4001
 5552TIP3   OH238218   4.500   5.146   7.334  0.0151 -0.0237  0.5571
 5552TIP3    H138219   4.526   5.175   7.247 -1.0369  1.1077  0.5876
 5552TIP3    H238220   4.528   5.217   7.393 -0.2998 -0.2407  0.9787
 5553TIP3   OH238221   3.121   1.530   7.393 -0.5071  0.2122 -0.1552
 5553TIP3    H138222   3.174   1.547   7.471  3.7040  0.0874 -2.6806
 5553TIP3    H238223   3.060   1.603   7.389  1.1844  1.8291  1.6972
 5554TIP3   OH238224   2.963   5.604   7.204  0.1596  0.0722  0.0145
 5554TIP3    H138225   3.016   5.536   7.163 -0.5007 -0.2739 -0.2724
 5554TIP3    H238226   2.995   5.608   7.294 -0.1834 -1.0227  0.1920
 5555TIP3   OH238227   0.139   2.061   7.950  0.3750 -0.2658 -0.0735
 5555TIP3    H138228   0.200   2.134   7.957 -0.8713  0.7452  0.7164
 5555TIP3    H238229   0.053   2.100   7.966 -0.4615 -1.6862 -0.9037
 5556TIP3   OH238230   6.442   4.434   8.617  0.5237 -0.4187 -0.9238
 5556TIP3    H138231   6.400   4.409   8.535 -0.5692 -1.3071 -0.1171
 5556TIP3    H238232   6.488   4.515   8.596 -0.8374  0.1036 -2.0846
 5557TIP3   OH238233   5.927   2.146   8.597  0.1836 -0.2355 -0.1761
 5557TIP3    H138234   5.888   2.085   8.534 -0.5380  2.5985 -2.7254
 5557TIP3    H238235   6.016   2.115   8.610 -0.4124 -2.2626 -0.6891
 5558TIP3   OH238236   6.695   3.469   1.176 -0.0083 -0.6237  0.6065
 5558TIP3    H138237   6.618   3.434   1.220  0.5714 -1.4549  0.9818
 5558TIP3    H238238   6.768   3.445   1.232  0.4723  0.7866  0.6219
 5559TIP3   OH238239   3.234   1.189   7.328 -0.2122 -0.0450  0.6812
 5559TIP3    H138240   3.316   1.236   7.341  0.6076 -0.8133 -1.3172
 5559TIP3    H238241   3.178   1.250   7.280 -0.3255 -0.0022  0.8647
 5560TIP3   OH238242   3.530   3.053   6.837  0.0823  0.1779 -0.8031
 5560TIP3    H138243   3.524   3.054   6.933 -0.5672 -2.1370 -0.7364
 5560TIP3    H238244   3.446   3.015   6.809  1.7233 -2.9314 -1.9821
 5561TIP3   OH238245   0.024   0.891   6.973  0.1895  0.0847 -0.3417
 5561TIP3    H138246  -0.068   0.866   6.965  0.0993 -0.7198  2.2807
 5561TIP3    H238247   0.072   0.808   6.974  0.5294  0.2440  1.9220
 5562TIP3   OH238248   6.090   1.888   2.067  0.1724 -0.0624 -0.1744
 5562TIP3    H138249   6.034   1.928   2.001  0.2311  1.6424  0.7590
 5562TIP3    H238250   6.036   1.819   2.106 -0.7229  0.5371 -0.3344
 5563TIP3   OH238251   3.128   6.021   7.688  0.3718 -0.5383  0.1049
 5563TIP3    H138252   3.076   5.989   7.762 -0.2373 -0.8330 -0.4366
 5563TIP3    H238253   3.093   5.974   7.612  1.2304 -0.5083 -0.3171
 5564TIP3   OH238254   3.048   1.680   7.026 -0.1900 -0.4500 -1.0454
 5564TIP3    H138255   2.965   1.727   7.023 -0.0571 -0.1827 -0.6978
 5564TIP3    H238256   3.094   1.707   6.946 -0.7053 -1.1171 -1.5748
 5565TIP3   OH238257   2.813   2.937   1.252 -0.6521  0.3226 -0.0079
 5565TIP3    H138258   2.775   2.865   1.202 -0.6307  0.5339 -0.3380
 5565TIP3    H238259   2.907   2.919   1.252 -0.8340 -0.8543  1.8577
 5566TIP3   OH238260   2.192   0.923   8.449  0.4508 -0.0074  0.0407
 5566TIP3    H138261   2.266   0.982   8.435  1.4363 -1.3428 -0.5669
 5566TIP3    H238262   2.226   0.856   8.508 -0.9973  0.6098  1.6712
 5567TIP3   OH238263   0.275   0.897   7.677 -0.3605  0.0919 -0.4198
 5567TIP3    H138264   0.274   0.913   7.772 -0.6456  1.6783 -0.6668
 5567TIP3    H238265   0.274   0.802   7.670 -0.6050 -0.0644  1.1766
 5568TIP3   OH238266   1.409   3.889   7.856 -0.1883 -0.0532 -0.0444
 5568TIP3    H138267   1.392   3.917   7.767  0.1492 -0.8363 -0.3676
 5568TIP3    H238268   1.445   3.800   7.847 -0.9534 -0.4777  0.9105
 5569TIP3   OH238269   5.254   5.070   7.502  0.0972  0.0549  0.3688
 5569TIP3    H138270   5.251   5.147   7.445  0.5954  0.0274  0.3060
 5569TIP3    H238271   5.346   5.060   7.524 -0.2805  1.5086  3.1114
 5570TIP3   OH238272   2.243   2.909   0.686 -0.4276 -0.2940 -0.1585
 5570TIP3    H138273   2.174   2.949   0.632 -0.9130 -1.5821 -0.5292
 5570TIP3    H238274   2.302   2.982   0.707 -2.4311  1.0807  1.0389
 5571TIP3   OH238275   1.752   6.552   7.419  0.3763  0.4271  0.0584
 5571TIP3    H138276   1.693   6.606   7.471  0.2466 -0.9321  1.3723
 5571TIP3    H238277   1.697   6.481   7.386  0.9015  0.1351 -0.2090
 5572TIP3   OH238278   2.372   4.497   7.244 -0.2297  0.6164 -0.0221
 5572TIP3    H138279   2.355   4.495   7.338 -0.1706  0.2005 -0.0187
 5572TIP3    H238280   2.406   4.410   7.223 -0.5212  0.6055 -0.4805
 5573TIP3   OH238281   3.040   0.454   0.051  0.3320  0.1334 -0.5422
 5573TIP3    H138282   3.003   0.412  -0.027  1.1326  0.5534 -1.1660
 5573TIP3    H238283   2.987   0.421   0.123  0.7839 -1.7603 -1.0274
 5574TIP3   OH238284   2.030   1.471   8.237 -0.2605  0.7355  0.1732
 5574TIP3    H138285   2.114   1.476   8.192 -1.2432  0.6831 -1.7529
 5574TIP3    H238286   2.053   1.467   8.330  1.8259  1.3919 -0.2635
 5575TIP3   OH238287   4.200   2.973   7.572 -0.1828  0.0757 -0.1900
 5575TIP3    H138288   4.201   2.878   7.562 -0.4771  0.1260 -0.7470
 5575TIP3    H238289   4.110   2.994   7.597  0.0481  0.1482  0.6072
 5576TIP3   OH238290   2.934   4.742   8.426  0.4986  0.5003 -0.6914
 5576TIP3    H138291   3.028   4.732   8.435  0.5187  0.3218 -1.1070
 5576TIP3    H238292   2.898   4.669   8.477  0.6050 -0.0598 -1.4048
 5577TIP3   OH238293   0.917   6.317   7.527 -0.6831  0.0917  0.2137
 5577TIP3    H138294   0.976   6.391   7.542 -1.5189  0.6158  1.0607
 5577TIP3    H238295   0.833   6.357   7.503 -1.1390 -0.5690  0.6554
 5578TIP3   OH238296   5.237   0.454   7.900 -0.1872  0.7604  0.6214
 5578TIP3    H138297   5.193   0.388   7.953  1.8928 -2.3747 -1.2657
 5578TIP3    H238298   5.289   0.504   7.963  0.0607 -1.0068  1.8952
 5579TIP3   OH238299   0.871   0.803   2.208  0.5038  0.5394  0.1982
 5579TIP3    H138300   0.923   0.821   2.286  0.4026 -2.1783  0.9892
 5579TIP3    H238301   0.788   0.849   2.223  0.8667  0.8780  1.2341
 5580TIP3   OH238302   6.642   6.702   0.120  0.3245 -0.2511 -0.1181
 5580TIP3    H138303   6.711   6.667   0.176  0.8221  1.1832  0.2262
 5580TIP3    H238304   6.572   6.726   0.182 -0.1729 -0.9725 -0.3862
 5581TIP3   OH238305   2.728   5.112   0.224 -0.1399  0.1512  0.0821
 5581TIP3    H138306   2.693   5.176   0.285 -1.6748  1.1273 -1.7106
 5581TIP3    H238307   2.652   5.079   0.177  1.0896  0.6157 -2.3910
 5582TIP3   OH238308   1.109   6.391   8.159 -0.6472  0.5647  0.3477
 5582TIP3    H138309   1.022   6.430   8.165 -0.3804  1.2024  0.1286
 5582TIP3    H238310   1.127   6.388   8.065 -0.0316  1.3466  0.4309
 5583TIP3   OH238311   2.161   0.060   1.405  0.0654  0.2765 -0.9493
 5583TIP3    H138312   2.230   0.014   1.357  1.7115  1.1891  0.4266
 5583TIP3    H238313   2.149   0.009   1.485  0.5166  1.1232 -0.3196
 5584TIP3   OH238314   5.731   4.611   0.648 -0.3896 -0.4108  0.5220
 5584TIP3    H138315   5.738   4.703   0.623 -2.4483 -0.1999  0.5174
 5584TIP3    H238316   5.801   4.597   0.712 -0.0661  1.1547  0.5394
 5585TIP3   OH238317   5.789   5.617   0.688 -0.4187 -0.5341 -0.6140
 5585TIP3    H138318   5.807   5.669   0.610  0.4282  0.6957  0.3681
 5585TIP3    H238319   5.698   5.638   0.710 -0.3787 -0.1887 -0.7672
 5586TIP3   OH238320   5.416   4.379   0.897 -0.0106  0.1606  0.0187
 5586TIP3    H138321   5.350   4.391   0.965 -1.1077 -1.9662 -0.5836
 5586TIP3    H238322   5.491   4.341   0.943 -1.1451 -2.3266 -0.0232
 5587TIP3   OH238323   5.689   0.680   7.510 -0.1093  0.4472  0.1751
 5587TIP3    H138324   5.618   0.622   7.482 -0.4764  1.3422 -0.8449
 5587TIP3    H238325   5.769   0.635   7.484 -0.3787  0.2458 -0.3279
 5588TIP3   OH238326   4.602   1.423   1.259  0.7054  0.0368 -0.1748
 5588TIP3    H138327   4.654   1.388   1.332 -0.5631 -1.2966  0.1320
 5588TIP3    H238328   4.515   1.435   1.296  0.4306  0.9229 -1.0637
 5589TIP3   OH238329   6.344   1.527   1.752  0.1465  0.0154 -0.9961
 5589TIP3    H138330   6.261   1.508   1.708 -0.7912  1.3041  0.1418
 5589TIP3    H238331   6.340   1.620   1.772  0.5827 -0.4475  1.6106
 5590TIP3   OH238332   6.550   3.935   0.947 -0.8182  0.3408 -0.7814
 5590TIP3    H138333   6.577   3.871   1.014 -2.1200 -1.1291 -1.6004
 5590TIP3    H238334   6.632   3.975   0.919  0.1744 -1.5981 -0.8391
 5591TIP3   OH238335   6.435   2.295   7.730 -0.1828  0.3936  0.0790
 5591TIP3    H138336   6.349   2.338   7.735 -2.3907 -3.6236  1.5590
 5591TIP3    H238337   6.462   2.286   7.821  1.6610  1.2151 -0.3563
 5592TIP3   OH238338   3.259   1.355   6.880  0.4317 -0.7919 -0.0244
 5592TIP3    H138339   3.244   1.405   6.961 -0.6524  1.0536 -1.2965
 5592TIP3    H238340   3.350   1.374   6.857  0.0160  0.7040 -0.5232
 5593TIP3   OH238341   0.768   6.565   8.023 -0.3199 -0.7802 -0.7502
 5593TIP3    H138342   0.834   6.631   8.045 -2.3734  0.3558  2.5811
 5593TIP3    H238343   0.729   6.598   7.942  0.6962  0.4885 -0.7719
 5594TIP3   OH238344   0.537   4.153   8.485  0.4398  0.3061 -0.1854
 5594TIP3    H138345   0.504   4.226   8.432  1.0134  0.0490 -0.9199
 5594TIP3    H238346   0.627   4.140   8.453  0.0922 -1.2181 -0.5982
 5595TIP3   OH238347   1.285   6.251   7.208 -0.3713  0.0248 -0.1055
 5595TIP3    H138348   1.192   6.259   7.187 -0.3280 -1.2416 -0.8808
 5595TIP3    H238349   1.330   6.305   7.143 -0.4412 -1.2819 -1.2806
 5596TIP3   OH238350   4.485   3.173   7.255 -0.2910 -0.1848 -0.3586
 5596TIP3    H138351   4.539   3.178   7.334 -2.0372  1.0720  0.8138
 5596TIP3    H238352   4.528   3.232   7.193  0.5302 -0.4004 -0.0097
 5597TIP3   OH238353   1.302   4.564   0.003 -0.0493  0.5062  0.0604
 5597TIP3    H138354   1.330   4.546  -0.087 -0.4622 -1.2981  0.2417
 5597TIP3    H238355   1.225   4.508   0.016  1.3476 -1.0948  2.2518
 5598TIP3   OH238356   2.003   3.106   0.043  0.3630 -0.0067 -0.1817
 5598TIP3    H138357   2.017   3.193   0.080 -1.6253 -0.2814  1.3821
 5598TIP3    H238358   2.012   3.118  -0.051  1.3069  1.6380  0.0888
 5599TIP3   OH238359   1.696   5.717   1.613 -0.3618  0.0570  0.2678
 5599TIP3    H138360   1.623   5.779   1.617  0.7945  1.4283  1.4668
 5599TIP3    H238361   1.731   5.715   1.703  1.7002  0.2834 -0.4598
 5600TIP3   OH238362   3.744   5.606   0.963  0.5071  0.0002 -0.7888
 5600TIP3    H138363   3.744   5.635   1.054  0.8209  0.4191 -0.9161
 5600TIP3    H238364   3.696   5.675   0.917  0.3771 -0.1945 -0.9411
 5601TIP3   OH238365   1.125   0.289   8.521  0.0707  0.4445 -0.2039
 5601TIP3    H138366   1.036   0.274   8.554 -0.3572  0.5297 -1.2717
 5601TIP3    H238367   1.120   0.266   8.428  0.9632  1.2204 -0.4569
 5602TIP3   OH238368   4.705   0.754   7.758  0.3021 -0.3425  0.2801
 5602TIP3    H138369   4.732   0.797   7.677  2.0389  0.6745  1.3173
 5602TIP3    H238370   4.764   0.679   7.767 -1.2055 -1.6535 -0.3572
 5603TIP3   OH238371   6.304   1.263   8.665  0.4839  0.1994  0.4424
 5603TIP3    H138372   6.371   1.329   8.680  0.1294  0.3974  1.2405
 5603TIP3    H238373   6.344   1.201   8.605 -0.0043  2.4229 -2.4014
 5604TIP3   OH238374   2.373   0.205   7.158  0.1334  0.1325  0.2377
 5604TIP3    H138375   2.448   0.213   7.098  1.6949  0.3691  2.1387
 5604TIP3    H238376   2.329   0.290   7.153 -0.6566 -0.3251 -1.6189
 5605TIP3   OH238377   4.061   1.233   0.757 -0.2766  0.2783 -0.1703
 5605TIP3    H138378   4.142   1.282   0.744 -0.6381  0.5992 -1.3586
 5605TIP3    H238379   4.063   1.206   0.849 -0.4642  3.2562  0.8032
 5606TIP3   OH238380   5.904   1.148   8.312  0.1315  0.0058 -0.1820
 5606TIP3    H138381   5.931   1.212   8.247 -0.1591  0.3869  0.0629
 5606TIP3    H238382   5.955   1.070   8.293 -0.6503 -0.2111 -1.4713
 5607TIP3   OH238383   5.592   1.256   1.250 -0.5371  0.0288  1.1573
 5607TIP3    H138384   5.685   1.243   1.270 -0.0484  1.4513  0.0582
 5607TIP3    H238385   5.552   1.280   1.334 -0.2687 -2.1060  1.9550
 5608TIP3   OH238386   3.734   6.629   8.085 -0.3573 -0.4136  0.0847
 5608TIP3    H138387   3.729   6.564   8.014 -1.0180 -1.9778  1.4756
 5608TIP3    H238388   3.824   6.661   8.082 -0.3947 -0.3619 -1.5113
 5609TIP3   OH238389   5.559   4.012   7.416 -0.6690  0.6796 -0.2884
 5609TIP3    H138390   5.648   4.024   7.447 -0.9213 -0.8498  1.1290
 5609TIP3    H238391   5.564   4.029   7.322  1.0879  0.6826 -0.2272
 5610TIP3   OH238392   6.711   6.772   8.035 -0.0527  0.7499 -0.3242
 5610TIP3    H138393   6.726   6.711   7.963 -0.4965 -1.1327  1.0977
 5610TIP3    H238394   6.781   6.753   8.097 -0.8109  0.9123  0.6102
 5611TIP3   OH238395   2.686   0.506   7.037 -0.0109  0.5944 -0.0602
 5611TIP3    H138396   2.666   0.415   7.014 -0.2251  0.9298 -1.2876
 5611TIP3    H238397   2.630   0.558   6.980  0.6127  1.5035  0.1333
 5612TIP3   OH238398   5.469   5.101   8.028 -0.4774 -0.1684  0.6040
 5612TIP3    H138399   5.562   5.087   8.010 -0.4825  0.5546 -0.0496
 5612TIP3    H238400   5.426   5.085   7.944 -0.9096 -0.1699  0.8237
 5613TIP3   OH238401   1.937   5.727   8.149  0.8588  0.1233  0.1098
 5613TIP3    H138402   1.868   5.661   8.160  0.5479  0.4597  0.2010
 5613TIP3    H238403   2.017   5.676   8.140  0.5166 -0.3103 -0.6871
 5614TIP3   OH238404   3.342   2.019   0.423 -0.2249 -0.0224 -0.0609
 5614TIP3    H138405   3.350   2.063   0.508 -2.5404  0.9120 -0.2418
 5614TIP3    H238406   3.255   1.978   0.426  0.1150 -0.9123 -1.5675
 5615TIP3   OH238407   0.965   2.102   1.784 -0.7168 -0.0858  0.2766
 5615TIP3    H138408   0.969   2.017   1.741 -1.0162 -0.0253  0.1234
 5615TIP3    H238409   1.020   2.093   1.862  0.4113  0.0255 -0.4818
 5616TIP3   OH238410   4.144   4.774   0.335 -0.0408 -0.2201  0.4640
 5616TIP3    H138411   4.051   4.769   0.358 -0.8135  0.2797 -2.2363
 5616TIP3    H238412   4.190   4.751   0.416 -2.5009 -0.6918  1.8186
 5617TIP3   OH238413   2.514   5.741   0.302 -0.1332 -0.2413  0.7412
 5617TIP3    H138414   2.596   5.756   0.256 -0.4406 -0.0479  0.2436
 5617TIP3    H238415   2.453   5.713   0.233 -0.4939 -0.3518  1.0987
 5618TIP3   OH238416   2.842   1.685   0.832 -0.4701 -0.6897 -1.2945
 5618TIP3    H138417   2.843   1.590   0.840 -1.1612 -0.5632  1.0151
 5618TIP3    H238418   2.766   1.703   0.776 -1.2976 -1.4678 -0.4648
 5619TIP3   OH238419   4.032   5.956   0.115 -0.4382  0.0074 -0.0918
 5619TIP3    H138420   3.958   6.017   0.115 -1.4967 -1.2049 -0.1646
 5619TIP3    H238421   3.999   5.879   0.162  0.0742 -1.3391 -1.8184
 5620TIP3   OH238422   2.751   2.444   8.619 -0.7448 -0.2974 -0.2025
 5620TIP3    H138423   2.816   2.449   8.549  0.1470  0.1446  0.6487
 5620TIP3    H238424   2.678   2.396   8.579 -0.0844 -0.4292 -1.3030
 5621TIP3   OH238425   2.059   4.227   8.772  0.0717 -0.0912  0.1761
 5621TIP3    H138426   2.079   4.149   8.823 -1.3248 -0.1235  0.7309
 5621TIP3    H238427   1.967   4.246   8.792  0.2748  1.4943 -0.2178
 5622TIP3   OH238428   1.361   6.093   8.649  0.3110 -0.8093 -0.2116
 5622TIP3    H138429   1.401   6.116   8.565  0.2133  1.2376  0.2522
 5622TIP3    H238430   1.350   5.998   8.645  2.5429 -1.0820 -1.5211
 5623TIP3   OH238431   3.241   5.030   2.079 -0.6994  0.2759  0.1218
 5623TIP3    H138432   3.264   4.939   2.097  0.7567  0.1235 -2.1887
 5623TIP3    H238433   3.145   5.032   2.081 -0.7205 -0.7992  2.2680
 5624TIP3   OH238434   1.940   2.309   0.052  0.2016  0.2430  0.0063
 5624TIP3    H138435   2.016   2.358   0.083  0.9261  1.8812 -3.7812
 5624TIP3    H238436   1.968   2.218   0.055  1.6880  0.6764  0.3239
 5625TIP3   OH238437   1.048   0.706   0.694 -0.2329  0.3982  0.0009
 5625TIP3    H138438   1.118   0.746   0.641 -0.4237 -0.9866 -1.3559
 5625TIP3    H238439   0.968   0.726   0.646 -0.2471 -2.4714 -1.3719
 5626TIP3   OH238440   3.927   6.368   1.754 -0.4999  0.4708  0.4852
 5626TIP3    H138441   3.878   6.328   1.825 -1.2413  0.4222 -0.0362
 5626TIP3    H238442   4.007   6.401   1.795 -0.4122 -0.5107  1.1339
 5627TIP3   OH238443   6.577   6.794   1.157 -0.3079 -0.6711  0.0592
 5627TIP3    H138444   6.635   6.862   1.123  0.3948  0.4955  3.2558
 5627TIP3    H238445   6.489   6.829   1.142  0.0228  0.5497  0.8034
 5628TIP3   OH238446   3.071   4.363   8.731 -0.0652 -0.0944 -0.6776
 5628TIP3    H138447   3.003   4.304   8.766 -0.6661  0.1750 -1.3843
 5628TIP3    H238448   3.152   4.312   8.739 -0.3591 -0.4644  0.0681
 5629TIP3   OH238449   2.062   3.332   0.196  0.5531  0.3411 -0.5206
 5629TIP3    H138450   1.983   3.306   0.245  0.9263  0.1873  0.0119
 5629TIP3    H238451   2.103   3.398   0.252  0.7278  0.5219 -0.8637
 5630TIP3   OH238452   1.730   0.213   1.524 -0.2906  0.0865  0.2369
 5630TIP3    H138453   1.821   0.244   1.519  0.4639 -1.5441  2.3547
 5630TIP3    H238454   1.728   0.138   1.464  0.1285 -0.6121  1.0748
 5631TIP3   OH238455   4.242   0.964   1.657  0.3352 -0.3274  0.0709
 5631TIP3    H138456   4.181   0.957   1.584 -1.6493 -0.4684  1.6512
 5631TIP3    H238457   4.266   1.057   1.659 -1.3726  0.1488  0.5331
 5632TIP3   OH238458   4.643   6.010   7.520 -0.3055  1.1020 -0.4818
 5632TIP3    H138459   4.718   6.034   7.573  0.5152  0.0854 -1.1368
 5632TIP3    H238460   4.588   5.958   7.579  0.6929 -0.1841 -0.6221
 5633TIP3   OH238461   0.869   4.739   1.873 -0.1200 -0.2364 -0.4033
 5633TIP3    H138462   0.916   4.816   1.906  1.8601 -0.6550 -2.0256
 5633TIP3    H238463   0.914   4.717   1.791 -0.9495 -2.8086 -0.2576
 5634TIP3   OH238464   1.448   1.845   0.151 -0.2853  0.4837  0.2109
 5634TIP3    H138465   1.495   1.891   0.081 -1.8360  0.1572 -1.0930
 5634TIP3    H238466   1.516   1.792   0.193  0.3409 -1.0805 -2.5124
 5635TIP3   OH238467   5.283   0.774   0.740 -0.7120 -0.8553  0.2801
 5635TIP3    H138468   5.308   0.823   0.819  1.5687  0.0988 -0.9360
 5635TIP3    H238469   5.238   0.839   0.686 -0.8149 -1.0674  0.1121
 5636TIP3   OH238470   4.099   6.470   1.972 -0.6681  0.2511  0.1668
 5636TIP3    H138471   4.056   6.530   2.033  0.1907  0.2880  0.7433
 5636TIP3    H238472   4.157   6.417   2.027  0.9021  0.9729 -0.7124
 5637TIP3   OH238473   3.534   4.423   1.462  0.6887  0.1920  0.4295
 5637TIP3    H138474   3.620   4.409   1.425  0.8296  2.1518 -0.1126
 5637TIP3    H238475   3.484   4.466   1.392 -1.0046 -1.5999  0.4506
 5638TIP3   OH238476   1.708   3.638   8.083  0.0704  0.1541  0.2216
 5638TIP3    H138477   1.756   3.563   8.117 -0.1185 -0.4820 -0.8510
 5638TIP3    H238478   1.721   3.634   7.988 -1.0405  0.6930  0.0223
 5639TIP3   OH238479   4.715   6.739   8.609 -0.0962 -0.6206 -0.4263
 5639TIP3    H138480   4.711   6.646   8.632  1.4424 -0.1397  2.2276
 5639TIP3    H238481   4.804   6.752   8.576  0.4166  0.2242  1.1658
 5640TIP3   OH238482   3.396   4.280   7.216 -0.2460  0.3507 -0.1847
 5640TIP3    H138483   3.411   4.204   7.160  0.5466  0.5087 -0.1999
 5640TIP3    H238484   3.399   4.246   7.305 -0.5908  0.2531 -0.2083
 5641TIP3   OH238485   2.665   3.861   8.540  0.4322  0.3692  0.7100
 5641TIP3    H138486   2.681   3.837   8.632 -0.3394 -0.6318  0.6002
 5641TIP3    H238487   2.737   3.820   8.492  0.4922  0.3758  0.7928
 5642TIP3   OH238488   0.949   4.207   2.251  0.2041  0.0126 -0.3633
 5642TIP3    H138489   1.027   4.254   2.282 -0.1688 -0.1026  0.8030
 5642TIP3    H238490   0.983   4.122   2.222  0.4215 -0.4286  1.0850
 5643TIP3   OH238491   0.890   5.888   1.731  0.0365 -0.7168 -0.2711
 5643TIP3    H138492   0.961   5.835   1.693  1.9572  0.2925  1.7214
 5643TIP3    H238493   0.903   5.975   1.694 -1.9657 -1.0845 -2.0563
 5644TIP3   OH238494   1.198   1.737   7.397  0.1353  0.2669 -0.1600
 5644TIP3    H138495   1.122   1.796   7.400  0.0682  0.2549 -1.2498
 5644TIP3    H238496   1.236   1.743   7.485  1.1931  3.3617 -0.7018
 5645TIP3   OH238497   1.857   6.061   1.765 -0.6029 -0.4490 -0.0927
 5645TIP3    H138498   1.802   6.010   1.825 -2.0638  1.4487  0.2860
 5645TIP3    H238499   1.796   6.124   1.725  1.2076  1.4619 -0.0045
 5646TIP3   OH238500   3.707   2.820   6.499  0.0780  0.6341  0.7349
 5646TIP3    H138501   3.624   2.817   6.452 -0.7141  2.7259  1.8269
 5646TIP3    H238502   3.717   2.733   6.537 -0.8181 -0.1269 -0.6993
 5647TIP3   OH238503   2.495   6.616   0.525  0.2488  0.9416 -0.2967
 5647TIP3    H138504   2.571   6.566   0.554 -1.0937 -1.0048  0.0915
 5647TIP3    H238505   2.501   6.616   0.429  0.4449  0.3099 -0.2872
 5648TIP3   OH238506   1.570   1.492   8.196  0.5421 -0.0913 -0.3909
 5648TIP3    H138507   1.554   1.566   8.254  0.4754 -0.2822 -0.1619
 5648TIP3    H238508   1.502   1.498   8.129 -0.2359 -0.6457  0.3286
 5649TIP3   OH238509   2.601   0.724   7.211  0.3258  0.7927 -0.0498
 5649TIP3    H138510   2.577   0.674   7.289  0.2129  0.5369 -0.2489
 5649TIP3    H238511   2.616   0.658   7.143  1.3365  0.9578 -0.0023
 5650TIP3   OH238512   4.000   6.355   8.298  0.3046 -0.2870  0.0752
 5650TIP3    H138513   4.044   6.360   8.212 -1.0089 -1.2519 -0.6826
 5650TIP3    H238514   4.063   6.308   8.353  1.1617  0.3204 -0.3503
 5651TIP3   OH238515   2.996   4.387   2.366  0.2606 -0.1029 -0.2502
 5651TIP3    H138516   3.050   4.374   2.444  0.2767  1.3115  0.0089
 5651TIP3    H238517   3.046   4.349   2.295  1.6574  1.2010 -0.0235
 5652TIP3   OH238518   1.868   6.800   7.745  0.4032 -0.1728 -0.6493
 5652TIP3    H138519   1.915   6.869   7.791  0.0446  0.2716 -0.9372
 5652TIP3    H238520   1.782   6.798   7.788 -1.0059  2.2048 -3.0613
 5653TIP3   OH238521   6.279   3.718   1.170 -0.1152 -0.9049  0.3162
 5653TIP3    H138522   6.271   3.804   1.128  3.5036  0.9687  2.8699
 5653TIP3    H238523   6.315   3.661   1.103 -1.0543 -0.0059 -0.9911
 5654TIP3   OH238524   1.693   4.826   7.535  0.3583 -0.1854  0.6796
 5654TIP3    H138525   1.704   4.791   7.446 -0.0574  1.8431 -0.2208
 5654TIP3    H238526   1.622   4.889   7.527  1.6007  1.4801  1.9905
 5655TIP3   OH238527   0.103   5.367   7.172 -0.0663 -0.2435  0.7541
 5655TIP3    H138528   0.016   5.364   7.134  0.9225 -1.8488 -1.6041
 5655TIP3    H238529   0.118   5.279   7.206  1.8647 -1.1940 -2.1365
 5656TIP3   OH238530   0.181   4.980   1.464 -0.0944 -0.0448  0.3915
 5656TIP3    H138531   0.160   4.889   1.486  0.2960  0.0366  1.1341
 5656TIP3    H238532   0.228   5.013   1.540  2.5394 -0.1457 -1.0635
 5657TIP3   OH238533   0.852   5.590   1.375  0.6398  0.3550 -0.2411
 5657TIP3    H138534   0.898   5.511   1.349  0.1304  0.1466 -0.5201
 5657TIP3    H238535   0.762   5.576   1.347  0.1457  0.2807  1.2943
 5658TIP3   OH238536   3.066   5.969   1.441 -0.2799 -0.2412  0.0061
 5658TIP3    H138537   3.019   5.917   1.376  2.2252 -0.3229 -1.8709
 5658TIP3    H238538   3.156   5.973   1.409  0.8545  0.6683  2.9242
 5659TIP3   OH238539   5.365   1.088   7.486  0.0477 -0.0088 -0.1744
 5659TIP3    H138540   5.413   1.132   7.557 -0.9227  0.4786  0.1936
 5659TIP3    H238541   5.306   1.154   7.452 -1.0336 -0.8598 -0.0019
 5660TIP3   OH238542   2.305   4.071   8.820 -0.1794 -0.1180 -0.6005
 5660TIP3    H138543   2.313   4.157   8.861 -0.5483 -0.7949  0.9334
 5660TIP3    H238544   2.392   4.032   8.827  0.2388  0.4502 -2.1266
 5661TIP3   OH238545   0.345   3.456   8.401  0.0104  0.1016  0.3892
 5661TIP3    H138546   0.318   3.427   8.489  1.1800 -0.5915  0.5551
 5661TIP3    H238547   0.278   3.422   8.342  0.7463 -2.0517  0.7131
 5662TIP3   OH238548   0.310   2.908   1.699 -0.0006  0.1023  0.2826
 5662TIP3    H138549   0.362   2.968   1.753 -0.0614  0.5651 -0.1729
 5662TIP3    H238550   0.266   2.964   1.635 -2.7463  0.0122  1.9256
 5663TIP3   OH238551   0.932   2.580   0.423  0.1461 -0.2691 -0.2716
 5663TIP3    H138552   0.967   2.669   0.431  1.0920 -0.5678 -0.9504
 5663TIP3    H238553   0.937   2.545   0.512 -0.2282  0.3492  0.0030
 5664TIP3   OH238554   3.804   2.189   7.393  0.1583 -0.8987 -0.0503
 5664TIP3    H138555   3.730   2.249   7.385  0.1792 -0.7898  0.5853
 5664TIP3    H238556   3.807   2.166   7.485 -0.0150 -2.0933 -0.3261
 5665TIP3   OH238557   3.394   0.574   1.235 -0.6601 -0.2669 -0.2607
 5665TIP3    H138558   3.354   0.547   1.317 -1.4353  0.8600 -0.2525
 5665TIP3    H238559   3.323   0.616   1.186 -0.6861 -2.3926 -2.2474
 5666TIP3   OH238560   3.603   4.822   2.127 -0.3962 -0.2839 -0.2119
 5666TIP3    H138561   3.636   4.877   2.056  2.0902 -1.2399  0.1064
 5666TIP3    H238562   3.622   4.871   2.206  0.6042 -0.9787 -0.0048
 5667TIP3   OH238563   4.728   5.041   8.529  0.0095  0.3248  0.4156
 5667TIP3    H138564   4.811   5.021   8.573 -0.0152  1.7509  1.1716
 5667TIP3    H238565   4.734   4.995   8.445  0.6719 -1.2783  1.2925
 5668TIP3   OH238566   4.101   2.147   7.951 -0.0689  0.3499 -0.3558
 5668TIP3    H138567   4.184   2.133   7.997  0.2156  2.3759 -0.1606
 5668TIP3    H238568   4.062   2.060   7.945  1.5796 -0.4950  0.4813
 5669TIP3   OH238569   0.026   2.262   2.277  0.1133  0.6353 -0.2759
 5669TIP3    H138570   0.098   2.214   2.236 -0.5960  0.7027 -1.6616
 5669TIP3    H238571  -0.034   2.195   2.308  0.5362  0.5887  0.4606
 5670TIP3   OH238572   4.605   4.886   7.632 -0.0328  0.7729  0.0472
 5670TIP3    H138573   4.618   4.841   7.716  0.8312 -1.8048 -1.3378
 5670TIP3    H238574   4.520   4.856   7.601 -0.1645  1.3722 -0.1770
 5671TIP3   OH238575   1.012   5.346   7.858  0.3022  0.1456 -0.3029
 5671TIP3    H138576   1.099   5.359   7.896  0.4071  0.7468 -0.7314
 5671TIP3    H238577   0.952   5.376   7.926  0.5174  2.0178 -0.8847
 5672TIP3   OH238578   5.843   0.359   1.748 -0.1720 -0.3321 -0.7213
 5672TIP3    H138579   5.872   0.278   1.706 -1.1267 -0.7948 -0.5231
 5672TIP3    H238580   5.874   0.352   1.838  1.1492  0.2767 -1.1089
 5673TIP3   OH238581   5.403   3.351   7.727 -0.2934  0.2780 -0.2156
 5673TIP3    H138582   5.428   3.288   7.795  0.0665  0.6320 -0.0194
 5673TIP3    H238583   5.315   3.380   7.752 -0.1330  0.4624  0.1380
 5674TIP3   OH238584   0.881   2.823   1.039 -0.0804 -0.7767 -0.5630
 5674TIP3    H138585   0.828   2.822   0.959 -1.4459 -0.1494  0.2950
 5674TIP3    H238586   0.817   2.823   1.110  1.0794  0.2994  0.5226
 5675TIP3   OH238587   2.356   4.212   7.284 -0.2004 -0.2564  0.2151
 5675TIP3    H138588   2.277   4.195   7.334 -0.0652 -0.6725  0.2939
 5675TIP3    H238589   2.427   4.196   7.346 -0.0650  0.5095  0.2599
 5676TIP3   OH238590   4.176   5.764   1.636 -0.0976 -0.4976  0.1016
 5676TIP3    H138591   4.182   5.760   1.540  0.8530 -1.5372  0.1696
 5676TIP3    H238592   4.083   5.755   1.654 -0.2647 -0.5851 -0.7256
 5677TIP3   OH238593   6.795   5.127   8.305  0.0864 -0.4088  0.3333
 5677TIP3    H138594   6.733   5.200   8.303 -1.3288 -1.4612  2.2519
 5677TIP3    H238595   6.868   5.159   8.358  1.0387  0.6575 -1.5064
 5678TIP3   OH238596   4.984   1.911   0.224  0.6015 -0.0049  0.2059
 5678TIP3    H138597   5.064   1.923   0.173 -0.3135  1.8584 -0.8927
 5678TIP3    H238598   4.989   1.976   0.293  0.3885 -0.4159  0.6102
 5679TIP3   OH238599   2.243   4.269   1.566 -0.2846 -0.2985 -0.2674
 5679TIP3    H138600   2.334   4.262   1.536  0.2125  0.1056  1.0491
 5679TIP3    H238601   2.248   4.250   1.660 -1.2684  1.5687  0.1998
 5680TIP3   OH238602   2.498   4.896   7.322  0.3999  0.1587  0.6311
 5680TIP3    H138603   2.497   4.810   7.279  0.7731  1.1096 -1.3974
 5680TIP3    H238604   2.446   4.884   7.401  0.3842 -1.9121  0.3559
 5681TIP3   OH238605   0.976   1.839   1.724 -0.6624 -0.2724  0.2809
 5681TIP3    H138606   0.886   1.819   1.700 -0.7186 -0.4364  0.6195
 5681TIP3    H238607   1.001   1.770   1.785  0.0928 -0.8833 -0.7012
 5682TIP3   OH238608   1.559   3.631   8.709 -0.3614 -0.5327 -0.0831
 5682TIP3    H138609   1.473   3.593   8.692 -1.2063  0.7387  1.0905
 5682TIP3    H238610   1.618   3.587   8.648 -1.4395 -2.9494  0.4836
 5683TIP3   OH238611   0.424   2.926   1.324  0.1365  0.0537 -0.2428
 5683TIP3    H138612   0.377   2.843   1.313 -1.1306  0.6911  0.2453
 5683TIP3    H238613   0.362   2.983   1.369 -0.0725  2.1980 -3.0223
 5684TIP3   OH238614   5.780   2.291   6.067  0.8846  0.7955  0.3348
 5684TIP3    H138615   5.749   2.202   6.082  0.7692  0.9064  0.7388
 5684TIP3    H238616   5.819   2.288   5.979  0.1546  0.5480  0.0144
 5685TIP3   OH238617   5.724   0.304   7.999 -0.0628 -0.3763 -0.4166
 5685TIP3    H138618   5.803   0.293   8.053 -0.3560 -1.3501 -0.1576
 5685TIP3    H238619   5.664   0.237   8.031 -0.2487 -0.9941 -1.9623
 5686TIP3   OH238620   2.372   2.013   8.317  0.0122  0.6411 -0.1078
 5686TIP3    H138621   2.284   2.037   8.288 -0.0974  0.3896  0.0173
 5686TIP3    H238622   2.375   1.918   8.310  0.5491  0.7074 -0.8725
 5687TIP3   OH238623   6.217   5.074   7.484 -0.1550 -0.2029  0.8179
 5687TIP3    H138624   6.238   4.983   7.462  1.2166  0.4019 -0.6089
 5687TIP3    H238625   6.132   5.090   7.443  0.4909 -0.3093 -0.6173
 5688TIP3   OH238626   3.532   2.166   8.591 -0.5137 -0.1722  0.4402
 5688TIP3    H138627   3.523   2.234   8.658  0.4158 -0.0785  0.4884
 5688TIP3    H238628   3.533   2.084   8.641 -0.1183 -0.1206  0.5234
 5689TIP3   OH238629   0.242   0.684   7.286 -0.0944 -0.1917 -0.1925
 5689TIP3    H138630   0.202   0.597   7.281  1.0713 -0.8614  1.3289
 5689TIP3    H238631   0.334   0.670   7.265  0.0061  0.7649 -0.4467
 5690TIP3   OH238632   3.187   0.263   1.501 -0.3261  0.2296 -0.7170
 5690TIP3    H138633   3.208   0.170   1.508 -1.8096 -0.1467 -0.7934
 5690TIP3    H238634   3.118   0.267   1.435  0.1016  1.4618 -1.1192
 5691TIP3   OH238635   4.083   2.592   8.737 -0.3985 -0.4175 -0.2149
 5691TIP3    H138636   4.066   2.502   8.763 -0.8637  0.3903  2.6282
 5691TIP3    H238637   4.148   2.624   8.800 -0.6102  1.3720 -0.8338
 5692TIP3   OH238638   2.810   2.882   7.623  0.6017 -0.0392 -0.4356
 5692TIP3    H138639   2.821   2.789   7.643  0.3930 -0.2173 -1.1097
 5692TIP3    H238640   2.895   2.921   7.641  1.1728 -0.6616 -1.7033
 5693TIP3   OH238641   6.081   4.764   1.390 -0.4059 -0.5018  0.3954
 5693TIP3    H138642   6.145   4.835   1.387 -2.4576  1.4585 -0.3041
 5693TIP3    H238643   6.123   4.695   1.441  2.5108  0.3510 -0.6842
 5694TIP3   OH238644   6.459   6.802   0.337  0.5938  0.4371  0.0425
 5694TIP3    H138645   6.493   6.796   0.426  0.1916  0.7708  0.2267
 5694TIP3    H238646   6.459   6.896   0.318  0.9818  0.3428 -0.4326
 5695TIP3   OH238647   2.906   3.754   1.609  0.1929  0.3584 -0.1900
 5695TIP3    H138648   2.863   3.756   1.695  0.0265  0.5681 -0.2780
 5695TIP3    H238649   2.984   3.808   1.621  0.4948 -0.1177  0.0029
 5696TIP3   OH238650   5.594   6.453   6.784  0.0883  0.1775 -0.3220
 5696TIP3    H138651   5.611   6.495   6.700  2.1292 -0.4119 -0.2535
 5696TIP3    H238652   5.626   6.364   6.774  0.4606  0.1227  1.0915
 5697TIP3   OH238653   6.078   1.527   6.100 -0.0716 -0.4568 -0.3197
 5697TIP3    H138654   6.083   1.514   6.195  0.4128 -2.0306 -0.5201
 5697TIP3    H238655   6.004   1.473   6.072 -0.7881  0.7139 -0.7495
 5698TIP3   OH238656   4.071   0.165   1.264  0.1717  0.2861 -0.2903
 5698TIP3    H138657   4.021   0.247   1.257 -0.3741  0.0773  0.9592
 5698TIP3    H238658   4.101   0.162   1.355  3.6918  1.0500 -1.2725
 5699TIP3   OH238659   0.736   5.097   7.027  0.5806 -0.0987 -0.0145
 5699TIP3    H138660   0.671   5.167   7.020  2.1084  1.4302  0.4052
 5699TIP3    H238661   0.749   5.085   7.121  1.0450 -0.2329 -0.0907
 5700TIP3   OH238662   0.179   5.777   0.665  0.1480  0.0541  0.6570
 5700TIP3    H138663   0.200   5.868   0.685  1.8241  0.2852 -1.7045
 5700TIP3    H238664   0.199   5.729   0.746  1.4606  1.5006  1.2351
 5701TIP3   OH238665   3.453   6.401   8.053  0.1589 -0.2519  0.0429
 5701TIP3    H138666   3.527   6.390   8.113  1.0823  0.9817 -0.8121
 5701TIP3    H238667   3.406   6.478   8.086 -1.0361 -1.2779  0.8298
 5702TIP3   OH238668   4.381   1.701   7.060 -0.5473 -0.5662  0.2362
 5702TIP3    H138669   4.464   1.723   7.018  0.0082 -1.6239  0.7456
 5702TIP3    H238670   4.362   1.777   7.116 -0.3943  0.0659 -0.5479
 5703TIP3   OH238671   6.676   4.643   0.167  0.2483  0.4751 -0.1504
 5703TIP3    H138672   6.723   4.634   0.084  0.5359  1.0488 -0.0534
 5703TIP3    H238673   6.694   4.732   0.196  1.4392 -0.2019  1.3086
 5704TIP3   OH238674   0.931   6.266   8.616  0.2171 -0.1803 -0.3712
 5704TIP3    H138675   0.876   6.200   8.575 -0.8953  1.4705 -1.6374
 5704TIP3    H238676   0.998   6.286   8.550 -0.4369  1.1128 -0.6672
 5705TIP3   OH238677   5.753   0.419   8.348  0.1037  0.8985 -0.0823
 5705TIP3    H138678   5.783   0.347   8.293 -1.5410 -0.1918  0.3797
 5705TIP3    H238679   5.741   0.380   8.434 -2.2059  1.3301 -0.1475
 5706TIP3   OH238680   1.370   1.627   0.885 -0.4127  0.2149  0.3359
 5706TIP3    H138681   1.334   1.540   0.871 -0.0051 -0.1972  1.6725
 5706TIP3    H238682   1.420   1.646   0.806 -0.6437 -0.6886 -0.0339
 5707TIP3   OH238683   6.441   0.843   8.577 -0.1634 -0.0113  0.1496
 5707TIP3    H138684   6.412   0.753   8.591 -0.3549 -0.0309 -0.3666
 5707TIP3    H238685   6.401   0.892   8.648 -2.4797  0.1823 -1.2004
 5708TIP3   OH238686   1.973   0.038   1.209 -0.2190 -0.6965  0.2345
 5708TIP3    H138687   2.049   0.034   1.152 -1.2563 -2.3424 -1.1592
 5708TIP3    H238688   2.008   0.060   1.295  1.5490  0.5947 -0.7504
 5709TIP3   OH238689   3.145   3.788   1.150  0.1859 -0.0111 -0.8510
 5709TIP3    H138690   3.051   3.770   1.161  0.5319 -0.8585  1.2355
 5709TIP3    H238691   3.182   3.703   1.126  0.6495 -0.1417  0.2598
 5710TIP3   OH238692   6.795   2.498   7.192  0.6631 -0.5896 -0.4599
 5710TIP3    H138693   6.824   2.569   7.248 -0.6093 -1.1236  0.9315
 5710TIP3    H238694   6.733   2.538   7.131  2.1022  0.0027 -1.5986
 5711TIP3   OH238695   3.298   0.779   1.561  0.4253 -0.0133 -0.4186
 5711TIP3    H138696   3.348   0.725   1.622 -0.9415 -0.7436  0.1005
 5711TIP3    H238697   3.220   0.726   1.540 -0.0157  0.9702 -1.3958
 5712TIP3   OH238698   0.519   0.669   0.496 -0.7472 -0.5236  0.3659
 5712TIP3    H138699   0.480   0.721   0.425  2.7547 -0.5804 -1.8473
 5712TIP3    H238700   0.487   0.580   0.480 -0.0258 -0.5301 -1.2001
 5713TIP3   OH238701   3.729   6.577   1.322  0.1259  0.1229 -1.1125
 5713TIP3    H138702   3.692   6.503   1.370 -0.6236  0.7966 -0.6208
 5713TIP3    H238703   3.788   6.619   1.384  1.9755 -1.0632 -1.9543
 5714TIP3   OH238704   3.205   0.317   2.035  0.6897  0.1688  0.3958
 5714TIP3    H138705   3.205   0.296   1.942  1.5971  0.7443  0.2549
 5714TIP3    H238706   3.160   0.401   2.040  0.3526 -0.0168  0.5207
 5715TIP3   OH238707   5.895   2.110   1.526 -0.0531  0.1742  0.1512
 5715TIP3    H138708   5.915   2.171   1.455 -0.4424  0.6050  0.4065
 5715TIP3    H238709   5.953   2.136   1.598  0.0124  0.0347  0.1493
 5716TIP3   OH238710   0.839   4.370   0.818  0.5854 -0.1346 -0.2940
 5716TIP3    H138711   0.771   4.424   0.857  1.1487  0.7353 -0.4856
 5716TIP3    H238712   0.914   4.429   0.807  1.5819 -1.2000  0.4698
 5717TIP3   OH238713   0.091   5.755   8.074  0.0764 -0.7513 -0.3242
 5717TIP3    H138714   0.063   5.774   7.985  1.6450 -1.3869 -0.9822
 5717TIP3    H238715   0.089   5.840   8.119 -1.2448 -0.5181 -0.7825
 5718TIP3   OH238716   2.812   6.718   2.520 -0.3741  0.4438  0.2060
 5718TIP3    H138717   2.725   6.758   2.514 -0.2792  0.7425  0.7413
 5718TIP3    H238718   2.796   6.624   2.510 -0.5674  0.6075 -1.3545
 5719TIP3   OH238719   1.661   5.409   7.123  0.1349 -0.3440  0.1513
 5719TIP3    H138720   1.591   5.451   7.172  2.1263  1.9205  1.3015
 5719TIP3    H238721   1.693   5.477   7.064  1.7695 -1.0656  0.1382
 5720TIP3   OH238722   2.951   5.672   0.167  0.8082 -0.0302  0.5198
 5720TIP3    H138723   2.888   5.603   0.145  1.3006 -0.3453  0.0878
 5720TIP3    H238724   2.960   5.667   0.262  0.4444 -0.2111  0.5465
 5721TIP3   OH238725   5.497   5.832   0.728  0.4874  0.5370 -0.1996
 5721TIP3    H138726   5.417   5.843   0.780  0.8813  1.9502  0.1298
 5721TIP3    H238727   5.475   5.871   0.643  1.4265  2.7544  0.5147
 5722TIP3   OH238728   6.076   5.565   7.948  0.3115 -0.0485 -0.2829
 5722TIP3    H138729   6.070   5.647   7.898  1.0066  0.5046  0.5204
 5722TIP3    H238730   6.047   5.498   7.886 -0.7777  0.8577 -0.7927
 5723TIP3   OH238731   3.417   4.594   2.301 -0.6112  0.1189 -0.0446
 5723TIP3    H138732   3.409   4.524   2.236  1.1119  0.9963 -1.2851
 5723TIP3    H238733   3.511   4.599   2.320 -0.7497  1.7552  0.3870
 5724TIP3   OH238734   6.823   4.616   8.782 -0.4465  0.0778 -0.3047
 5724TIP3    H138735   6.822   4.698   8.733  0.1583  0.0147 -0.4323
 5724TIP3    H238736   6.855   4.551   8.720 -0.7733 -0.2273 -0.1575
 5725TIP3   OH238737   0.425   1.078   8.109 -0.1903  0.1027  0.0986
 5725TIP3    H138738   0.457   1.037   8.190 -1.8649 -0.8819  0.3048
 5725TIP3    H238739   0.363   1.145   8.140  0.5966  1.0539 -0.3309
 5726TIP3   OH238740   4.061   3.634   1.350 -0.0209 -0.1518 -0.3172
 5726TIP3    H138741   4.036   3.572   1.418  2.4272 -2.1534 -1.0547
 5726TIP3    H238742   4.035   3.719   1.383 -0.7358 -1.2598  2.1706
 5727TIP3   OH238743   4.524   3.598   7.257  0.4473 -0.3755  0.2413
 5727TIP3    H138744   4.492   3.521   7.305 -0.5326 -0.5177 -0.5882
 5727TIP3    H238745   4.545   3.662   7.325 -1.9512 -0.1600  0.8937
 5728TIP3   OH238746   3.993   5.204   1.675 -0.5055 -0.1255  0.0065
 5728TIP3    H138747   3.943   5.276   1.714  0.0985  0.1406  0.2907
 5728TIP3    H238748   3.938   5.127   1.689 -1.7962  0.4594 -1.4909
 5729TIP3   OH238749   0.984   0.686   6.623 -0.3285  0.6499  0.4368
 5729TIP3    H138750   0.925   0.754   6.654 -0.9075  0.3834 -0.0611
 5729TIP3    H238751   1.028   0.725   6.547  1.2155  1.3640  1.6543
 5730TIP3   OH238752   4.643   1.194   7.655 -0.0783  0.1932  0.5712
 5730TIP3    H138753   4.682   1.132   7.718  0.6322 -0.1480 -0.1882
 5730TIP3    H238754   4.712   1.258   7.638  0.1571 -0.3625 -0.7169
 5731TIP3   OH238755   4.785   1.713   1.013  0.2503  0.2635 -0.0428
 5731TIP3    H138756   4.712   1.764   1.047  0.4020 -0.9120  2.3027
 5731TIP3    H238757   4.759   1.622   1.030  2.0634 -0.1871  0.4511
 5732TIP3   OH238758   5.491   5.002   8.532 -0.0309 -0.1700  0.0134
 5732TIP3    H138759   5.504   4.930   8.470  0.3975 -0.1864  0.1196
 5732TIP3    H238760   5.558   4.989   8.598  0.2407  0.5020 -0.1260
 5733TIP3   OH238761   2.203   6.434   7.736 -0.1130  0.0635  0.6356
 5733TIP3    H138762   2.145   6.489   7.684  0.3281  0.7137  0.8227
 5733TIP3    H238763   2.267   6.401   7.673 -1.1871 -1.3927  0.2488
 5734TIP3   OH238764   3.894   4.830   0.225 -0.4987  0.1863 -0.0860
 5734TIP3    H138765   3.864   4.909   0.272  1.2196  0.8109  0.0287
 5734TIP3    H238766   3.873   4.848   0.134 -3.1720 -0.7095  0.2710
 5735TIP3   OH238767   3.571   2.791   1.083 -0.2045  0.8665 -0.1116
 5735TIP3    H138768   3.536   2.715   1.130 -1.7781  0.2878 -2.1012
 5735TIP3    H238769   3.554   2.865   1.142 -2.5205  0.2381  0.0929
 5736TIP3   OH238770   3.419   2.170   6.302  0.2922 -0.2456  0.0772
 5736TIP3    H138771   3.483   2.126   6.246 -0.0129 -0.1661 -0.3389
 5736TIP3    H238772   3.344   2.187   6.244  1.0854  2.4545 -0.2798
 5737TIP3   OH238773   5.505   2.634   8.248 -0.3415 -0.4942  0.4463
 5737TIP3    H138774   5.462   2.695   8.188  0.5407 -0.3112 -0.0089
 5737TIP3    H238775   5.495   2.674   8.334  0.0356  0.1928  0.1762
 5738TIP3   OH238776   1.386   4.724   0.848  0.4676  0.1213  0.3356
 5738TIP3    H138777   1.413   4.789   0.782  0.1988 -2.0399 -2.0981
 5738TIP3    H238778   1.387   4.772   0.931 -0.5092  3.4176 -1.3690
 5739TIP3   OH238779   2.622   0.842   0.417 -0.2753 -0.2248  0.8895
 5739TIP3    H138780   2.715   0.819   0.422 -0.0788  0.5727  1.0028
 5739TIP3    H238781   2.622   0.935   0.394 -1.0522 -0.4053  0.1132
 5740TIP3   OH238782   4.551   3.180   8.416  0.1334  0.5045  1.0281
 5740TIP3    H138783   4.481   3.238   8.384 -0.6123 -1.4779 -1.2000
 5740TIP3    H238784   4.535   3.174   8.510 -2.4405  0.5064  0.6687
 5741TIP3   OH238785   4.071   2.640   8.014 -0.4704 -0.2934 -0.5248
 5741TIP3    H138786   4.137   2.708   8.026  0.0269 -0.9049  0.2994
 5741TIP3    H238787   4.001   2.683   7.966 -0.2984  0.9003  0.2465
 5742TIP3   OH238788   1.898   4.852   0.014  0.3586  0.6475 -0.1195
 5742TIP3    H138789   1.856   4.934   0.037  1.8078  2.0707 -2.2164
 5742TIP3    H238790   1.851   4.822  -0.065  2.3941  1.6513 -1.7861
 5743TIP3   OH238791   0.621   0.460   1.846  0.0661  0.6521 -0.8282
 5743TIP3    H138792   0.559   0.516   1.892  0.1487  0.4179 -0.4262
 5743TIP3    H238793   0.706   0.479   1.887 -0.1682 -1.0484  0.5602
 5744TIP3   OH238794   3.229   4.970   7.133  0.0426  0.3025  0.1417
 5744TIP3    H138795   3.182   4.903   7.084 -0.3975  1.4413 -1.0776
 5744TIP3    H238796   3.271   4.923   7.204  0.9985 -1.5178 -1.5218
 5745TIP3   OH238797   1.083   3.512   0.710 -0.2215 -0.3628  0.0517
 5745TIP3    H138798   1.035   3.435   0.740 -0.9002 -0.0075 -0.1059
 5745TIP3    H238799   1.161   3.516   0.766  0.3767 -1.7619 -0.6294
 5746TIP3   OH238800   3.766   1.941   1.196 -0.5737 -0.8586  0.0422
 5746TIP3    H138801   3.842   1.887   1.219 -1.0069 -0.6169  2.3057
 5746TIP3    H238802   3.787   1.976   1.109  1.5558 -1.4001  0.2716
 5747TIP3   OH238803   5.429   1.716   0.317 -0.0123 -0.0801  0.3100
 5747TIP3    H138804   5.428   1.768   0.398 -1.0536  2.5837 -1.3003
 5747TIP3    H238805   5.337   1.691   0.304 -0.1963  1.1539 -0.9826
 5748TIP3   OH238806   2.537   0.404   7.564  0.5504 -0.8494  0.2780
 5748TIP3    H138807   2.501   0.452   7.638 -1.0684 -1.0640 -0.3177
 5748TIP3    H238808   2.560   0.318   7.599  3.1543  0.1721  1.2775
 5749TIP3   OH238809   2.109   6.297   7.944 -0.3715  0.7593  0.4034
 5749TIP3    H138810   2.165   6.351   8.000  0.0520  0.2583  0.4812
 5749TIP3    H238811   2.147   6.306   7.856  0.3566 -0.2137  0.5877
 5750TIP3   OH238812   5.739   3.828   0.894 -0.3821  0.0600 -0.3764
 5750TIP3    H138813   5.817   3.843   0.948  0.1114  1.4155 -1.4000
 5750TIP3    H238814   5.757   3.746   0.848 -0.7165 -1.0038  1.2828
 5751TIP3   OH238815   1.909   3.340   0.801 -0.2693 -0.1459  0.6820
 5751TIP3    H138816   1.882   3.407   0.864  1.7726  0.0103  1.4516
 5751TIP3    H238817   1.826   3.301   0.772 -1.3824  1.1150  1.9575
 5752TIP3   OH238818   1.001   0.418   0.967  0.2547  0.6896  0.1248
 5752TIP3    H138819   0.977   0.508   0.985  1.1197  1.0508 -0.4191
 5752TIP3    H238820   1.017   0.379   1.053 -1.6063  0.5995  0.4585
 5753TIP3   OH238821   5.405   6.525   2.136  0.1196 -0.5370 -0.8754
 5753TIP3    H138822   5.385   6.527   2.042  1.4436 -1.3548 -1.2008
 5753TIP3    H238823   5.500   6.513   2.140  0.5094  2.1377  0.5615
 5754TIP3   OH238824   5.847   1.725   7.820 -0.1185  0.1221  0.2225
 5754TIP3    H138825   5.932   1.696   7.854 -0.4960 -1.4198 -0.0425
 5754TIP3    H238826   5.810   1.646   7.779 -2.0163  0.5512  1.0143
 5755TIP3   OH238827   4.098   2.283   1.993  0.1021  0.1813  0.6939
 5755TIP3    H138828   4.145   2.311   1.914 -0.3764  0.3724  0.4697
 5755TIP3    H238829   4.027   2.227   1.960 -0.2590  0.4749  0.9657
 5756TIP3   OH238830   4.729   6.645   6.131 -0.5374  0.5759  0.0315
 5756TIP3    H138831   4.675   6.567   6.145 -0.0685  0.0124 -1.0815
 5756TIP3    H238832   4.816   6.610   6.110  0.3504  1.4580  1.9568
 5757TIP3   OH238833   2.976   5.001   2.127  0.6045  0.2143  0.0473
 5757TIP3    H138834   2.942   5.069   2.185  1.3946  0.2646  0.4664
 5757TIP3    H238835   2.981   4.923   2.182 -0.9185 -0.3787 -0.6002
 5758TIP3   OH238836   5.175   1.585   7.775 -0.0827 -0.1626 -0.0380
 5758TIP3    H138837   5.235   1.621   7.710  0.1395 -1.0237 -0.3196
 5758TIP3    H238838   5.146   1.501   7.738 -2.8568  1.0016 -0.7692
 5759TIP3   OH238839   2.521   2.301   8.793 -0.5830  0.6271 -0.1619
 5759TIP3    H138840   2.444   2.358   8.783 -0.8208  0.4738  0.7401
 5759TIP3    H238841   2.574   2.345   8.860  0.8043  1.4540 -1.7302
 5760TIP3   OH238842   3.854   6.392   7.926  0.1193  0.3508 -0.6756
 5760TIP3    H138843   3.945   6.392   7.954  0.8426 -0.4213 -2.8654
 5760TIP3    H238844   3.847   6.468   7.868 -1.2081  1.6120  1.0208
 5761TIP3   OH238845   6.534   6.179   7.750 -0.5769  0.1646 -0.3794
 5761TIP3    H138846   6.467   6.132   7.800 -0.3331 -1.1597 -1.2559
 5761TIP3    H238847   6.484   6.241   7.696 -1.1111 -0.6533 -0.8556
 5762TIP3   OH238848   2.072   2.598   0.394 -0.1606  0.3830 -0.4442
 5762TIP3    H138849   2.138   2.665   0.374  0.3090  0.2493  0.5712
 5762TIP3    H238850   2.002   2.613   0.330  1.8401 -0.9381 -3.1272
 5763TIP3   OH238851   1.838   1.555   0.968  0.1173  0.3554  0.2731
 5763TIP3    H138852   1.932   1.575   0.966  0.1996 -0.0382 -1.9030
 5763TIP3    H238853   1.796   1.641   0.978  0.6761  0.5861  0.7662
 5764TIP3   OH238854   0.784   4.640   2.266 -0.0250  0.1880  0.0473
 5764TIP3    H138855   0.873   4.632   2.231  0.8086  1.1849  1.7782
 5764TIP3    H238856   0.741   4.559   2.240  2.3265 -1.7097  1.5812
 5765TIP3   OH238857   5.280   0.698   0.240  0.2052 -0.3756  0.0867
 5765TIP3    H138858   5.343   0.697   0.312  2.0860  1.1582 -1.4288
 5765TIP3    H238859   5.202   0.739   0.277  0.4335 -1.3590  1.7428
 5766TIP3   OH238860   1.689   2.752   1.050  0.1054 -0.5331 -0.0498
 5766TIP3    H138861   1.609   2.805   1.058  0.7914  0.5717 -0.2330
 5766TIP3    H238862   1.667   2.669   1.092 -0.9153 -0.0047  0.5104
 5767TIP3   OH238863   1.870   6.330   6.798 -0.2885 -0.1966  0.1935
 5767TIP3    H138864   1.816   6.371   6.731  0.1109  0.1519  0.0808
 5767TIP3    H238865   1.807   6.296   6.862 -0.6266  0.5758  0.2842
 5768TIP3   OH238866   5.940   0.025   2.020 -0.6868  0.6063  0.1750
 5768TIP3    H138867   5.894  -0.014   2.094 -0.2529  2.4045  1.4812
 5768TIP3    H238868   5.876   0.085   1.981 -0.7200  0.1112 -0.5521
 5769TIP3   OH238869   2.080   5.009   6.875  0.1911  0.0133 -0.0460
 5769TIP3    H138870   2.090   5.028   6.968  0.5247  0.2800 -0.1307
 5769TIP3    H238871   1.989   5.028   6.855  0.0250 -0.4143  0.3087
 5770TIP3   OH238872   4.911   3.185   0.809 -0.5966 -0.0218  0.4310
 5770TIP3    H138873   4.950   3.253   0.864 -0.6493 -0.5046  1.0857
 5770TIP3    H238874   4.831   3.160   0.855  0.5301 -2.0959  1.4447
 5771TIP3   OH238875   4.636   0.520   1.882  0.9461  0.3666 -0.1129
 5771TIP3    H138876   4.601   0.534   1.970 -0.9323  0.4124 -0.8294
 5771TIP3    H238877   4.641   0.425   1.872 -1.8707  0.2436 -1.0315
 5772TIP3   OH238878   3.157   1.915   6.567 -0.0352 -0.1168 -0.4045
 5772TIP3    H138879   3.163   1.867   6.484  0.4267  2.3589 -1.8901
 5772TIP3    H238880   3.248   1.926   6.595 -0.1790 -0.7439  0.3593
 5773TIP3   OH238881   2.679   5.974   6.945 -0.3375 -0.1766 -0.0922
 5773TIP3    H138882   2.751   5.969   7.008 -1.5908 -1.3428  1.3375
 5773TIP3    H238883   2.711   5.926   6.868 -0.3265 -2.7232  1.3705
 5774TIP3   OH238884   6.431   0.878   6.935 -0.1817 -0.2696 -0.6638
 5774TIP3    H138885   6.421   0.921   7.021 -3.0864 -1.7671 -0.1402
 5774TIP3    H238886   6.386   0.936   6.874 -0.4119 -0.4850 -0.6998
 5775TIP3   OH238887   6.720   6.820   8.536  0.0774  0.1018  0.6508
 5775TIP3    H138888   6.639   6.770   8.549 -0.9364  1.0127 -1.6420
 5775TIP3    H238889   6.713   6.893   8.597 -1.3519  0.7082 -0.1844
 5776TIP3   OH238890   2.937   5.329   7.350  0.8729 -0.1025 -0.1509
 5776TIP3    H138891   2.851   5.356   7.382 -0.1090 -1.3859 -1.5560
 5776TIP3    H238892   2.997   5.349   7.422 -0.7862 -0.3387  1.3613
 5777TIP3   OH238893   5.993   2.363   1.211 -0.3200  0.7425  0.3220
 5777TIP3    H138894   6.086   2.352   1.189 -0.3365 -0.2756  0.7037
 5777TIP3    H238895   5.986   2.454   1.242  0.4892  0.9164  0.0206
 5778TIP3   OH238896   2.540   3.814   0.819  0.7113 -0.0249 -0.1763
 5778TIP3    H138897   2.629   3.780   0.825  0.8721 -0.1699 -2.4826
 5778TIP3    H238898   2.551   3.902   0.783 -0.0233  0.3968  0.6039
 5779TIP3   OH238899   0.329   2.322   8.027 -0.0059  0.0641 -0.6401
 5779TIP3    H138900   0.362   2.322   7.937 -1.4691  1.3323 -1.2285
 5779TIP3    H238901   0.268   2.396   8.030 -0.0812 -0.0248  1.3722
 5780TIP3   OH238902   6.740   1.493   7.895  0.0158 -0.1111  0.9940
 5780TIP3    H138903   6.766   1.546   7.970  0.1045 -1.1530  1.7122
 5780TIP3    H238904   6.777   1.406   7.912  0.5462 -0.2164 -0.5517
 5781TIP3   OH238905   1.967   6.067   2.068  0.2702 -0.0635 -0.6597
 5781TIP3    H138906   1.890   6.024   2.031 -0.0690 -0.3501  0.3360
 5781TIP3    H238907   2.005   6.001   2.126  1.3424  0.0368 -1.2291
 5782TIP3   OH238908   2.146   4.882   1.744 -0.1696  0.1322 -0.3005
 5782TIP3    H138909   2.104   4.922   1.819  0.7544  0.3177  0.1338
 5782TIP3    H238910   2.137   4.787   1.758 -0.2863  0.1706 -0.1209
 5783TIP3   OH238911   6.338   1.901   2.137  0.4307  0.2457  0.0478
 5783TIP3    H138912   6.247   1.897   2.107  0.1969 -1.3001  0.8728
 5783TIP3    H238913   6.334   1.944   2.222  0.4072 -0.1906  0.2708
 5784TIP3   OH238914   0.866   4.644   7.634 -0.7850 -0.4025  0.2023
 5784TIP3    H138915   0.824   4.714   7.684 -1.1582 -0.6047  0.1753
 5784TIP3    H238916   0.960   4.664   7.640 -0.9151  0.3843 -0.2311
 5785TIP3   OH238917   0.329   0.470   6.854 -0.3779  1.0194  0.1076
 5785TIP3    H138918   0.372   0.396   6.897 -2.0194 -0.0885 -0.0305
 5785TIP3    H238919   0.390   0.496   6.784  1.6220  1.8680  2.0608
 5786TIP3   OH238920   0.662   3.414   7.989  0.9096 -0.5636  0.0759
 5786TIP3    H138921   0.618   3.498   7.983 -0.0396 -1.1668 -2.0123
 5786TIP3    H238922   0.678   3.402   8.083  0.2145  1.4827  0.4939
 5787TIP3   OH238923   1.447   4.523   0.342 -0.1646  0.1802 -0.0930
 5787TIP3    H138924   1.475   4.439   0.306 -0.7309  0.1587 -0.4812
 5787TIP3    H238925   1.353   4.515   0.353 -0.1701  0.6293  0.2353
 5788TIP3   OH238926   6.191   3.143   7.872  0.2916  0.2033 -0.7982
 5788TIP3    H138927   6.193   3.052   7.843 -1.4092  0.3423 -1.4753
 5788TIP3    H238928   6.277   3.178   7.850 -0.3449 -0.1174 -4.3988
 5789TIP3   OH238929   1.518   6.048   1.347  0.4774  0.0252 -0.4832
 5789TIP3    H138930   1.463   6.123   1.370 -0.0380 -1.1194  2.4946
 5789TIP3    H238931   1.467   5.971   1.372  1.8737 -1.2552 -1.3805
 5790TIP3   OH238932   2.141   2.453   1.648 -0.0746  0.1351 -0.3361
 5790TIP3    H138933   2.185   2.489   1.571 -0.4703 -0.8584 -1.0455
 5790TIP3    H238934   2.207   2.458   1.718  0.5223  0.4201 -0.9069
 5791TIP3   OH238935   0.690   2.806   0.826  0.6665  0.2082 -0.7033
 5791TIP3    H138936   0.636   2.832   0.752  1.3265  0.4069 -1.1168
 5791TIP3    H238937   0.639   2.737   0.869  0.4901 -0.2306 -1.6018
 5792TIP3   OH238938   5.909   0.660   0.782  0.1305 -0.2190  0.3055
 5792TIP3    H138939   5.920   0.620   0.696  1.2207  0.0098  0.3290
 5792TIP3    H238940   5.874   0.590   0.836  1.4152 -0.9747  0.1850
 5793TIP3   OH238941   0.169   2.774   8.603 -0.3511  0.4191  0.2837
 5793TIP3    H138942   0.166   2.691   8.651  0.3940  0.8982  1.2069
 5793TIP3    H238943   0.142   2.840   8.668  0.5014  1.0628 -0.0005
 5794TIP3   OH238944   6.122   0.243   7.708  0.6413  0.2245 -0.7881
 5794TIP3    H138945   6.090   0.282   7.627  0.7723  1.0790 -0.4329
 5794TIP3    H238946   6.127   0.149   7.689  1.5078  0.5130 -2.0449
 5795TIP3   OH238947   2.087   2.470   8.256  0.4863 -0.3743  0.3100
 5795TIP3    H138948   2.163   2.486   8.312  0.5705 -1.9218  0.6557
 5795TIP3    H238949   2.068   2.377   8.265 -1.4721 -0.0287  0.2484
 5796TIP3   OH238950   5.769   2.772   1.609  0.1883  0.0308  0.1217
 5796TIP3    H138951   5.779   2.755   1.702 -0.8688  0.6267  0.3586
 5796TIP3    H238952   5.675   2.772   1.594  0.2738  1.7370 -0.5967
 5797TIP3   OH238953   5.023   1.650   6.803  0.8063 -0.2097 -0.4936
 5797TIP3    H138954   4.975   1.681   6.880  0.0394 -0.4606 -0.8533
 5797TIP3    H238955   4.960   1.658   6.731  0.1411 -3.5980 -0.4534
 5798TIP3   OH238956   0.886   0.676   8.443  0.3580  0.5464 -0.1513
 5798TIP3    H138957   0.956   0.734   8.414  0.9350  0.5254  1.1156
 5798TIP3    H238958   0.901   0.594   8.395  1.4438  0.4247  0.3600
 5799TIP3   OH238959   2.769   3.277   7.672  0.2619 -0.4930 -0.7199
 5799TIP3    H138960   2.723   3.194   7.683 -1.2468  0.3560 -0.2716
 5799TIP3    H238961   2.699   3.341   7.657  0.8903  1.4641  3.3470
 5800TIP3   OH238962   0.829   5.210   8.751  0.1783  0.1284 -0.0701
 5800TIP3    H138963   0.812   5.117   8.737 -0.8363  0.1380  0.9245
 5800TIP3    H238964   0.833   5.219   8.846  1.1455  0.9627 -0.1780
 5801TIP3   OH238965   1.590   0.561   1.061 -0.6054 -0.4754 -0.2421
 5801TIP3    H138966   1.571   0.477   1.104 -3.0628  0.9516  1.7136
 5801TIP3    H238967   1.673   0.546   1.016 -0.0542 -3.4281  1.4642
 5802TIP3   OH238968   4.395   3.226   8.085 -0.1335  0.1533  0.5553
 5802TIP3    H138969   4.456   3.295   8.059 -0.7893  0.5688  0.0893
 5802TIP3    H238970   4.312   3.251   8.046 -0.4528 -0.7616  0.6188
 5803TIP3   OH238971   5.764   1.097   1.551  0.3028  0.8916  0.2910
 5803TIP3    H138972   5.815   1.026   1.590  0.8100  1.3035  0.3767
 5803TIP3    H238973   5.729   1.060   1.470  0.8815  0.6624  0.1449
 5804TIP3   OH238974   3.278   3.674   1.771 -0.0119 -0.0665 -0.1212
 5804TIP3    H138975   3.231   3.594   1.746 -1.3752  0.2459  1.2625
 5804TIP3    H238976   3.363   3.644   1.800 -0.5145 -1.0356  0.3937
 5805TIP3   OH238977   4.319   0.723   6.888  0.4254  0.0740 -0.2726
 5805TIP3    H138978   4.266   0.773   6.826  0.9495  1.3003  0.2254
 5805TIP3    H238979   4.269   0.642   6.902 -0.9019  0.8199 -0.4455
 5806TIP3   OH238980   2.499   4.670   7.063  1.0437 -0.6060  0.6109
 5806TIP3    H138981   2.590   4.655   7.089  1.4342 -1.5562 -1.1485
 5806TIP3    H238982   2.451   4.594   7.097  0.5298  0.6893  2.9894
 5807TIP3   OH238983   3.481   4.193   0.133 -0.3468  0.2616  0.1633
 5807TIP3    H138984   3.478   4.097   0.127  0.3239  0.2658 -0.2927
 5807TIP3    H238985   3.571   4.213   0.160 -0.4216  0.7736  0.0512
 5808TIP3   OH238986   5.919   6.781   7.419 -0.0366 -0.4683  0.2416
 5808TIP3    H138987   5.908   6.826   7.335 -0.4508 -2.0698 -0.6109
 5808TIP3    H238988   5.996   6.726   7.407  0.0759 -0.4897  1.0234
 5809TIP3   OH238989   6.163   4.712   0.418 -0.1568 -0.1684  0.3767
 5809TIP3    H138990   6.130   4.749   0.500 -1.3338  0.4136 -0.3520
 5809TIP3    H238991   6.219   4.781   0.382 -0.8105  0.1620 -0.0238
 5810TIP3   OH238992   6.725   4.200   7.222 -0.4117 -0.5822  0.5095
 5810TIP3    H138993   6.769   4.284   7.215 -0.5115 -0.5975 -0.4035
 5810TIP3    H238994   6.653   4.205   7.160  0.1097 -1.6611 -0.2210
 5811TIP3   OH238995   6.752   0.505   6.756  0.0738 -0.8561  0.7416
 5811TIP3    H138996   6.688   0.559   6.709  0.5201 -2.2390 -1.6181
 5811TIP3    H238997   6.720   0.415   6.744  1.3401 -1.4097  1.3331
 5812TIP3   OH238998   2.360   2.862   8.808 -0.5199  0.5547 -0.0826
 5812TIP3    H138999   2.371   2.937   8.749 -1.5187  0.4065 -0.4672
 5812TIP3    H239000   2.267   2.862   8.830 -0.7844 -1.2710 -1.0281
 5813TIP3   OH239001   1.896   4.576   8.693  0.4814  0.1397  0.4983
 5813TIP3    H139002   1.903   4.543   8.783  0.0171  0.0408  0.4977
 5813TIP3    H239003   1.898   4.497   8.639 -3.8464 -0.2924  0.6150
 5814TIP3   OH239004   0.799   4.233   0.082  0.1542  0.6908  0.0197
 5814TIP3    H139005   0.795   4.324   0.113 -0.2453  0.3276  1.0516
 5814TIP3    H239006   0.710   4.216   0.050  0.3280  0.7708 -0.5267
 5815TIP3   OH239007   4.956   4.446   7.507 -0.8410 -0.0447 -0.1464
 5815TIP3    H139008   4.976   4.409   7.593  0.1259  1.4416  0.3033
 5815TIP3    H239009   4.939   4.539   7.524 -0.4898  0.3047 -1.5765
 5816TIP3   OH239010   3.205   4.020   7.040 -0.4026  0.3426 -0.1452
 5816TIP3    H139011   3.186   4.011   6.946  1.5768  1.6734 -0.7403
 5816TIP3    H239012   3.265   4.094   7.045 -1.8766  1.5045  2.4001
 5817TIP3   OH239013   1.171   5.720   1.688  0.3109 -0.3356  0.4120
 5817TIP3    H139014   1.128   5.657   1.746 -0.6746 -0.5458 -0.5011
 5817TIP3    H239015   1.185   5.672   1.607  0.2271  0.3994 -0.0454
 5818TIP3   OH239016   0.636   4.101   7.085 -0.2772  0.3725  0.3284
 5818TIP3    H139017   0.631   4.192   7.058  0.9932  0.2656 -0.3956
 5818TIP3    H239018   0.652   4.103   7.179  0.3437  0.9232  0.2148
 5819TIP3   OH239019   3.756   2.634   0.099 -0.1463  0.3404  0.3542
 5819TIP3    H139020   3.780   2.714   0.053 -1.4310  1.1994  1.1010
 5819TIP3    H239021   3.671   2.654   0.138  0.2399 -0.8402  1.8961
 5820TIP3   OH239022   6.808   0.035   7.167 -0.0946  0.6072 -0.0470
 5820TIP3    H139023   6.775   0.056   7.080 -0.7322 -0.3651 -0.0569
 5820TIP3    H239024   6.820   0.120   7.210  0.6063  1.1093 -1.2078
 5821TIP3   OH239025   1.830   2.811   0.684  0.4738  0.3627 -0.1507
 5821TIP3    H139026   1.872   2.848   0.761 -0.5972  0.7893  0.2559
 5821TIP3    H239027   1.866   2.861   0.611  1.4573 -0.0136  0.0706
 5822TIP3   OH239028   0.459   3.237   8.248  0.3040 -0.0687  0.1790
 5822TIP3    H139029   0.537   3.202   8.205  0.0083  0.5072 -0.8844
 5822TIP3    H239030   0.491   3.279   8.327  0.8966 -0.9889  0.4447
 5823TIP3   OH239031   4.129   4.531   0.661  0.5987 -0.4401 -0.0956
 5823TIP3    H139032   4.156   4.618   0.633  0.0081 -0.8490 -2.1008
 5823TIP3    H239033   4.088   4.544   0.746 -0.0076  1.3521 -0.6209
 5824TIP3   OH239034   2.442   5.638   8.336  0.6481 -0.2001 -0.3849
 5824TIP3    H139035   2.533   5.659   8.315  0.3280 -0.9447 -2.8753
 5824TIP3    H239036   2.401   5.723   8.354  1.7912  0.1430  0.7016
 5825TIP3   OH239037   2.849   0.779   1.881  0.8673 -0.0057  0.1047
 5825TIP3    H139038   2.847   0.784   1.976 -0.2785  0.1051  0.0937
 5825TIP3    H239039   2.783   0.712   1.859 -0.9187  1.9001 -0.6915
 5826TIP3   OH239040   4.532   4.571   0.694 -0.3907  0.3479 -0.4610
 5826TIP3    H139041   4.473   4.608   0.760 -0.4233  1.2328 -0.9734
 5826TIP3    H239042   4.492   4.486   0.671 -0.1767 -0.1565  0.9147
 5827TIP3   OH239043   4.302   1.525   6.853 -0.2184 -0.6244  0.3448
 5827TIP3    H139044   4.299   1.605   6.906  0.0746 -0.0260 -0.5165
 5827TIP3    H239045   4.394   1.500   6.852 -0.2675 -0.8071  0.3686
 5828TIP3   OH239046   0.761   5.868   7.514 -0.2557 -0.5030 -0.0332
 5828TIP3    H139047   0.682   5.917   7.493 -0.3936 -0.4463  0.6237
 5828TIP3    H239048   0.810   5.866   7.431 -0.2285  0.7643 -0.0614
 5829TIP3   OH239049   2.765   4.945   7.067 -0.1498 -0.0012 -0.4764
 5829TIP3    H139050   2.845   4.984   7.103 -0.9601 -0.6940  2.3500
 5829TIP3    H239051   2.794   4.864   7.026  0.6430 -0.1769  0.3998
 5830TIP3   OH239052   2.108   2.555   1.995  0.3947  0.1896 -0.6568
 5830TIP3    H139053   2.042   2.619   2.022 -0.1927 -0.5276 -0.3678
 5830TIP3    H239054   2.122   2.574   1.902 -0.4993  0.1120 -0.8173
 5831TIP3   OH239055   0.914   1.287   2.559  0.1564  0.7526  0.2669
 5831TIP3    H139056   0.953   1.317   2.641  1.2139 -0.1078  0.0968
 5831TIP3    H239057   0.915   1.192   2.565  0.8883  0.6610 -1.0292
 5832TIP3   OH239058   6.625   0.302   8.397  0.0660 -0.2017 -0.1897
 5832TIP3    H139059   6.530   0.292   8.406  0.1067 -2.6246 -1.5312
 5832TIP3    H239060   6.645   0.263   8.312  2.1006  1.7899 -0.7034
 5833TIP3   OH239061   3.498   6.736   1.293  0.0374 -0.4130 -0.9588
 5833TIP3    H139062   3.587   6.701   1.297  1.4807  2.9724 -0.3299
 5833TIP3    H239063   3.486   6.779   1.378 -1.5481  0.6511 -1.6953
 5834TIP3   OH239064   4.036   5.033   0.507  0.1114  0.1284  0.1617
 5834TIP3    H139065   3.958   5.028   0.451  0.3485  0.7491 -0.2330
 5834TIP3    H239066   4.089   5.101   0.467  3.0705 -3.2967 -2.4236
 5835TIP3   OH239067   6.200   4.190   1.785 -0.0726 -0.0630 -0.0849
 5835TIP3    H139068   6.229   4.099   1.786  1.0479  0.2847 -0.2669
 5835TIP3    H239069   6.280   4.242   1.787 -0.6700  0.9252 -0.7714
 5836TIP3   OH239070   4.729   5.673   0.971 -0.1897 -0.4163  0.1688
 5836TIP3    H139071   4.634   5.670   0.981 -0.1424  0.4804  0.9648
 5836TIP3    H239072   4.744   5.728   0.895 -0.3166 -0.7855 -0.1237
 5837TIP3   OH239073   6.361   6.383   7.625 -0.1932 -0.6882  0.3571
 5837TIP3    H139074   6.304   6.362   7.552 -0.1638  0.0506  0.1166
 5837TIP3    H239075   6.306   6.375   7.703 -0.4980 -0.4566  0.1646
 5838TIP3   OH239076   6.527   5.421   0.319 -0.1990  0.0034 -0.3803
 5838TIP3    H139077   6.610   5.462   0.297 -1.4422  2.7719 -0.2906
 5838TIP3    H239078   6.532   5.406   0.414 -0.8593  3.0880  0.2613
 5839TIP3   OH239079   1.065   2.399   8.616  0.2351  0.1628  0.3116
 5839TIP3    H139080   1.107   2.436   8.538 -0.0306 -0.0910  0.0492
 5839TIP3    H239081   1.013   2.326   8.583  0.6527 -0.3623  0.8166
 5840TIP3   OH239082   2.600   5.227   1.318 -0.3548  0.3907  0.2497
 5840TIP3    H139083   2.526   5.205   1.375  0.2949  0.3462  1.1041
 5840TIP3    H239084   2.675   5.231   1.378  0.3696  0.2265 -0.6357
 5841TIP3   OH239085   0.564   1.473   1.028  0.3857 -0.9299  0.3449
 5841TIP3    H139086   0.657   1.479   1.004 -0.1113  0.1073 -1.5490
 5841TIP3    H239087   0.527   1.414   0.963 -0.5760  0.0389 -0.0208
 5842TIP3   OH239088   5.020   3.463   8.751  0.6202 -0.2948 -0.8447
 5842TIP3    H139089   5.082   3.397   8.782  0.7285  0.3702  0.3916
 5842TIP3    H239090   5.009   3.522   8.825 -1.2935 -0.2438 -1.1372
 5843TIP3   OH239091   0.020   1.512   0.128  0.3712 -0.3539  0.5364
 5843TIP3    H139092  -0.015   1.480   0.211  2.4859  0.6330  1.8976
 5843TIP3    H239093   0.093   1.570   0.153  0.3200  0.9450 -1.9684
 5844TIP3   OH239094   0.854   5.270   6.588 -0.3617  0.4449 -0.1613
 5844TIP3    H139095   0.835   5.354   6.547  1.4331  0.4952 -0.9865
 5844TIP3    H239096   0.857   5.289   6.682 -0.2216  1.2440 -0.3224
 5845TIP3   OH239097   3.500   3.395   0.276  0.5642 -0.3485  0.1623
 5845TIP3    H139098   3.465   3.444   0.351  0.4231  2.1158 -1.4175
 5845TIP3    H239099   3.425   3.382   0.219  1.2084  0.4261 -0.8924
 5846TIP3   OH239100   3.140   5.588   8.677  0.2108 -0.1854  0.1978
 5846TIP3    H139101   3.147   5.530   8.601 -0.0827  1.2389 -0.9510
 5846TIP3    H239102   3.052   5.625   8.671 -0.1339 -0.6691  1.7305
 5847TIP3   OH239103   0.517   5.316   8.095  0.6232 -0.2695  0.0910
 5847TIP3    H139104   0.494   5.409   8.099  0.8095 -0.2613  1.3801
 5847TIP3    H239105   0.442   5.275   8.052 -0.0647  0.3109  0.7024
 5848TIP3   OH239106   2.043   2.231   6.863 -0.9858 -0.3727  0.2412
 5848TIP3    H139107   1.984   2.288   6.813  0.1280  1.0652  0.4870
 5848TIP3    H239108   2.001   2.223   6.949 -0.4046  1.4796  0.7526
 5849TIP3   OH239109   3.540   5.211   6.966 -0.0291  0.5987 -0.3885
 5849TIP3    H139110   3.593   5.199   6.887  0.4861 -0.4548  0.0998
 5849TIP3    H239111   3.571   5.294   7.004 -1.1113  1.7576 -1.8910
 5850TIP3   OH239112   5.451   0.048   1.526 -0.8443  0.2761 -0.5422
 5850TIP3    H139113   5.507   0.125   1.517  1.5558 -1.3984 -0.8455
 5850TIP3    H239114   5.474   0.010   1.611 -1.3840 -0.5516 -0.7500
 5851TIP3   OH239115   0.787   4.147   0.964  0.1341 -0.3570  0.2386
 5851TIP3    H139116   0.693   4.150   0.951 -0.0179  0.9162  1.4274
 5851TIP3    H239117   0.822   4.213   0.904 -0.0090  1.0811  1.6716
 5852TIP3   OH239118   5.418   3.560   0.884  0.2917  0.0170  0.5078
 5852TIP3    H139119   5.325   3.558   0.906  0.2916  0.8415  0.5942
 5852TIP3    H239120   5.451   3.474   0.911 -0.3122 -0.0466  1.0578
 5853TIP3   OH239121   6.317   4.968   0.185 -0.3321 -0.5713  0.3232
 5853TIP3    H139122   6.362   4.976   0.101 -0.5486 -3.1767 -0.1229
 5853TIP3    H239123   6.365   4.899   0.232 -0.8948  0.0420  1.8859
 5854TIP3   OH239124   4.261   0.693   0.570  1.0288 -0.3787  0.5804
 5854TIP3    H139125   4.300   0.780   0.560 -0.6977  0.6979  2.4098
 5854TIP3    H239126   4.283   0.668   0.660 -0.9746 -0.4640  1.0829
 5855TIP3   OH239127   3.785   1.747   7.808  0.2136  0.0859 -0.1585
 5855TIP3    H139128   3.771   1.820   7.747  1.3641  1.0341  0.6535
 5855TIP3    H239129   3.851   1.692   7.765 -0.5185 -0.4071 -0.6873
 5856TIP3   OH239130   6.813   4.274   8.003 -0.0248 -0.3526  0.1235
 5856TIP3    H139131   6.843   4.229   7.923 -0.4432 -0.3412 -0.0446
 5856TIP3    H239132   6.864   4.234   8.073 -0.3254 -1.0449 -0.0341
 5857TIP3   OH239133   0.365   5.527   0.103 -0.1177 -0.2388  0.1160
 5857TIP3    H139134   0.402   5.445   0.136 -0.5243 -0.5556 -0.2136
 5857TIP3    H239135   0.322   5.566   0.179  0.2047 -0.2616  0.3084
 5858TIP3   OH239136   3.204   0.031   8.642 -0.1306 -0.2306 -0.3756
 5858TIP3    H139137   3.124   0.003   8.686 -0.5417  1.0943 -0.2400
 5858TIP3    H239138   3.266  -0.041   8.657 -1.4084 -1.4663 -0.8584
 5859TIP3   OH239139   1.373   5.491   1.757  0.1668 -0.1973  0.0488
 5859TIP3    H139140   1.434   5.520   1.824  0.8778 -1.2218 -0.1351
 5859TIP3    H239141   1.321   5.423   1.800  0.2170 -0.4303 -0.2578
 5860TIP3   OH239142   2.468   4.952   7.007 -0.2150 -0.0422  0.6279
 5860TIP3    H139143   2.553   4.917   7.033  0.0787  0.6160  0.5796
 5860TIP3    H239144   2.431   4.989   7.088 -0.0619  0.4593  0.4734
 5861TIP3   OH239145   5.696   1.153   7.348  0.2560 -0.1930 -0.0863
 5861TIP3    H139146   5.620   1.170   7.403  0.8595 -2.1639  1.4567
 5861TIP3    H239147   5.741   1.080   7.390  1.4501 -0.9905 -2.5435
 5862TIP3   OH239148   5.130   2.030   7.702  0.2146  0.0938  0.0910
 5862TIP3    H139149   5.154   2.044   7.611 -0.9985  3.4407  0.1522
 5862TIP3    H239150   5.079   1.948   7.702 -2.0486  1.3297 -2.7753
 5863TIP3   OH239151   5.509   6.623   1.600 -0.3224 -0.3745 -0.3005
 5863TIP3    H139152   5.544   6.556   1.541  0.3880 -0.6951  0.4791
 5863TIP3    H239153   5.572   6.628   1.672 -0.7217  0.6441  0.0009
 5864TIP3   OH239154   2.908   3.527   7.625  0.5241 -0.0759 -0.2995
 5864TIP3    H139155   2.878   3.545   7.535 -3.5800  2.0409  1.2068
 5864TIP3    H239156   2.864   3.446   7.649 -0.3185  0.5972  0.4852
 5865TIP3   OH239157   3.039   1.688   7.697  0.2126  0.7664  0.6902
 5865TIP3    H139158   2.957   1.681   7.648 -0.1019  0.0357  1.3079
 5865TIP3    H239159   3.098   1.735   7.637 -0.5240  0.9408  0.0825
 5866TIP3   OH239160   0.714   2.765   0.010 -0.5551  0.2805 -0.4645
 5866TIP3    H139161   0.662   2.783   0.089 -0.3502 -1.4625  0.1095
 5866TIP3    H239162   0.649   2.736  -0.055 -0.5242  0.0529 -0.3928
 5867TIP3   OH239163   5.890   3.423   8.661  0.6392  0.4613  0.0782
 5867TIP3    H139164   5.983   3.420   8.684  0.7413  1.6133 -0.1271
 5867TIP3    H239165   5.879   3.505   8.612 -0.5058  0.3951  0.1802
 5868TIP3   OH239166   0.666   0.455   8.644 -0.0349 -0.2267  0.0879
 5868TIP3    H139167   0.631   0.426   8.729  0.1323  0.6834  0.4775
 5868TIP3    H239168   0.628   0.542   8.631  0.2328 -0.2057 -0.6078
 5869TIP3   OH239169   6.126   1.099   7.572  0.1883 -0.8173 -0.1502
 5869TIP3    H139170   6.068   1.057   7.636 -0.5281  0.3945  0.0309
 5869TIP3    H239171   6.172   1.026   7.530 -0.1185 -1.6976  0.9901
 5870TIP3   OH239172   2.187   6.825   0.404 -0.0816 -0.2636  0.0914
 5870TIP3    H139173   2.194   6.729   0.404 -0.0826 -0.2659 -0.8397
 5870TIP3    H239174   2.228   6.851   0.486 -1.1133 -1.1298  0.9309
 5871TIP3   OH239175   2.094   4.668   6.412  0.6150 -0.1343 -0.0349
 5871TIP3    H139176   2.109   4.732   6.342  1.1721 -0.5676 -0.3151
 5871TIP3    H239177   2.059   4.720   6.485  1.1601  0.5158 -0.2235
 5872TIP3   OH239178   4.375   2.468   8.554 -0.2467 -0.0990  0.0845
 5872TIP3    H139179   4.393   2.382   8.592  0.2248  0.1196  0.3635
 5872TIP3    H239180   4.367   2.527   8.629 -2.0568 -0.1552 -0.0290
 5873TIP3   OH239181   6.020   6.199   0.575 -1.0911  0.1279  0.0305
 5873TIP3    H139182   6.058   6.244   0.500 -1.6834  0.8672  0.1700
 5873TIP3    H239183   6.067   6.235   0.651 -2.8889  2.0222  0.3367
 5874TIP3   OH239184   2.401   3.051   6.365 -0.6097 -0.1741 -0.0062
 5874TIP3    H139185   2.351   3.030   6.443 -0.7140  0.0266 -0.0182
 5874TIP3    H239186   2.336   3.081   6.301 -0.5025 -0.1314 -0.0973
 5875TIP3   OH239187   3.540   2.307   0.553 -0.3137  0.1861 -0.4314
 5875TIP3    H139188   3.491   2.225   0.561  0.0378  0.0756  0.6906
 5875TIP3    H239189   3.631   2.280   0.544 -0.3985  0.3941 -2.5147
 5876TIP3   OH239190   2.093   4.684   0.089  0.1592 -0.6672 -0.0103
 5876TIP3    H139191   2.121   4.621   0.023 -0.0146 -0.9240  0.1620
 5876TIP3    H239192   2.023   4.734   0.047  0.4811 -0.4109 -0.2399
 5877TIP3   OH239193   0.457   4.157   6.807 -0.1972 -0.0733  0.4128
 5877TIP3    H139194   0.443   4.244   6.844 -0.1086 -0.2525  0.8758
 5877TIP3    H239195   0.429   4.097   6.876 -1.0629 -0.4084 -0.2263
 5878TIP3   OH239196   6.424   3.997   7.497  0.0116 -0.2055 -0.1757
 5878TIP3    H139197   6.407   3.990   7.591 -0.0370 -1.6723 -0.2764
 5878TIP3    H239198   6.371   4.072   7.469  2.0042  1.9321  1.3975
 5879TIP3   OH239199   2.843   5.395   8.686 -0.3502 -0.0744 -0.1778
 5879TIP3    H139200   2.854   5.340   8.609 -0.8321 -1.4816  0.7230
 5879TIP3    H239201   2.868   5.339   8.759 -1.6994  0.5979  0.8467
 5880TIP3   OH239202   6.762   0.164   1.712  0.2772  0.3782 -0.3547
 5880TIP3    H139203   6.781   0.231   1.646  2.0488  0.2466 -0.0176
 5880TIP3    H239204   6.721   0.212   1.784 -0.3575  0.7518 -0.9573
 5881TIP3   OH239205   0.055   2.890   6.772  0.1506 -0.0739  0.4208
 5881TIP3    H139206   0.002   2.963   6.740 -0.6084 -1.4129 -1.6236
 5881TIP3    H239207   0.142   2.927   6.787 -0.4283  1.4061  0.2700
 5882TIP3   OH239208   5.743   4.044   0.637 -0.0908  0.6922 -1.0566
 5882TIP3    H139209   5.724   4.090   0.718 -2.1345 -0.0346 -1.0575
 5882TIP3    H239210   5.816   4.092   0.598  1.2609  0.7800  1.3864
 5883TIP3   OH239211   1.883   1.040   1.853  0.3201  0.3037  0.4032
 5883TIP3    H139212   1.882   0.973   1.921 -1.6604 -3.2453 -2.7383
 5883TIP3    H239213   1.949   1.010   1.790  0.9107  2.5515 -0.1512
 5884TIP3   OH239214   6.084   5.719   1.253  0.6307  0.4413  0.0759
 5884TIP3    H139215   6.048   5.670   1.180  0.2487 -0.0418  0.5854
 5884TIP3    H239216   6.114   5.801   1.213 -0.2650  0.5109 -0.4977
 5885TIP3   OH239217   2.453   5.941   0.671  0.2044  0.1148 -0.3047
 5885TIP3    H139218   2.410   5.983   0.745  0.9402  0.1300  0.1275
 5885TIP3    H239219   2.527   5.894   0.710  0.6000  0.1289 -1.0263
 5886TIP3   OH239220   4.119   3.468   7.621  0.2898 -0.6325  0.6198
 5886TIP3    H139221   4.114   3.480   7.527 -0.8761  0.8852  0.8351
 5886TIP3    H239222   4.068   3.388   7.638 -1.4376  0.3279  0.1569
 5887TIP3   OH239223   0.479   4.949   1.028 -0.2294 -0.5256 -0.1553
 5887TIP3    H139224   0.433   5.031   1.009  2.7748  1.3369 -0.0910
 5887TIP3    H239225   0.532   4.969   1.105  0.6912 -2.4762 -0.2264
 5888TIP3   OH239226   3.109   3.059   1.168 -0.5407  0.1971 -0.0922
 5888TIP3    H139227   3.101   3.091   1.078  0.2496 -0.5273 -0.4442
 5888TIP3    H239228   3.141   2.969   1.158  2.8435  1.1325  0.9176
 5889TIP3   OH239229   0.368   2.915   0.302 -0.1883 -0.2144 -0.1966
 5889TIP3    H139230   0.453   2.951   0.274 -0.8175  0.2135 -1.6380
 5889TIP3    H239231   0.380   2.820   0.299  1.0047 -0.2372  2.1407
 5890TIP3   OH239232   0.667   1.321   8.711  0.1809 -0.4729 -0.0584
 5890TIP3    H139233   0.604   1.270   8.761 -0.2407 -0.4761 -0.5760
 5890TIP3    H239234   0.616   1.394   8.675  0.6919  0.0952  0.3521
 5891TIP3   OH239235   6.483   2.602   1.526 -0.4540 -0.0885 -0.8454
 5891TIP3    H139236   6.433   2.554   1.460  0.7986 -2.6347 -0.0439
 5891TIP3    H239237   6.449   2.571   1.609 -0.4096  1.3748 -0.2408
 5892TIP3   OH239238   1.754   2.655   8.469  0.4738  0.0467 -0.0475
 5892TIP3    H139239   1.821   2.649   8.401 -1.1386 -1.3777 -1.6430
 5892TIP3    H239240   1.788   2.603   8.542  1.7629  0.6804 -0.1710
 5893TIP3   OH239241   4.641   5.246   1.816  0.4904  0.6188 -0.6195
 5893TIP3    H139242   4.710   5.299   1.777 -1.5715  2.5669 -1.8284
 5893TIP3    H239243   4.559   5.286   1.787 -1.2047 -1.3815  0.9979
 5894TIP3   OH239244   1.044   5.912   0.504  0.3784  0.1277 -0.0129
 5894TIP3    H139245   1.028   5.862   0.423 -1.3064  2.8043 -1.5218
 5894TIP3    H239246   1.139   5.913   0.514  0.6499 -0.1984 -2.0771
 5895TIP3   OH239247   1.407   5.658   7.016  0.5712 -0.9859 -0.7506
 5895TIP3    H139248   1.476   5.640   7.079 -1.2679 -1.8113  1.1407
 5895TIP3    H239249   1.380   5.572   6.985 -0.2183 -0.7493 -0.7510
 5896TIP3   OH239250   6.544   5.440   7.678 -0.4464  0.9503 -0.5546
 5896TIP3    H139251   6.559   5.402   7.591  0.4139  0.3272 -0.1437
 5896TIP3    H239252   6.625   5.424   7.726 -1.2252  0.4680  0.6689
 5897TIP3   OH239253   4.945   1.328   8.813  0.4824 -0.4262 -0.5806
 5897TIP3    H139254   4.980   1.270   8.880 -0.7231 -0.7318 -0.1953
 5897TIP3    H239255   4.929   1.411   8.858  1.0145 -0.1772 -0.8364
 5898TIP3   OH239256   6.771   2.505   8.617 -0.4025 -0.0913  0.1878
 5898TIP3    H139257   6.692   2.494   8.564 -1.7344 -0.5934  2.1854
 5898TIP3    H239258   6.823   2.427   8.599 -0.3546  0.2144 -1.1009
 5899TIP3   OH239259   3.098   6.108   1.194 -0.0859  0.1482  0.4247
 5899TIP3    H139260   3.193   6.097   1.203 -0.3067 -0.9251  1.6248
 5899TIP3    H239261   3.082   6.093   1.101  1.0699  1.6736 -0.0636
 5900TIP3   OH239262   4.103   0.081   7.832 -0.2889 -0.3550 -0.2062
 5900TIP3    H139263   4.097   0.041   7.746  0.4512 -0.0777 -0.3989
 5900TIP3    H239264   4.187   0.128   7.830 -0.9230  0.8180  0.1703
 5901TIP3   OH239265   1.783   4.771   6.546  0.3886  0.1732 -0.0680
 5901TIP3    H139266   1.851   4.771   6.478  1.1649 -1.0772  0.6725
 5901TIP3    H239267   1.795   4.855   6.592  1.5884 -0.1166  0.1902
 5902TIP3   OH239268   6.220   4.940   2.372 -0.5759  0.0294  0.7598
 5902TIP3    H139269   6.273   5.015   2.343  0.6182 -0.8673  0.5361
 5902TIP3    H239270   6.130   4.968   2.357 -0.1174  0.9575 -0.5042
 5903TIP3   OH239271   6.779   6.442   8.489  0.5884 -0.5998 -0.2515
 5903TIP3    H139272   6.689   6.424   8.515  0.2282  3.1406  1.7530
 5903TIP3    H239273   6.772   6.512   8.425  2.0284  1.2475  1.4878
 5904TIP3   OH239274   2.505   2.376   6.512 -0.2884 -0.1506 -0.1344
 5904TIP3    H139275   2.500   2.348   6.604  0.4818 -0.0252 -0.0450
 5904TIP3    H239276   2.504   2.295   6.462 -1.6126 -0.1904 -0.0735
 5905TIP3   OH239277   5.948   6.621   1.811  0.1902  0.2976  0.0366
 5905TIP3    H139278   5.972   6.567   1.886 -0.7277 -3.1019 -1.9041
 5905TIP3    H239279   5.860   6.654   1.832 -1.1665 -2.7070 -0.4082
 5906TIP3   OH239280   3.097   0.995   1.505  0.1178  0.0710  0.4034
 5906TIP3    H139281   3.098   0.905   1.535  0.6609  0.4390  1.5179
 5906TIP3    H239282   3.169   1.000   1.443 -0.3563 -0.4249 -0.2076
 5907TIP3   OH239283   6.411   5.802   0.965 -0.4873 -0.3062  0.7009
 5907TIP3    H139284   6.480   5.841   0.911 -1.3419  1.3162  0.7301
 5907TIP3    H239285   6.392   5.718   0.923  0.2428  0.0342 -0.3425
 5908TIP3   OH239286   1.852   2.813   2.080 -0.0922  0.4339  0.3157
 5908TIP3    H139287   1.823   2.884   2.023 -0.4911 -0.4514 -0.6261
 5908TIP3    H239288   1.933   2.845   2.120 -0.4949  1.5735  0.2406
 5909TIP3   OH239289   4.216   3.367   1.066 -0.3875  0.2542 -0.2153
 5909TIP3    H139290   4.149   3.300   1.051 -1.5479  0.3096  3.6385
 5909TIP3    H239291   4.175   3.449   1.040 -0.0650 -0.1284 -2.0901
 5910TIP3   OH239292   4.164   0.109   6.672 -0.0001 -0.4853 -0.2548
 5910TIP3    H139293   4.250   0.067   6.667  0.9695  1.4315 -0.5500
 5910TIP3    H239294   4.161   0.167   6.595 -1.6237 -0.6101 -0.3240
 5911TIP3   OH239295   6.246   1.055   6.822  0.0498 -0.1466  0.6679
 5911TIP3    H139296   6.221   1.008   6.742 -0.8529 -1.0130  1.4466
 5911TIP3    H239297   6.205   1.141   6.812  0.9696  0.2138 -0.3476
 5912TIP3   OH239298   0.499   0.592   7.953  0.0618 -0.1563  0.3150
 5912TIP3    H139299   0.481   0.546   8.035 -2.2852 -1.5159 -0.8807
 5912TIP3    H239300   0.592   0.617   7.961 -0.0366 -0.2844  3.3080
 5913TIP3   OH239301   4.674   5.744   1.349 -0.0821  0.6312  0.7633
 5913TIP3    H139302   4.712   5.667   1.306 -0.6773  0.6372  0.2021
 5913TIP3    H239303   4.579   5.730   1.343 -0.2074  1.5476  0.3783
 5914TIP3   OH239304   6.368   3.370   8.462  0.6008 -0.0184 -0.8274
 5914TIP3    H139305   6.449   3.321   8.472  0.8389  0.0303 -2.2710
 5914TIP3    H239306   6.325   3.329   8.387  0.2414  1.2014 -1.3066
 5915TIP3   OH239307   4.689   5.283   7.846  0.3157  0.2019  0.5909
 5915TIP3    H139308   4.692   5.251   7.756  0.8226 -1.0220  1.0341
 5915TIP3    H239309   4.625   5.355   7.843 -0.2511 -0.3227 -0.5851
 5916TIP3   OH239310   5.060   1.768   8.426 -0.2166 -0.6611 -0.1498
 5916TIP3    H139311   5.148   1.731   8.437  0.8878  1.0959 -2.2809
 5916TIP3    H239312   5.021   1.763   8.513  2.6708  0.1133  1.3135
 5917TIP3   OH239313   0.656   1.438   0.323 -0.3653 -0.5050  0.2338
 5917TIP3    H139314   0.699   1.405   0.403 -0.9076 -2.2241 -0.1302
 5917TIP3    H239315   0.720   1.422   0.254 -0.1940  0.2786  0.2104
 5918TIP3   OH239316   1.336   4.014   8.230 -0.0223  0.5768 -0.2116
 5918TIP3    H139317   1.291   3.931   8.224 -0.0159  0.6157 -0.8198
 5918TIP3    H239318   1.429   3.992   8.224  0.1245  0.4146  1.8108
 5919TIP3   OH239319   3.175   1.996   8.554  0.2031 -0.1516  0.2055
 5919TIP3    H139320   3.247   1.947   8.592  1.1968  0.4168 -0.8614
 5919TIP3    H239321   3.153   1.949   8.473  0.0301  0.2064  0.0392
 5920TIP3   OH239322   1.185   3.540   7.743 -0.1060 -0.4711  0.2635
 5920TIP3    H139323   1.211   3.479   7.674  0.1869  0.5391 -0.5514
 5920TIP3    H239324   1.238   3.515   7.819  1.3008 -0.1560 -0.5745
 5921TIP3   OH239325   1.094   6.802   1.829 -0.5102  0.3315  0.4535
 5921TIP3    H139326   1.041   6.828   1.905 -0.3195  1.3192  0.2532
 5921TIP3    H239327   1.110   6.883   1.781  0.2327 -0.1272 -0.1023
 5922TIP3   OH239328   5.888   5.431   7.703 -0.8603  0.0121 -0.0417
 5922TIP3    H139329   5.871   5.475   7.620  2.1858  2.6295  0.5359
 5922TIP3    H239330   5.976   5.394   7.693 -0.8304 -0.4823  1.6778
 5923TIP3   OH239331   6.721   5.725   6.853 -0.4362 -0.0279  0.5694
 5923TIP3    H139332   6.740   5.687   6.939 -0.8303  3.3428  2.3044
 5923TIP3    H239333   6.791   5.789   6.839 -1.1694  0.4842 -0.9634
 5924TIP3   OH239334   6.671   4.069   1.230 -0.2427  0.4984 -0.3919
 5924TIP3    H139335   6.664   4.056   1.136 -0.8626 -0.1831 -0.2562
 5924TIP3    H239336   6.672   4.165   1.241  0.5361  0.5799 -1.1266
 5925TIP3   OH239337   1.193   1.300   6.891  0.6803 -0.1015  0.4631
 5925TIP3    H139338   1.248   1.230   6.857  2.4839  0.7094  1.5433
 5925TIP3    H239339   1.151   1.263   6.968 -1.6585 -1.2284 -1.2289
 5926TIP3   OH239340   5.755   0.096   1.262  0.0817  0.4777 -0.0649
 5926TIP3    H139341   5.735   0.032   1.194 -0.7018 -0.7638  1.2485
 5926TIP3    H239342   5.669   0.122   1.296  0.4606  0.8492  0.6343
 5927TIP3   OH239343   2.872   2.226   8.810 -0.1750  0.1695  0.0979
 5927TIP3    H139344   2.844   2.317   8.794 -1.8782 -0.0298  1.5400
 5927TIP3    H239345   2.829   2.175   8.741 -1.7495  0.1327  1.0583
 5928TIP3   OH239346   4.582   2.047   7.880 -0.0523  0.1483  0.0823
 5928TIP3    H139347   4.626   2.046   7.965  0.6898  1.3411 -0.2597
 5928TIP3    H239348   4.569   2.140   7.861 -2.4340 -0.1218 -0.0049
 5929TIP3   OH239349   4.736   2.431   0.869  0.2494  0.1323  0.5550
 5929TIP3    H139350   4.754   2.521   0.842  0.1730  0.3914  1.3368
 5929TIP3    H239351   4.718   2.384   0.788  0.8873  0.6858  0.0893
 5930TIP3   OH239352   0.089   3.610   8.566 -0.2940 -0.6026  0.0773
 5930TIP3    H139353   0.002   3.647   8.552 -0.0608 -0.3436 -0.7652
 5930TIP3    H239354   0.090   3.531   8.511  0.1688 -0.3306 -0.3150
 5931TIP3   OH239355   2.207   3.562   8.795 -0.2244  0.5114  0.0844
 5931TIP3    H139356   2.260   3.551   8.874 -1.3336  0.6140  0.8762
 5931TIP3    H239357   2.207   3.656   8.779 -0.6407  0.5757  0.4370
 5932TIP3   OH239358   5.515   0.582   2.235 -0.5474 -0.4184 -0.1828
 5932TIP3    H139359   5.610   0.587   2.225 -0.1600  0.4789  2.9158
 5932TIP3    H239360   5.499   0.495   2.272 -0.8351 -0.3068 -0.0370
 5933TIP3   OH239361   1.483   6.454   0.774  0.1230 -0.2573  0.2183
 5933TIP3    H139362   1.489   6.403   0.693  0.0359 -0.7314  0.5042
 5933TIP3    H239363   1.418   6.407   0.827 -0.3621  0.4542  0.2697
 5934TIP3   OH239364   3.470   0.078   7.117  0.2473  0.1962 -0.1526
 5934TIP3    H139365   3.405   0.084   7.047  0.7346  1.1359 -0.5449
 5934TIP3    H239366   3.512  -0.007   7.103  0.1913  0.2779 -0.8767
 5935TIP3   OH239367   2.746   1.062   8.731 -0.0963 -0.1571  0.0491
 5935TIP3    H139368   2.806   1.012   8.676 -1.3791 -0.0411 -1.5179
 5935TIP3    H239369   2.759   1.026   8.819  2.7839  0.3736 -0.0497
 5936TIP3   OH239370   2.100   5.843   7.553  0.4152  0.3298  0.5705
 5936TIP3    H139371   2.009   5.854   7.525  0.1256 -1.2476  0.7882
 5936TIP3    H239372   2.146   5.818   7.473  0.2097 -1.0198  0.8501
 5937TIP3   OH239373   4.602   3.714   8.824  0.4443 -0.3424 -0.0207
 5937TIP3    H139374   4.529   3.766   8.790  2.2496  0.5026 -2.9927
 5937TIP3    H239375   4.670   3.777   8.843  0.3757 -1.0764  3.1935
 5938TIP3   OH239376   2.754   1.245   0.577  0.0014 -0.5739 -0.1456
 5938TIP3    H139377   2.673   1.199   0.557 -0.5138 -0.8574  2.3231
 5938TIP3    H239378   2.744   1.331   0.536 -1.1469 -0.9218 -0.6177
 5939TIP3   OH239379   2.278   1.015   1.477  0.0964  0.6340  0.3542
 5939TIP3    H139380   2.237   0.983   1.396 -1.9338  0.7889  1.2663
 5939TIP3    H239381   2.360   0.966   1.483 -1.3442 -2.0190 -0.0370
 5940TIP3   OH239382   6.618   2.738   7.705 -0.2133  0.4775  0.2476
 5940TIP3    H139383   6.668   2.819   7.714  1.7525 -0.4347 -1.7721
 5940TIP3    H239384   6.629   2.693   7.789  0.7378  1.1818  0.5144
 5941TIP3   OH239385   2.991   3.865   0.753 -0.0722  0.2442  0.2363
 5941TIP3    H139386   3.060   3.800   0.762 -0.5648 -0.6251 -1.7865
 5941TIP3    H239387   2.916   3.828   0.798 -0.7097 -1.2308 -1.8850
 5942TIP3   OH239388   5.774   4.924   7.444  0.2279  0.8905 -0.1643
 5942TIP3    H139389   5.703   4.896   7.387  1.9335  0.6357 -2.2718
 5942TIP3    H239390   5.808   4.842   7.481 -1.0096  1.0696  1.4834
 5943TIP3   OH239391   0.726   4.688   8.242 -0.2172  0.4649  0.1752
 5943TIP3    H139392   0.648   4.661   8.194  0.2556  1.2750 -1.0768
 5943TIP3    H239393   0.693   4.713   8.329 -1.2219 -0.0062 -0.0565
 5944TIP3   OH239394   2.138   4.610   8.495 -0.0059 -0.1699 -0.1547
 5944TIP3    H139395   2.113   4.587   8.584  0.7473 -1.8569 -0.3365
 5944TIP3    H239396   2.207   4.675   8.504  2.0021 -2.2727  0.6423
 5945TIP3   OH239397   5.262   5.661   8.224 -0.0600 -0.2953 -0.6364
 5945TIP3    H139398   5.345   5.615   8.220 -0.8224 -1.8136  0.1711
 5945TIP3    H239399   5.210   5.612   8.288 -0.0886  3.0789  2.2862
 5946TIP3   OH239400   0.134   5.727   1.690 -0.4198 -0.1251  0.4137
 5946TIP3    H139401   0.178   5.800   1.733  1.9086 -0.3138 -1.4279
 5946TIP3    H239402   0.188   5.651   1.709 -0.6519 -0.6349 -0.8300
 5947TIP3   OH239403   3.576   2.383   2.148 -0.5411 -0.1013 -0.1826
 5947TIP3    H139404   3.530   2.316   2.097  1.0696 -2.6077  1.4300
 5947TIP3    H239405   3.507   2.430   2.194 -1.7045 -1.1485 -0.8081
 5948TIP3   OH239406   2.207   4.470   8.763  0.1650 -0.6166 -0.3445
 5948TIP3    H139407   2.295   4.472   8.800 -0.7079 -2.6364  2.1984
 5948TIP3    H239408   2.186   4.377   8.757 -1.8259 -0.1859 -0.7807
 5949TIP3   OH239409   1.358   3.736   1.648 -0.0053 -0.3044  0.4251
 5949TIP3    H139410   1.313   3.667   1.696 -0.0028 -0.1049  0.7191
 5949TIP3    H239411   1.334   3.817   1.693  0.5496 -0.1838  0.5132
 5950TIP3   OH239412   5.299   4.326   8.071  0.4634 -0.3942 -0.1539
 5950TIP3    H139413   5.231   4.272   8.029 -0.5244  0.3191  0.4897
 5950TIP3    H239414   5.261   4.414   8.074  1.4109  0.0126  0.2654
 5951TIP3   OH239415   1.560   5.379   0.565 -0.6692  0.3434 -0.0414
 5951TIP3    H139416   1.508   5.309   0.526 -1.2545  0.7037  0.0660
 5951TIP3    H239417   1.522   5.391   0.653 -0.1990  0.3991  0.1549
 5952TIP3   OH239418   5.160   4.578   6.629 -0.8734  0.6742  0.4392
 5952TIP3    H139419   5.239   4.528   6.650 -0.9319 -0.1211 -1.0530
 5952TIP3    H239420   5.110   4.580   6.711 -0.1059 -0.3167  0.9540
 5953TIP3   OH239421   1.950   3.200   7.468 -0.1516 -0.5698  0.0149
 5953TIP3    H139422   1.979   3.185   7.558  0.9002  0.9298 -0.0372
 5953TIP3    H239423   1.904   3.283   7.471  3.9502  2.1089 -1.4961
 5954TIP3   OH239424   4.519   1.391   6.755 -0.1534 -0.0327  0.0501
 5954TIP3    H139425   4.464   1.362   6.682 -1.9648  1.3969  0.7652
 5954TIP3    H239426   4.609   1.381   6.722 -0.8358 -1.3921 -1.5825
 5955TIP3   OH239427   1.406   6.331   0.520  0.5143  0.3642  0.1644
 5955TIP3    H139428   1.426   6.238   0.528 -0.5068 -0.0208 -1.3088
 5955TIP3    H239429   1.413   6.349   0.426 -3.1530  0.7977 -0.1575
 5956TIP3   OH239430   2.700   3.045   8.655  0.3247  0.5697 -0.4169
 5956TIP3    H139431   2.767   2.980   8.635  1.8912  2.2729 -0.9790
 5956TIP3    H239432   2.692   3.096   8.574 -0.0605  1.7433  0.3390
 5957TIP3   OH239433   2.153   3.235   2.042  0.2575 -0.1795 -0.3436
 5957TIP3    H139434   2.141   3.146   2.073  1.2259 -0.0953  0.3304
 5957TIP3    H239435   2.159   3.227   1.947  1.3817 -0.9725 -0.2254
 5958TIP3   OH239436   4.685   4.190   1.614 -0.2572 -0.2704 -0.4259
 5958TIP3    H139437   4.638   4.154   1.539  0.3849  1.8987 -2.0076
 5958TIP3    H239438   4.629   4.173   1.689 -0.0328 -4.3061 -0.9641
 5959TIP3   OH239439   2.841   2.662   7.140 -0.0776  0.7223 -0.7618
 5959TIP3    H139440   2.753   2.624   7.141 -1.0300  2.8077 -0.3893
 5959TIP3    H239441   2.899   2.588   7.125 -1.9571 -0.5869 -1.9366
 5960TIP3   OH239442   3.828   5.808   0.235  0.1183 -0.3928 -0.5993
 5960TIP3    H139443   3.836   5.843   0.323  0.3656  2.5304 -1.6860
 5960TIP3    H239444   3.742   5.836   0.205  0.1771 -1.0289 -1.4145
 5961TIP3   OH239445   4.410   6.274   7.574 -0.2230 -0.0155 -0.3084
 5961TIP3    H139446   4.444   6.201   7.627 -0.6386 -0.0759 -0.1226
 5961TIP3    H239447   4.452   6.262   7.489 -0.0940 -0.3272 -0.2057
 5962TIP3   OH239448   5.660   6.631   7.886 -0.1623 -0.1816  0.1418
 5962TIP3    H139449   5.713   6.590   7.817 -0.5631 -0.1316 -0.2020
 5962TIP3    H239450   5.723   6.653   7.955  0.0841 -1.1859  0.2499
 5963TIP3   OH239451   3.930   3.371   0.326 -0.1063  0.0263  0.6816
 5963TIP3    H139452   4.023   3.374   0.351  0.3746  0.2000 -0.9929
 5963TIP3    H239453   3.908   3.462   0.306 -0.3749 -0.1351  0.2204
 5964TIP3   OH239454   5.087   5.248   8.466  0.0746  0.0661  0.2552
 5964TIP3    H139455   5.071   5.308   8.393 -0.6156  1.2027  1.2942
 5964TIP3    H239456   5.008   5.194   8.472  0.4485 -0.5517 -0.3059
 5965TIP3   OH239457   6.405   5.489   7.906  0.1214  0.4067 -0.1487
 5965TIP3    H139458   6.453   5.496   7.824 -0.3522 -0.0296 -0.4626
 5965TIP3    H239459   6.322   5.450   7.883 -0.5089  1.3955  0.3547
 5966TIP3   OH239460   1.040   6.655   7.161 -0.5361  0.4832  0.4833
 5966TIP3    H139461   1.013   6.742   7.130 -0.1829  0.9978  1.5536
 5966TIP3    H239462   1.001   6.648   7.248  1.3077  0.5177  1.3525
 5967TIP3   OH239463   6.750   0.277   8.634 -0.3766 -0.3380  0.9480
 5967TIP3    H139464   6.825   0.335   8.627 -0.1043 -0.6110  1.4974
 5967TIP3    H239465   6.706   0.284   8.550 -0.4453  0.7890  1.0567
 5968TIP3   OH239466   5.574   2.989   8.151 -0.0828  0.4049  0.2523
 5968TIP3    H139467   5.524   2.926   8.098  2.0410 -0.4887 -0.8005
 5968TIP3    H239468   5.517   3.066   8.157 -2.7121 -1.4759  1.4480
 5969TIP3   OH239469   6.711   2.442   8.142 -0.5402 -0.4986 -0.1670
 5969TIP3    H139470   6.695   2.349   8.157  1.8486 -0.7023  1.5549
 5969TIP3    H239471   6.680   2.484   8.222  0.7730 -0.1432  0.1744
 5970TIP3   OH239472   3.444   3.030   1.104 -0.0070 -0.1153  0.5923
 5970TIP3    H139473   3.409   3.065   1.022 -1.4909  0.2722  1.3568
 5970TIP3    H239474   3.481   3.105   1.149 -1.3586  0.1559  1.3182
 5971TIP3   OH239475   3.769   3.633   8.030 -0.8921 -0.4113 -0.0233
 5971TIP3    H139476   3.864   3.635   8.021 -0.8812  1.2949  0.1649
 5971TIP3    H239477   3.753   3.571   8.102  0.1263 -0.1149  0.4792
 5972TIP3   OH239478   4.995   2.129   6.726 -0.4099 -0.5131  0.0130
 5972TIP3    H139479   5.051   2.086   6.662 -0.1056 -0.8566  0.5006
 5972TIP3    H239480   4.909   2.088   6.713 -0.2426 -0.9047  0.1276
 5973TIP3   OH239481   1.977   0.182   1.884  0.9159  0.5180  0.3531
 5973TIP3    H139482   2.011   0.095   1.862  0.6449  0.1196  1.4536
 5973TIP3    H239483   1.891   0.164   1.922  1.4609  1.1311  1.9562
 5974TIP3   OH239484   0.175   6.820   7.863 -0.0102  0.8628  0.4186
 5974TIP3    H139485   0.122   6.742   7.850 -0.8377  1.1205  1.9900
 5974TIP3    H239486   0.263   6.787   7.881 -0.2196  0.3183  0.4449
 5975TIP3   OH239487   3.596   2.887   7.156  0.0497 -0.7667 -0.2666
 5975TIP3    H139488   3.668   2.894   7.093  0.4097  0.6423  0.2721
 5975TIP3    H239489   3.539   2.818   7.120  0.0627  0.2348 -2.3227
 5976TIP3   OH239490   4.794   2.984   0.445 -1.4284  0.0018 -0.5388
 5976TIP3    H139491   4.870   2.962   0.498 -2.0688 -1.2477 -0.1033
 5976TIP3    H239492   4.728   3.013   0.509 -1.0269  2.0674 -0.9888
 5977TIP3   OH239493   5.826   4.020   7.647  0.6644  0.3353 -0.3753
 5977TIP3    H139494   5.839   4.043   7.739  2.5824  1.6346 -0.9050
 5977TIP3    H239495   5.731   4.016   7.636  0.3609  1.7864  1.2803
 5978TIP3   OH239496   0.209   3.816   6.681  0.2210  0.6773  0.0284
 5978TIP3    H139497   0.224   3.721   6.680 -0.7354  0.4931  1.4154
 5978TIP3    H239498   0.114   3.825   6.670  0.3626  1.5048 -0.5827
 5979TIP3   OH239499   0.251   4.961   0.045 -0.7534 -0.4499 -0.5693
 5979TIP3    H139500   0.339   4.972   0.083 -0.7850 -0.0719 -0.5944
 5979TIP3    H239501   0.257   4.882  -0.008 -0.7954 -1.1743  0.4788
 5980TIP3   OH239502   1.165   2.459   8.370  0.0903  0.4548 -0.2149
 5980TIP3    H139503   1.105   2.395   8.332 -0.5135  1.2924 -0.7093
 5980TIP3    H239504   1.225   2.482   8.299  0.2022  0.5587 -0.0885
 5981TIP3   OH239505   2.283   5.193   0.827 -0.0111  0.4161 -0.6416
 5981TIP3    H139506   2.315   5.106   0.852 -0.8988  0.3912  0.4821
 5981TIP3    H239507   2.267   5.237   0.911 -1.7384  0.8529 -1.1687
 5982TIP3   OH239508   0.637   1.341   6.878  0.3016  0.0602 -0.5286
 5982TIP3    H139509   0.554   1.380   6.852  0.5074 -0.1450 -1.5187
 5982TIP3    H239510   0.652   1.271   6.815  0.8026 -0.4742  0.1708
 5983TIP3   OH239511   6.081   0.306   6.218 -0.0731 -0.2198  0.3386
 5983TIP3    H139512   6.010   0.264   6.268 -0.8873 -0.0200 -0.6080
 5983TIP3    H239513   6.141   0.235   6.197  0.1038 -0.3616  1.3067
 5984TIP3   OH239514   4.828   3.238   6.809  0.0746 -0.2318 -0.2126
 5984TIP3    H139515   4.898   3.218   6.871  0.5815  5.0485  1.3690
 5984TIP3    H239516   4.872   3.241   6.724  0.8820 -0.8001  0.1739
 5985TIP3   OH239517   3.250   0.153   6.948 -0.2345  0.1453 -0.6231
 5985TIP3    H139518   3.252   0.246   6.928 -0.5757  0.3657  0.3132
 5985TIP3    H239519   3.253   0.110   6.862 -0.6246  1.0192 -1.0936
 5986TIP3   OH239520   1.777   4.807   8.586 -0.3608 -0.6091  0.2379
 5986TIP3    H139521   1.808   4.718   8.606 -1.4448 -1.2538 -0.8046
 5986TIP3    H239522   1.686   4.795   8.558 -0.6843  0.9010  0.5481
 5987TIP3   OH239523   4.955   6.474   6.297  0.2305 -0.3522  0.0861
 5987TIP3    H139524   4.945   6.552   6.352  0.1480  0.2487 -0.7469
 5987TIP3    H239525   5.005   6.413   6.350  1.5971  0.8400  0.2347
 5988TIP3   OH239526   1.435   3.003   6.511  0.0507  0.4143 -0.5498
 5988TIP3    H139527   1.477   3.089   6.520  0.2600  0.1815  1.0637
 5988TIP3    H239528   1.507   2.944   6.488  0.2293  0.3996  0.0145
 5989TIP3   OH239529   2.494   0.808   0.141 -0.4775  0.6186  0.3407
 5989TIP3    H139530   2.574   0.845   0.178  0.0903 -1.5247  1.3927
 5989TIP3    H239531   2.499   0.715   0.161 -2.1839  0.0552 -1.5415
 5990TIP3   OH239532   3.276   2.591   7.962 -0.3423 -0.1995  0.2255
 5990TIP3    H139533   3.241   2.503   7.975 -2.2792  0.5647  0.6305
 5990TIP3    H239534   3.289   2.625   8.051 -0.9142  0.3912  0.0873
 5991TIP3   OH239535   3.343   0.195   7.607 -0.4836  0.4942 -0.0682
 5991TIP3    H139536   3.283   0.153   7.668 -0.0850 -0.9950 -0.6524
 5991TIP3    H239537   3.303   0.181   7.521 -0.3178  1.2928 -0.2830
 5992TIP3   OH239538   0.153   5.556   6.813  0.6541 -0.4405  0.2233
 5992TIP3    H139539   0.110   5.642   6.815  1.9285  0.2239  0.6827
 5992TIP3    H239540   0.201   5.552   6.896 -1.8848 -2.9847  1.7458
 5993TIP3   OH239541   2.830   2.132   6.516 -0.1081  0.8137 -0.3881
 5993TIP3    H139542   2.787   2.173   6.440 -2.0251  0.5269  0.4813
 5993TIP3    H239543   2.892   2.070   6.478 -1.4098  0.2880 -1.7525
 5994TIP3   OH239544   0.289   3.126   0.644 -0.4446 -0.1808 -0.1329
 5994TIP3    H139545   0.284   3.222   0.637 -0.4840 -0.0253  1.6843
 5994TIP3    H239546   0.267   3.107   0.735 -0.4296 -1.9374 -0.4594
 5995TIP3   OH239547   5.084   5.286   1.149 -0.3119  0.2592 -0.4459
 5995TIP3    H139548   5.061   5.364   1.100  0.9096 -0.2457 -1.9006
 5995TIP3    H239549   5.180   5.282   1.146 -0.1705  0.1696  1.9910
 5996TIP3   OH239550   4.364   3.702   1.333  0.4951  0.2430 -0.1784
 5996TIP3    H139551   4.328   3.715   1.420  1.4514  0.4374  0.1929
 5996TIP3    H239552   4.331   3.616   1.306 -0.5274  0.5685 -0.0046
 5997TIP3   OH239553   5.895   1.694   2.083 -0.5143  0.0135 -0.4941
 5997TIP3    H139554   5.847   1.695   2.166  1.8192 -1.2977  0.9811
 5997TIP3    H239555   5.831   1.725   2.019 -2.1476  2.0506  1.8997
 5998TIP3   OH239556   3.426   1.577   6.387 -0.0491  0.3620  0.3662
 5998TIP3    H139557   3.362   1.638   6.349  0.1358  0.5108  0.2901
 5998TIP3    H239558   3.475   1.544   6.311 -1.4961 -1.4589  0.1624
 5999TIP3   OH239559   1.432   5.634   1.536  0.3290 -0.5103  0.0571
 5999TIP3    H139560   1.375   5.575   1.585  0.3936 -1.0032 -0.4653
 5999TIP3    H239561   1.518   5.624   1.577 -0.2614  1.5749  2.0673
 6000TIP3   OH239562   5.778   5.569   8.800 -0.5886  0.0518 -0.4957
 6000TIP3    H139563   5.797   5.494   8.743 -0.4990 -0.0810 -0.2908
 6000TIP3    H239564   5.795   5.537   8.888 -1.4196  0.0364 -0.3324
 6001TIP3   OH239565   4.906   5.059   1.557 -0.1096  0.8475  0.3343
 6001TIP3    H139566   4.844   5.013   1.614 -2.1919  1.6892 -1.1283
 6001TIP3    H239567   4.962   4.990   1.521 -1.1046 -0.1359  0.6331
 6002TIP3   OH239568   4.318   1.227   1.553 -0.0417 -0.2128  0.2316
 6002TIP3    H139569   4.254   1.248   1.621 -0.0435  2.3129 -0.4656
 6002TIP3    H239570   4.269   1.233   1.471 -0.1190 -3.5233 -0.1165
 6003TIP3   OH239571   6.557   4.186   7.850 -0.3935 -0.2208 -0.5058
 6003TIP3    H139572   6.545   4.259   7.911  1.9676  0.3216 -0.6213
 6003TIP3    H239573   6.533   4.222   7.765  0.5791  0.3985 -0.5337
 6004TIP3   OH239574   2.810   1.282   7.619 -0.3862  0.0184 -0.0739
 6004TIP3    H139575   2.872   1.306   7.689 -0.2687 -0.7952  0.1130
 6004TIP3    H239576   2.857   1.302   7.538  0.6028 -1.6567  0.0419
 6005TIP3   OH239577   4.140   4.092   1.298  0.0368 -0.4971  0.0445
 6005TIP3    H139578   4.191   4.049   1.366  2.2445  1.2302 -0.3757
 6005TIP3    H239579   4.053   4.104   1.336  1.2375  0.5646  2.7053
 6006TIP3   OH239580   0.471   1.729   8.699  0.1505  0.2340 -0.2930
 6006TIP3    H139581   0.412   1.684   8.760  0.0805  0.9099  0.1428
 6006TIP3    H239582   0.465   1.821   8.723 -2.9104  1.2079 -3.7906
 6007TIP3   OH239583   0.157   3.492   1.702 -0.2043 -0.2153 -0.7243
 6007TIP3    H139584   0.170   3.526   1.791 -0.3816 -0.6795 -0.5168
 6007TIP3    H239585   0.191   3.402   1.706 -1.2125 -0.6162 -0.8276
 6008TIP3   OH239586   1.394   0.354   7.960 -1.1398 -0.3115  0.1333
 6008TIP3    H139587   1.402   0.394   7.874  0.0513  0.3075  0.5215
 6008TIP3    H239588   1.377   0.427   8.020 -0.9590 -0.6209  0.5702
 6009TIP3   OH239589   0.179   4.787   8.395  0.5865  0.9450  0.0132
 6009TIP3    H139590   0.234   4.748   8.464 -0.7238 -0.2366  0.4248
 6009TIP3    H239591   0.090   4.764   8.420 -0.2583  3.9010  0.0296
 6010TIP3   OH239592   3.984   4.508   8.355 -0.4659  0.3336  0.1584
 6010TIP3    H139593   3.905   4.525   8.304 -1.3983 -0.4919  1.2861
 6010TIP3    H239594   3.958   4.525   8.446 -0.3219 -2.9407  0.9214
 6011TIP3   OH239595   4.490   1.820   0.512  0.1480  0.0137  0.5605
 6011TIP3    H139596   4.460   1.848   0.426 -0.7241  0.3990  0.9816
 6011TIP3    H239597   4.530   1.735   0.497 -1.0596 -0.4678 -0.0404
 6012TIP3   OH239598   1.672   5.571   0.430  0.7180  0.3588  0.0301
 6012TIP3    H139599   1.629   5.563   0.344  1.1279 -1.3065 -0.0596
 6012TIP3    H239600   1.610   5.531   0.491  1.4344 -0.5890  0.1440
 6013TIP3   OH239601   2.700   5.797   0.113 -0.0975  0.1473  0.2968
 6013TIP3    H139602   2.792   5.777   0.131  0.0093  0.5397  0.1991
 6013TIP3    H239603   2.693   5.892   0.127 -0.5004  0.1105  0.3610
 6014TIP3   OH239604   5.179   5.390   8.688 -0.3271  0.3453 -1.2050
 6014TIP3    H139605   5.084   5.397   8.700 -0.3955  1.5862 -2.2912
 6014TIP3    H239606   5.190   5.317   8.627 -0.5983  0.3876 -1.3061
 6015TIP3   OH239607   6.322   1.530   6.963  0.3557 -0.3160  0.0616
 6015TIP3    H139608   6.261   1.559   6.895 -0.7061  1.1731  1.5733
 6015TIP3    H239609   6.361   1.611   6.996  0.3493 -0.9351  1.6632
 6016TIP3   OH239610   1.043   1.391   1.505 -0.5268 -0.1298  0.6361
 6016TIP3    H139611   1.082   1.305   1.498  2.6029  1.0364  2.0208
 6016TIP3    H239612   0.977   1.383   1.574  0.0513 -1.2866  1.0556
 6017TIP3   OH239613   0.829   6.318   1.792  0.1583  0.3866 -0.0302
 6017TIP3    H139614   0.803   6.331   1.884  0.8537 -0.9265  0.3685
 6017TIP3    H239615   0.896   6.386   1.777 -0.8853  1.4635  0.0061
 6018TIP3   OH239616   4.902   5.424   8.767 -0.4694  0.3958 -0.4129
 6018TIP3    H139617   4.895   5.441   8.861  0.5869 -0.2483 -0.1986
 6018TIP3    H239618   4.875   5.505   8.726  1.2687  1.5157  0.5071
 6019TIP3   OH239619   6.822   2.042   0.260  0.2677  0.2887 -0.4414
 6019TIP3    H139620   6.899   2.000   0.296  0.6690  1.2714 -0.1174
 6019TIP3    H239621   6.852   2.129   0.233 -0.6297  0.5389 -0.6882
 6020TIP3   OH239622   2.774   0.911   0.175 -0.0062  0.3733 -0.5196
 6020TIP3    H139623   2.849   0.965   0.198  0.4933 -0.3806 -0.3574
 6020TIP3    H239624   2.776   0.838   0.237  0.0937 -0.5349 -1.5538
 6021TIP3   OH239625   0.662   1.402   8.067 -0.3269  0.6636  0.0807
 6021TIP3    H139626   0.669   1.342   7.993  0.9686  1.9815 -0.9269
 6021TIP3    H239627   0.745   1.451   8.066 -0.9259  1.7849  1.4625
 6022TIP3   OH239628   2.212   3.822   8.791 -0.3420  0.4994  0.2240
 6022TIP3    H139629   2.243   3.835   8.701  0.7206  1.4132  0.7018
 6022TIP3    H239630   2.237   3.902   8.837 -0.8275  0.0214  1.3554
 6023TIP3   OH239631   1.244   5.257   1.864  0.3013 -0.6007  0.0036
 6023TIP3    H139632   1.244   5.206   1.946 -3.0673  1.7902  1.7420
 6023TIP3    H239633   1.186   5.208   1.806 -0.3806 -0.4198  0.5082
 6024TIP3   OH239634   1.439   4.431   1.488  0.1619 -0.3537  0.1008
 6024TIP3    H139635   1.459   4.522   1.510 -1.0566  0.5503 -2.2214
 6024TIP3    H239636   1.446   4.385   1.571  0.6253  1.8800  1.3935
 6025TIP3   OH239637   2.644   6.497   7.010 -0.1918  0.2051 -0.4331
 6025TIP3    H139638   2.650   6.413   6.965 -2.3131 -0.3421  0.1896
 6025TIP3    H239639   2.572   6.486   7.072 -0.7705  2.5919 -0.5793
 6026TIP3   OH239640   4.839   0.953   0.798 -0.4129  0.6885  0.2738
 6026TIP3    H139641   4.778   0.919   0.864 -1.4478  0.1018 -0.9558
 6026TIP3    H239642   4.901   1.006   0.848 -0.3154 -0.8893  1.9257
 6027TIP3   OH239643   6.074   4.280   7.434 -0.3197  0.5238  0.3558
 6027TIP3    H139644   6.096   4.198   7.390 -0.3141  0.6003  0.2142
 6027TIP3    H239645   6.122   4.347   7.386 -1.5103  0.8053 -0.4961
 6028TIP3   OH239646   1.065   5.123   1.650 -0.0437 -0.1347  0.1178
 6028TIP3    H139647   1.062   5.204   1.599 -0.1779  0.2420  0.7175
 6028TIP3    H239648   1.107   5.060   1.592  1.5299  0.7836  0.2038
 6029TIP3   OH239649   1.225   3.129   7.044  0.2639  0.2250  0.0238
 6029TIP3    H139650   1.300   3.150   6.989 -0.9453  1.1765 -1.3541
 6029TIP3    H239651   1.188   3.050   7.005 -0.1715  0.4890 -0.1113
 6030TIP3   OH239652   1.466   1.430   7.522  0.2733 -0.0730  0.3835
 6030TIP3    H139653   1.470   1.342   7.485 -3.5136 -0.4406  0.4146
 6030TIP3    H239654   1.531   1.430   7.592 -0.4770 -3.3327  1.2463
 6031TIP3   OH239655   2.173   1.384   7.650 -0.3095  0.1093 -0.7365
 6031TIP3    H139656   2.245   1.332   7.613  0.3702  0.8605 -0.5025
 6031TIP3    H239657   2.110   1.319   7.681  0.4165 -0.5750 -0.6626
 6032TIP3   OH239658   4.713   6.509   7.530 -0.5622  0.0744  0.0396
 6032TIP3    H139659   4.761   6.447   7.474 -2.6032 -0.3356 -1.3665
 6032TIP3    H239660   4.766   6.515   7.609  1.3876 -0.9305 -1.0976
 6033TIP3   OH239661   4.582   1.112   0.255  0.0245  0.1653 -0.6235
 6033TIP3    H139662   4.518   1.172   0.292  1.3140  1.1761  0.0441
 6033TIP3    H239663   4.633   1.082   0.330 -1.1205 -2.4980 -0.7974
 6034TIP3   OH239664   2.083   5.345   0.116 -0.1926  0.0632  0.1456
 6034TIP3    H139665   2.078   5.260   0.160 -1.2261  0.1268  0.1889
 6034TIP3    H239666   2.136   5.399   0.174  0.6467 -0.6051  0.0166
 6035TIP3   OH239667   2.125   4.899   6.273  0.0152 -0.2763 -0.3496
 6035TIP3    H139668   2.148   4.954   6.347 -0.8988  0.3099 -0.4924
 6035TIP3    H239669   2.068   4.953   6.219  1.7306 -0.1944 -2.1957
 6036TIP3   OH239670   1.146   2.365   0.036  0.1077  0.1516 -0.2276
 6036TIP3    H139671   1.065   2.387   0.083 -0.8566 -3.1356 -0.0422
 6036TIP3    H239672   1.123   2.372  -0.057  0.0352  0.5788 -0.1755
 6037TIP3   OH239673   3.436   1.632   7.379  0.3783  0.2135  0.0344
 6037TIP3    H139674   3.459   1.572   7.308  0.6539  0.8753 -0.4422
 6037TIP3    H239675   3.500   1.615   7.447 -1.0995 -1.8799  0.9991
 6038TIP3   OH239676   5.567   5.744   0.039 -0.2612 -0.5197  0.2725
 6038TIP3    H139677   5.643   5.700   0.000 -0.1219  0.4989 -0.6456
 6038TIP3    H239678   5.593   5.836   0.047 -1.5619 -0.0542 -0.5159
 6039TIP3   OH239679   2.582   3.082   1.367  0.1599 -0.1685  0.3575
 6039TIP3    H139680   2.597   3.130   1.449  1.0837  1.4392 -0.6862
 6039TIP3    H239681   2.646   3.011   1.369 -0.4811 -0.7441  1.4443
 6040TIP3   OH239682   2.681   6.246   1.765 -0.9147  0.2404  0.3219
 6040TIP3    H139683   2.666   6.166   1.814  1.0435 -1.2876 -1.3944
 6040TIP3    H239684   2.686   6.315   1.831  2.9167 -1.8672  2.5345
 6041TIP3   OH239685   6.632   0.046   6.964 -0.0562  0.3500 -0.0958
 6041TIP3    H139686   6.624   0.037   6.869 -0.7155  0.6625 -0.0709
 6041TIP3    H239687   6.542   0.055   6.995  0.2080  1.1003  0.4748
 6042TIP3   OH239688   4.934   2.353   1.054  0.2401 -0.4412  0.4738
 6042TIP3    H139689   4.874   2.380   0.985 -0.2025 -1.9198  0.2472
 6042TIP3    H239690   4.985   2.431   1.073 -0.4544  0.3227 -0.6734
 6043TIP3   OH239691   1.796   1.884   8.001 -0.0765  0.6573  0.6542
 6043TIP3    H139692   1.701   1.875   7.992 -0.2547 -0.6249  3.1423
 6043TIP3    H239693   1.828   1.794   8.008  1.0912  1.1389  1.7586
 6044TIP3   OH239694   6.366   3.455   1.819 -0.1415  0.1418  0.2454
 6044TIP3    H139695   6.413   3.371   1.828 -0.4743 -0.1107 -0.3139
 6044TIP3    H239696   6.361   3.489   1.908  1.8773  0.5963  0.2260
 6045TIP3   OH239697   5.724   5.281   7.007 -0.2823  0.2926 -0.0091
 6045TIP3    H139698   5.734   5.207   6.947 -0.9738  0.2214 -0.0506
 6045TIP3    H239699   5.658   5.337   6.965 -0.5641  0.3826  0.5400
 6046TIP3   OH239700   3.761   3.933   0.805  0.2441 -0.1075  0.1085
 6046TIP3    H139701   3.804   3.855   0.840 -0.9118 -0.4444  0.8578
 6046TIP3    H239702   3.667   3.913   0.810 -0.0425  0.8925 -0.7442
 6047TIP3   OH239703   5.004   3.395   0.954  0.2580 -0.1544 -0.2582
 6047TIP3    H139704   5.043   3.472   0.913 -0.1252 -0.4371 -1.1676
 6047TIP3    H239705   4.920   3.426   0.987  1.3824  0.5879  2.1577
 6048TIP3   OH239706   5.188   3.315   0.148  0.1204  0.3710 -0.8713
 6048TIP3    H139707   5.123   3.337   0.215 -0.7010 -1.7306 -0.9037
 6048TIP3    H239708   5.263   3.371   0.168  0.7625 -1.5561  3.1755
 6049TIP3   OH239709   6.434   4.023   1.411 -0.8873  0.3020 -0.2113
 6049TIP3    H139710   6.376   4.099   1.413 -1.0969  0.1479 -0.2830
 6049TIP3    H239711   6.502   4.045   1.348 -0.8259  0.5146 -0.0723
 6050TIP3   OH239712   4.401   0.973   0.827 -0.5768 -0.2798 -0.3220
 6050TIP3    H139713   4.422   0.942   0.740  1.3054 -1.5701  0.5369
 6050TIP3    H239714   4.424   1.066   0.827 -0.0159 -0.4215 -1.0040
 6051TIP3   OH239715   5.588   4.280   8.583 -0.2902  0.0688  0.3016
 6051TIP3    H139716   5.599   4.195   8.540 -1.9088  0.7809 -1.6851
 6051TIP3    H239717   5.675   4.301   8.617  0.3242 -2.0145  0.1328
 6052TIP3   OH239718   2.001   6.745   6.502 -0.2606 -0.4526 -0.2618
 6052TIP3    H139719   1.998   6.661   6.549  0.8582  0.0453  0.7595
 6052TIP3    H239720   1.912   6.780   6.512 -0.4066 -0.9644  0.3452
 6053TIP3   OH239721   5.992   0.889   0.874  0.3108  0.0104 -0.1210
 6053TIP3    H139722   5.922   0.953   0.884 -0.6165 -0.9890 -0.0231
 6053TIP3    H239723   5.949   0.812   0.837  1.0422 -1.1569  1.3192
 6054TIP3   OH239724   6.599   6.180   0.506 -0.3042  0.2476  0.3358
 6054TIP3    H139725   6.579   6.272   0.526 -1.2472 -0.3336  2.3346
 6054TIP3    H239726   6.680   6.184   0.456  0.0531  2.1401  0.9731
 6055TIP3   OH239727   1.413   1.647   6.866 -0.0186  0.6638 -0.7494
 6055TIP3    H139728   1.411   1.729   6.816  0.2698  0.8210 -0.5060
 6055TIP3    H239729   1.488   1.657   6.925 -0.0919  0.2975 -0.5938
 6056TIP3   OH239730   5.672   4.825   1.495 -0.2334 -0.6266 -0.6319
 6056TIP3    H139731   5.585   4.866   1.490  0.6517  1.3285 -1.2585
 6056TIP3    H239732   5.722   4.882   1.553  0.8380 -1.3049 -0.8536
 6057TIP3   OH239733   0.667   5.879   7.878 -0.1665 -0.5275 -0.4229
 6057TIP3    H139734   0.689   5.810   7.816 -0.9494 -2.9721  1.8807
 6057TIP3    H239735   0.652   5.835   7.961 -3.0239  2.1070  0.6788
 6058TIP3   OH239736   0.556   6.728   1.084 -0.0598 -0.2739 -0.0578
 6058TIP3    H139737   0.461   6.736   1.074 -0.0981 -1.0553 -0.3647
 6058TIP3    H239738   0.584   6.671   1.012  0.7164  0.3578 -0.2769
 6059TIP3   OH239739   3.287   4.478   1.865  0.3878 -0.4266  0.3378
 6059TIP3    H139740   3.244   4.564   1.867  1.0145 -0.1179  0.9564
 6059TIP3    H239741   3.299   4.455   1.957 -1.6252 -2.1487  0.2441
 6060TIP3   OH239742   4.980   0.052   7.337 -0.1136 -0.4871  0.3150
 6060TIP3    H139743   5.044  -0.001   7.289  1.4727 -0.0462  1.8172
 6060TIP3    H239744   4.937  -0.011   7.395  0.6264 -0.4328  0.9443
 6061TIP3   OH239745   4.154   1.964   1.042  0.3708  0.0449  0.1958
 6061TIP3    H139746   4.129   1.958   1.134  2.8258 -0.3036  0.8991
 6061TIP3    H239747   4.203   2.046   1.036 -0.8456  0.7131 -1.1162
 6062TIP3   OH239748   6.406   4.344   0.500 -0.5054  1.0862 -0.6916
 6062TIP3    H139749   6.485   4.385   0.465  2.1274 -2.3372  0.6662
 6062TIP3    H239750   6.412   4.356   0.594 -0.4484 -0.9241 -0.3919
 6063TIP3   OH239751   2.917   6.227   0.518  0.6306 -0.1156 -0.0410
 6063TIP3    H139752   2.850   6.175   0.561 -0.1567  1.4650  0.7173
 6063TIP3    H239753   2.888   6.232   0.426 -0.9892  1.5110  0.4951
 6064TIP3   OH239754   3.430   6.160   7.862 -0.3850  0.6966 -0.2488
 6064TIP3    H139755   3.455   6.223   7.930 -0.7877  0.8305 -0.2210
 6064TIP3    H239756   3.363   6.205   7.811  0.2889  0.7962 -1.0739
 6065TIP3   OH239757   1.985   3.424   1.889  0.2529  0.5052  0.3920
 6065TIP3    H139758   1.993   3.498   1.949 -0.5051  0.2358  0.8418
 6065TIP3    H239759   2.013   3.348   1.939 -0.4429  0.2684  0.4377
 6066TIP3   OH239760   4.226   3.547   7.867 -0.0063 -0.1480  0.4829
 6066TIP3    H139761   4.316   3.578   7.859 -0.2304  0.3884 -0.0650
 6066TIP3    H239762   4.203   3.517   7.779 -1.1180  1.8880  0.0146
 6067TIP3   OH239763   1.861   3.679   1.564 -0.2670  0.1238 -0.1338
 6067TIP3    H139764   1.778   3.673   1.516 -0.4089 -1.4107  0.2433
 6067TIP3    H239765   1.860   3.604   1.623  0.3709  1.3738  1.5474
 6068TIP3   OH239766   3.627   4.098   1.498 -0.1567 -0.1156 -0.2863
 6068TIP3    H139767   3.638   4.169   1.561  0.9251 -0.8037  0.3368
 6068TIP3    H239768   3.689   4.118   1.428  0.0485 -0.3732 -0.1786
 6069TIP3   OH239769   4.536   5.888   0.478  0.4610 -0.0873  0.2843
 6069TIP3    H139770   4.492   5.846   0.404  1.6621 -2.2117  0.6898
 6069TIP3    H239771   4.503   5.842   0.555 -0.8341  2.1484  1.1519
 6070TIP3   OH239772   5.713   0.297   1.040  0.0558  0.2672  0.4137
 6070TIP3    H139773   5.723   0.234   1.111  0.3834  0.5765  0.6401
 6070TIP3    H239774   5.618   0.299   1.023  0.0581 -0.4213  0.2788
 6071TIP3   OH239775   4.360   4.813   8.441 -0.6925  1.0179 -0.1856
 6071TIP3    H139776   4.301   4.862   8.498 -0.0956  1.3311  0.1763
 6071TIP3    H239777   4.311   4.801   8.360 -1.2988  1.1523  0.1573
 6072TIP3   OH239778   6.613   3.266   1.783  0.1290  0.3047 -0.3353
 6072TIP3    H139779   6.577   3.250   1.696 -0.2017 -1.0353  0.0292
 6072TIP3    H239780   6.617   3.180   1.824  0.9778  0.8186  0.7191
 6073TIP3   OH239781   0.345   5.705   7.853 -0.0077  0.1035 -0.1577
 6073TIP3    H139782   0.320   5.780   7.908 -1.6079 -0.0659 -0.5927
 6073TIP3    H239783   0.335   5.737   7.763 -0.0871 -0.4345 -0.3446
 6074TIP3   OH239784   2.131   5.890   7.824 -0.2566 -0.4782 -0.0034
 6074TIP3    H139785   2.216   5.854   7.850 -0.4307  0.0985  1.4452
 6074TIP3    H239786   2.108   5.841   7.745  1.2960 -0.8258 -0.2717
 6075TIP3   OH239787   1.324   1.378   1.405 -0.1517 -0.3337  0.2400
 6075TIP3    H139788   1.358   1.290   1.388 -0.5478 -0.4831  0.2215
 6075TIP3    H239789   1.230   1.370   1.391  0.0397  0.6362 -2.1486
 6076TIP3   OH239790   5.531   1.671   7.362 -0.2560 -0.2074 -0.3629
 6076TIP3    H139791   5.576   1.590   7.340  0.0981 -0.0998 -0.0440
 6076TIP3    H239792   5.438   1.651   7.350 -0.1362 -0.4647 -0.9164
 6077TIP3   OH239793   2.254   2.040   7.370 -0.7070  0.3116 -0.5513
 6077TIP3    H139794   2.189   1.987   7.326  1.4553 -2.8909 -0.1995
 6077TIP3    H239795   2.245   2.018   7.463 -0.2159  1.1448 -0.2868
 6078TIP3   OH239796   0.911   1.238   8.531  0.5082  0.2852  0.0185
 6078TIP3    H139797   0.877   1.262   8.445 -0.4386  3.3243  1.0921
 6078TIP3    H239798   0.833   1.235   8.587  0.9119 -3.1422  0.5786
 6079TIP3   OH239799   5.495   1.427   6.364  0.0196  0.4948 -0.4853
 6079TIP3    H139800   5.450   1.343   6.370  0.9312  0.0510  0.4540
 6079TIP3    H239801   5.578   1.413   6.409  0.3610  1.7859 -0.6716
 6080TIP3   OH239802   1.800   0.509   0.110 -0.5001  0.2270  0.2181
 6080TIP3    H139803   1.850   0.587   0.132 -0.5678  0.4352 -0.3452
 6080TIP3    H239804   1.780   0.468   0.194  0.5246  0.1976  0.4559
 6081TIP3   OH239805   2.375   5.213   7.499 -0.2778  0.0050 -0.3578
 6081TIP3    H139806   2.358   5.172   7.583  1.2835 -0.2303 -0.1269
 6081TIP3    H239807   2.464   5.187   7.476  0.9294  3.3444 -0.0927
 6082TIP3   OH239808   5.748   5.054   0.196 -0.0028  0.0265  0.4006
 6082TIP3    H139809   5.840   5.026   0.200  0.0329 -0.3216 -1.9025
 6082TIP3    H239810   5.706   4.992   0.137 -1.6500  0.4335  1.0901
 6083TIP3   OH239811   5.788   3.048   7.656  0.0669 -0.5033  0.1188
 6083TIP3    H139812   5.705   3.080   7.619  0.1131 -1.4528 -0.8352
 6083TIP3    H239813   5.774   3.053   7.751 -0.3658  1.1705  0.0121
 6084TIP3   OH239814   0.224   0.134   2.048  0.8878 -0.6301 -0.1284
 6084TIP3    H139815   0.150   0.101   2.098  0.8769 -1.8345 -0.8814
 6084TIP3    H239816   0.198   0.222   2.020  0.8867  0.0596  1.9083
 6085TIP3   OH239817   5.404   4.847   0.855 -0.1512 -0.3520 -0.1815
 6085TIP3    H139818   5.475   4.895   0.813 -0.0602 -0.9945 -0.7781
 6085TIP3    H239819   5.425   4.755   0.839 -1.4696 -0.5403 -0.9536
 6086TIP3   OH239820   1.643   4.423   0.008  0.2256  0.0441  0.6592
 6086TIP3    H139821   1.698   4.345   0.009 -1.8206 -1.4646  0.0473
 6086TIP3    H239822   1.686   4.483   0.070  1.8300 -1.5343  1.1663
 6087TIP3   OH239823   3.665   1.105   1.919 -0.1017  0.3974  0.6666
 6087TIP3    H139824   3.610   1.171   1.961  1.6933  1.7341  1.0433
 6087TIP3    H239825   3.663   1.030   1.979  0.0619  1.1711  1.6539
 6088TIP3   OH239826   5.156   1.761   7.472 -0.3019 -0.1511 -0.1641
 6088TIP3    H139827   5.184   1.851   7.456  1.1186 -0.6587 -0.7257
 6088TIP3    H239828   5.090   1.744   7.405  0.2007  0.1438 -0.7461
 6089TIP3   OH239829   3.497   4.769   0.570  0.3821  0.2557  0.0788
 6089TIP3    H139830   3.556   4.753   0.497  1.5012 -1.2982  1.2409
 6089TIP3    H239831   3.448   4.687   0.580 -2.5704  1.6933 -1.2691
 6090TIP3   OH239832   1.478   2.109   8.683 -0.1960  0.0853 -0.4333
 6090TIP3    H139833   1.471   2.048   8.610 -2.0309  0.2035 -0.3969
 6090TIP3    H239834   1.388   2.118   8.716  0.3178  1.3943  0.7170
 6091TIP3   OH239835   1.352   4.039   1.796 -0.1446  0.2384 -0.3818
 6091TIP3    H139836   1.385   4.128   1.804 -0.1855  0.3851 -1.6895
 6091TIP3    H239837   1.276   4.036   1.855 -0.2092  1.0897 -0.4147
 6092TIP3   OH239838   6.681   4.365   1.235  0.1070  0.5271  0.8924
 6092TIP3    H139839   6.771   4.382   1.208  1.3517 -1.6250  3.3370
 6092TIP3    H239840   6.683   4.370   1.330 -2.0060 -1.1262  1.0837
 6093TIP3   OH239841   5.427   0.861   8.683 -0.1380  0.0912 -0.3792
 6093TIP3    H139842   5.459   0.776   8.652  0.9260  0.5197 -0.4979
 6093TIP3    H239843   5.425   0.916   8.604  1.3692  0.8203  0.0546
 6094TIP3   OH239844   1.537   1.974   0.709  0.1275 -0.8408 -0.3122
 6094TIP3    H139845   1.536   1.959   0.803  0.7287 -0.7450 -0.2878
 6094TIP3    H239846   1.445   1.965   0.682 -0.3456  0.9076  0.5691
 6095TIP3   OH239847   2.093   6.475   6.904  0.0884 -0.2998 -0.2077
 6095TIP3    H139848   2.124   6.401   6.853  0.5898  0.6834 -1.3853
 6095TIP3    H239849   1.998   6.468   6.902  0.1323 -1.3680  0.4339
 6096TIP3   OH239850   1.767   5.968   8.351 -0.0386 -0.0209 -0.3673
 6096TIP3    H139851   1.808   6.035   8.297  0.8055 -1.1117 -1.1138
 6096TIP3    H239852   1.699   5.930   8.295 -0.1482 -0.1649 -0.1418
 6097TIP3   OH239853   6.024   2.634   7.603  0.0845  0.0196 -0.4371
 6097TIP3    H139854   6.037   2.686   7.524 -1.4734  1.5685  0.2542
 6097TIP3    H239855   5.955   2.680   7.651 -0.1973 -1.7920  1.0311
 6098TIP3   OH239856   6.033   1.954   8.296 -0.2106 -0.4880 -0.5733
 6098TIP3    H139857   5.989   1.938   8.379  0.6121  0.8079  0.1611
 6098TIP3    H239858   6.118   1.992   8.321 -0.7271  1.8428 -1.9847
 6099TIP3   OH239859   2.662   1.788   7.388  0.0085 -0.4556  0.1431
 6099TIP3    H139860   2.636   1.833   7.307 -0.2898  2.3322  1.6408
 6099TIP3    H239861   2.583   1.746   7.418 -0.4968  0.4437  0.1193
 6100TIP3   OH239862   0.440   6.022   8.693  0.2755  0.6806  0.0046
 6100TIP3    H139863   0.436   6.057   8.782 -1.7536  0.2228  0.1259
 6100TIP3    H239864   0.439   5.927   8.704  1.2890  0.5930 -0.4963
 6101TIP3   OH239865   0.004   0.012   1.412  0.0879  0.5053 -0.4947
 6101TIP3    H139866   0.089   0.035   1.449 -0.1335 -0.1360  0.4678
 6101TIP3    H239867  -0.032   0.095   1.381  0.6579  0.9377 -0.0285
 6102TIP3   OH239868   6.305   2.894   0.983  0.5400  0.2357 -0.5667
 6102TIP3    H139869   6.214   2.914   1.006  0.3071 -0.8597 -0.4862
 6102TIP3    H239870   6.306   2.894   0.888 -0.4344 -3.2474 -0.7169
 6103TIP3   OH239871   1.136   5.356   6.724  0.0943  0.1288 -0.1242
 6103TIP3    H139872   1.098   5.269   6.714 -1.1616  0.5684  0.6385
 6103TIP3    H239873   1.064   5.411   6.755  0.2501  2.0015 -2.7795
 6104TIP3   OH239874   3.362   1.842   6.923  0.0339  0.9321  0.3640
 6104TIP3    H139875   3.301   1.826   6.995  1.1200 -1.8888  0.7631
 6104TIP3    H239876   3.328   1.789   6.851  1.7488 -0.3957  0.4822
 6105TIP3   OH239877   1.379   5.436   6.824 -0.0413 -0.3042 -0.4392
 6105TIP3    H139878   1.288   5.409   6.808 -0.1973 -0.5105  0.7011
 6105TIP3    H239879   1.421   5.358   6.859  0.0738  0.2817  0.8096
 6106TIP3   OH239880   0.392   4.514   1.037 -0.5255  0.3327 -0.2446
 6106TIP3    H139881   0.376   4.460   1.114  0.5731  0.9315  0.4222
 6106TIP3    H239882   0.316   4.572   1.033 -1.5151 -0.9465 -0.7334
 6107TIP3   OH239883   0.582   3.100   0.912 -0.7629 -0.3082 -0.2060
 6107TIP3    H139884   0.629   3.025   0.878  0.9641 -0.6507  2.5703
 6107TIP3    H239885   0.651   3.161   0.940 -1.9511  0.1778  1.9183
 6108TIP3   OH239886   0.424   3.295   6.527  0.1387  0.3991  0.0677
 6108TIP3    H139887   0.468   3.213   6.504 -1.5993 -0.1085 -1.6400
 6108TIP3    H239888   0.495   3.352   6.559  1.7893 -0.8788 -1.1643
 6109TIP3   OH239889   2.754   5.726   7.505  0.1234 -0.0585 -0.0362
 6109TIP3    H139890   2.698   5.649   7.493  1.5980 -1.3232  0.8541
 6109TIP3    H239891   2.843   5.692   7.502  0.9048  1.9417 -1.6464
 6110TIP3   OH239892   1.062   5.274   8.423  0.3640 -0.8829 -0.2602
 6110TIP3    H139893   0.992   5.319   8.471  0.2571  0.1160 -1.2974
 6110TIP3    H239894   1.017   5.234   8.348  0.9846  0.3642 -1.3275
 6111TIP3   OH239895   2.304   6.169   1.495  0.1490 -0.2309 -0.2058
 6111TIP3    H139896   2.399   6.172   1.484  0.1316 -0.1575 -0.3441
 6111TIP3    H239897   2.276   6.096   1.440  0.1040 -0.1253 -0.3221
 6112TIP3   OH239898   3.470   2.036   6.770 -0.4331  0.3204 -0.8516
 6112TIP3    H139899   3.451   2.008   6.681 -1.1082 -0.6033 -0.4360
 6112TIP3    H239900   3.436   1.965   6.825  0.2551  0.7263  0.1258
 6113TIP3   OH239901   1.077   6.512   7.558 -0.1738  0.0358 -0.2951
 6113TIP3    H139902   1.078   6.607   7.555 -0.5665  0.0159 -2.1791
 6113TIP3    H239903   1.170   6.487   7.559 -0.0647  0.4275 -0.6328
 6114TIP3   OH239904   5.219   4.525   1.099  0.3997 -0.3254  0.2264
 6114TIP3    H139905   5.178   4.607   1.072 -0.5572 -0.5527  0.9399
 6114TIP3    H239906   5.150   4.460   1.090  0.3847 -0.6112  2.0901
 6115TIP3   OH239907   3.889   2.195   8.276  0.2386  0.6487  0.2448
 6115TIP3    H139908   3.905   2.265   8.339  1.7562  0.2525  0.3401
 6115TIP3    H239909   3.943   2.122   8.306 -1.6197 -0.7526  0.3809
 6116TIP3   OH239910   2.084   4.666   8.015 -0.2354  0.0985  0.4233
 6116TIP3    H139911   2.090   4.724   7.939 -0.9307  0.4936  0.6637
 6116TIP3    H239912   2.012   4.607   7.994 -0.2333  0.0187  0.6419
 6117TIP3   OH239913   6.799   4.282   7.573  0.6735  0.1571 -0.0992
 6117TIP3    H139914   6.853   4.356   7.600  2.1829 -1.2405  0.9772
 6117TIP3    H239915   6.842   4.206   7.614 -0.2283 -1.4187 -1.9450
 6118TIP3   OH239916   0.442   3.633   0.271 -0.0343  0.5066 -0.3952
 6118TIP3    H139917   0.352   3.664   0.285  0.1472  0.5957  0.6183
 6118TIP3    H239918   0.493   3.712   0.257  0.4042  0.7149  2.0519
 6119TIP3   OH239919   5.279   4.083   7.398  0.2312 -0.3373  0.0081
 6119TIP3    H139920   5.262   4.118   7.311  0.8033  1.9301  0.7489
 6119TIP3    H239921   5.365   4.041   7.391  0.1964 -0.3239 -0.5386
 6120TIP3   OH239922   2.374   5.891   8.411 -0.3917 -0.2649 -0.2633
 6120TIP3    H139923   2.350   5.983   8.422  0.7807 -0.1058  1.2533
 6120TIP3    H239924   2.469   5.889   8.425 -0.3422 -1.6717 -0.6105
 6121TIP3   OH239925   2.055   5.710   1.500  0.1953 -0.0865  0.3841
 6121TIP3    H139926   2.073   5.620   1.528 -1.8854 -0.4656  0.6205
 6121TIP3    H239927   2.049   5.759   1.581  0.7401  0.1763  0.2745
 6122TIP3   OH239928   5.967   5.922   7.476 -0.0557  0.4952 -0.2398
 6122TIP3    H139929   5.959   5.964   7.390 -0.1198  1.1554  0.0787
 6122TIP3    H239930   6.058   5.893   7.481  0.5424  2.3074  0.2772
 6123TIP3   OH239931   5.255   2.677   1.076  0.0924  0.2559 -0.1186
 6123TIP3    H139932   5.308   2.674   0.996  1.1208  1.7438  0.4831
 6123TIP3    H239933   5.309   2.635   1.142 -0.4927 -0.3858 -0.0369
 6124TIP3   OH239934   1.333   5.161   0.965 -0.4996  0.1594  0.5181
 6124TIP3    H139935   1.396   5.089   0.954 -0.7647 -0.4238  2.4365
 6124TIP3    H239936   1.381   5.239   0.938  0.2520 -0.5573 -0.3009
 6125TIP3   OH239937   5.292   1.042   7.974  0.3407  0.4952 -0.0415
 6125TIP3    H139938   5.373   0.992   7.974 -0.0089 -0.0962  0.6103
 6125TIP3    H239939   5.287   1.080   7.887  1.5651  0.9657  0.0747
 6126TIP3   OH239940   3.034   3.525   6.755  0.8589 -0.2422  0.5554
 6126TIP3    H139941   3.074   3.515   6.669  0.0589  0.3828  0.1028
 6126TIP3    H239942   2.944   3.550   6.737  1.0686  1.3757  1.5704
 6127TIP3   OH239943   1.299   1.863   8.128 -0.1383  0.4362 -0.1944
 6127TIP3    H139944   1.282   1.869   8.222  0.3115  2.4454 -0.1947
 6127TIP3    H239945   1.228   1.913   8.088  0.0202  0.1244 -0.8655
 6128TIP3   OH239946   6.113   0.462   0.911  0.3843  0.3320  0.2898
 6128TIP3    H139947   6.060   0.487   0.986 -0.7640 -0.1725 -0.3244
 6128TIP3    H239948   6.107   0.536   0.851  1.8812  1.0355  0.9615
 6129TIP3   OH239949   1.252   5.514   8.682  0.5141  0.5174 -0.0581
 6129TIP3    H139950   1.226   5.474   8.599  1.4564  0.8197 -0.5058
 6129TIP3    H239951   1.336   5.473   8.703 -0.3712 -0.5972  1.4694
 6130TIP3   OH239952   1.450   4.990   1.322 -0.3299 -0.3168 -0.1712
 6130TIP3    H139953   1.500   5.059   1.279 -0.1625  0.4710  1.2184
 6130TIP3    H239954   1.516   4.927   1.349  0.1281  1.1290  2.4157
 6131TIP3   OH239955   4.077   1.065   0.461  0.6078  0.3280  0.6073
 6131TIP3    H139956   4.083   1.015   0.542  0.0286 -2.0621 -0.7368
 6131TIP3    H239957   3.983   1.069   0.442  0.6807  1.5081  0.3831
 6132TIP3   OH239958   3.233   1.653   8.730  0.8544  0.0208  0.3900
 6132TIP3    H139959   3.143   1.619   8.731  0.9683 -0.2769  1.1677
 6132TIP3    H239960   3.250   1.672   8.638 -0.1871  0.5669  0.2986
 6133TIP3   OH239961   3.518   3.069   8.766 -0.8423  0.4967  0.0110
 6133TIP3    H139962   3.588   3.086   8.702 -0.4294  2.8923  1.0271
 6133TIP3    H239963   3.487   2.981   8.743  0.7899  0.3705 -2.0576
 6134TIP3   OH239964   4.222   2.689   6.583  0.0623 -0.0196  0.2835
 6134TIP3    H139965   4.250   2.776   6.556  0.6883  0.2600  1.7416
 6134TIP3    H239966   4.232   2.634   6.505  3.5865  0.3101  0.3764
 6135TIP3   OH239967   0.892   1.800   8.161  0.2632  0.7163  0.4920
 6135TIP3    H139968   0.899   1.709   8.191 -0.3419 -0.3082 -2.2271
 6135TIP3    H239969   0.803   1.826   8.184  0.1409  0.3053  0.4915
 6136TIP3   OH239970   1.798   3.023   8.312 -0.2791 -0.1179  0.6448
 6136TIP3    H139971   1.848   2.968   8.372  2.5924  1.5149 -0.0555
 6136TIP3    H239972   1.743   2.962   8.262  1.5904 -2.1504  0.9593
 6137TIP3   OH239973   0.350   1.128   0.463 -0.5300 -0.0055 -0.3072
 6137TIP3    H139974   0.312   1.133   0.551  1.9153  0.2689  0.8096
 6137TIP3    H239975   0.285   1.169   0.407 -3.2647 -2.2841  0.9215
 6138TIP3   OH239976   3.301   2.826   0.171  0.5619  0.0171 -0.1507
 6138TIP3    H139977   3.288   2.737   0.138  0.0638 -0.2296  0.6833
 6138TIP3    H239978   3.264   2.882   0.103 -0.4254 -0.4753 -0.0331
 6139TIP3   OH239979   2.312   4.638   1.311  0.4517 -0.2862 -0.2240
 6139TIP3    H139980   2.313   4.731   1.333  0.9720 -0.7658  2.0945
 6139TIP3    H239981   2.263   4.597   1.382  0.6082 -1.8414 -0.9555
 6140TIP3   OH239982   0.629   1.944   8.183 -0.3007 -0.1765  0.1581
 6140TIP3    H139983   0.586   1.896   8.112 -2.0827  1.3056  0.1660
 6140TIP3    H239984   0.697   1.996   8.140 -2.7500  2.3863 -0.9274
 6141TIP3   OH239985   6.274   2.202   7.340  0.5545  0.0461  0.3830
 6141TIP3    H139986   6.281   2.279   7.284  2.1433  1.7763  2.7304
 6141TIP3    H239987   6.325   2.135   7.296  1.4196  1.2183 -0.4534
 6142TIP3   OH239988   5.534   2.438   2.516 -0.2040 -0.3853  0.3096
 6142TIP3    H139989   5.461   2.498   2.500  0.3455  0.1362 -0.3351
 6142TIP3    H239990   5.612   2.494   2.513  0.5237 -1.3830 -2.3434
 6143TIP3   OH239991   5.683   6.743   7.094 -0.2653  0.0616  0.7975
 6143TIP3    H139992   5.741   6.685   7.045 -0.9247  0.6168 -0.7023
 6143TIP3    H239993   5.598   6.735   7.050 -1.5395 -1.1559  3.2603
 6144TIP3   OH239994   6.008   6.574   7.115  0.2600 -0.3990  0.0909
 6144TIP3    H139995   5.974   6.508   7.175  0.5960 -2.5174 -1.8921
 6144TIP3    H239996   5.943   6.578   7.044  0.9842  0.2841 -0.5615
 6145TIP3   OH239997   3.344   5.669   6.950 -0.3011 -0.2484  0.4482
 6145TIP3    H139998   3.327   5.587   6.905  1.2830 -0.3041 -0.0967
 6145TIP3    H239999   3.321   5.737   6.886 -1.0399 -0.2653  0.6876
 6146TIP3   OH240000   5.106   5.327   0.203 -0.4456  0.4434 -0.0979
 6146TIP3    H140001   5.032   5.282   0.245 -0.6287  0.1552 -0.7189
 6146TIP3    H240002   5.071   5.413   0.179 -0.5131  0.3880 -0.1964
 6147TIP3   OH240003   1.791   3.983   2.598 -0.4552  0.0750  0.3500
 6147TIP3    H140004   1.731   3.986   2.523  1.3503  0.7869 -1.1361
 6147TIP3    H240005   1.742   3.937   2.666 -2.1874 -0.5458 -1.2345
 6148TIP3   OH240006   5.546   5.343   7.696 -0.0905  0.6138  0.0406
 6148TIP3    H140007   5.619   5.344   7.759 -1.2808 -0.2386  1.5082
 6148TIP3    H240008   5.468   5.329   7.750 -1.4168  1.8998 -1.4309
 6149TIP3   OH240009   0.122   0.471   7.382  0.1907 -0.5347 -0.1525
 6149TIP3    H140010   0.144   0.467   7.475 -0.3425 -1.3352 -0.0422
 6149TIP3    H240011   0.045   0.528   7.378  1.5226  1.3082 -0.3943
 6150TIP3   OH240012   0.362   4.273   6.254 -0.1326 -0.0036 -0.1602
 6150TIP3    H140013   0.391   4.319   6.175  0.4812  0.8532  0.5418
 6150TIP3    H240014   0.369   4.339   6.324  0.6463 -1.1228  0.8565
 6151TIP3   OH240015   5.112   0.449   6.511  0.7423  1.0517  0.4396
 6151TIP3    H140016   5.097   0.358   6.535  0.5639  1.0187  0.2095
 6151TIP3    H240017   5.205   0.464   6.528  1.1522  0.3697 -1.0345
 6152TIP3   OH240018   0.968   6.619   1.203 -0.1020  0.4999  0.7882
 6152TIP3    H140019   1.053   6.617   1.159 -0.0595  0.6179  0.8641
 6152TIP3    H240020   0.971   6.545   1.264 -0.7595 -0.6425 -0.5054
 6153TIP3   OH240021   4.863   3.585   1.310  0.0132 -0.7155 -0.8000
 6153TIP3    H140022   4.951   3.611   1.282 -0.0819  0.1905 -0.2986
 6153TIP3    H240023   4.808   3.603   1.234 -0.3264  2.2107  0.0140
 6154TIP3   OH240024   5.069   4.177   2.513  0.0596  0.3812  0.5059
 6154TIP3    H140025   4.995   4.128   2.478  1.4722 -2.5362  1.2675
 6154TIP3    H240026   5.092   4.239   2.444 -1.9966  0.2107 -0.4171
 6155TIP3   OH240027   4.627   0.050   0.360  0.3347 -0.0538 -0.4832
 6155TIP3    H140028   4.561   0.118   0.345 -0.2788 -0.2960  0.8907
 6155TIP3    H240029   4.643   0.012   0.274 -0.3826  0.8725 -1.0423
 6156TIP3   OH240030   1.433   2.807   1.124  0.6032 -0.6697 -0.0486
 6156TIP3    H140031   1.409   2.851   1.206  0.2551 -1.1125  0.0883
 6156TIP3    H240032   1.360   2.825   1.065  0.9697 -0.1315 -0.3575
 6157TIP3   OH240033   1.320   5.209   7.308  0.1429 -0.0383  0.1282
 6157TIP3    H140034   1.392   5.218   7.246 -0.7085 -3.0642 -1.5581
 6157TIP3    H240035   1.245   5.249   7.264 -0.0145 -0.3045  0.1514
 6158TIP3   OH240036   0.267   4.578   1.792 -0.3361 -0.9138  0.6630
 6158TIP3    H140037   0.188   4.608   1.837 -1.1171  0.9824 -1.7686
 6158TIP3    H240038   0.335   4.640   1.819 -0.3754 -0.8333  0.5770
 6159TIP3   OH240039   6.760   6.249   1.297  0.0641  0.1453 -0.9049
 6159TIP3    H140040   6.810   6.167   1.302  1.7514  0.7210 -4.6029
 6159TIP3    H240041   6.671   6.222   1.274 -0.0950 -0.6858  0.5543
 6160TIP3   OH240042   1.035   6.617   8.523 -0.1787  0.2349 -0.0477
 6160TIP3    H140043   0.962   6.583   8.575 -0.1980  1.6061  0.8842
 6160TIP3    H240044   1.113   6.579   8.565 -0.2237  0.9490  0.7149
 6161TIP3   OH240045   1.433   3.747   0.193  0.2705  0.8785  0.7811
 6161TIP3    H140046   1.459   3.679   0.255  0.6058  2.2386  2.2165
 6161TIP3    H240047   1.512   3.767   0.144  0.0379 -0.1188 -0.0178
 6162TIP3   OH240048   4.112   1.713   0.003 -0.1809  0.1279 -0.2388
 6162TIP3    H140049   4.119   1.668  -0.081 -0.3680  1.4066 -0.9576
 6162TIP3    H240050   4.052   1.785  -0.013 -0.9563 -0.1523  1.2422
 6163TIP3   OH240051   5.672   4.484   8.383  0.3633 -0.2883  0.2886
 6163TIP3    H140052   5.631   4.566   8.409  0.6277  0.4418 -1.4294
 6163TIP3    H240053   5.635   4.419   8.443  0.1872  1.0656  1.7218
 6164TIP3   OH240054   3.831   3.626   1.749  0.2667  0.3274 -0.4388
 6164TIP3    H140055   3.864   3.542   1.780 -0.2494  0.5824  0.8578
 6164TIP3    H240056   3.905   3.686   1.761 -0.2480  0.6533  1.3819
 6165TIP3   OH240057   5.903   3.081   1.356 -0.3680  0.8198 -0.0677
 6165TIP3    H140058   5.912   3.089   1.451  0.0631  0.4057 -0.0699
 6165TIP3    H240059   5.809   3.085   1.340 -0.6412 -1.6143  0.6167
 6166TIP3   OH240060   0.457   4.350   0.012 -0.2945  0.7732 -0.4444
 6166TIP3    H140061   0.437   4.380  -0.077  0.3143 -0.6577 -1.0936
 6166TIP3    H240062   0.398   4.276   0.026 -1.1459  1.6491  0.7794
 6167TIP3   OH240063   3.319   2.779   8.696 -0.3015 -0.4118 -0.2237
 6167TIP3    H140064   3.304   2.689   8.668  0.7821 -1.4109  2.1770
 6167TIP3    H240065   3.238   2.824   8.675 -1.0183 -2.0256 -1.1125
 6168TIP3   OH240066   3.721   3.368   6.201  0.1395 -0.3567  0.3563
 6168TIP3    H140067   3.695   3.392   6.112  1.0725 -0.3990  0.0628
 6168TIP3    H240068   3.715   3.273   6.203  0.1261 -0.3561  0.3384
 6169TIP3   OH240069   6.539   1.422   2.751 -0.2447 -0.0871  0.5166
 6169TIP3    H140070   6.519   1.347   2.696  2.3755 -1.4425  1.2627
 6169TIP3    H240071   6.597   1.477   2.697 -1.7667  1.2113  0.1437
 6170TIP3   OH240072   6.615   1.839   7.872 -0.0629 -0.1034 -0.8064
 6170TIP3    H140073   6.598   1.786   7.795 -0.1605 -0.7770 -0.3276
 6170TIP3    H240074   6.699   1.806   7.906  0.4585  0.8227 -1.1518
 6171TIP3   OH240075   3.660   5.867   6.413 -0.1268 -0.3357  0.1366
 6171TIP3    H140076   3.636   5.779   6.383  0.8719  0.2216 -2.5621
 6171TIP3    H240077   3.750   5.879   6.384 -0.5516  1.9433 -0.4321
 6172TIP3   OH240078   0.283   3.935   8.558 -0.1449 -0.0172 -0.2677
 6172TIP3    H140079   0.338   4.012   8.540  0.5734 -0.5429 -0.3523
 6172TIP3    H240080   0.200   3.955   8.516 -0.5879  1.4925  1.2162
 6173TIP3   OH240081   5.428   2.427   7.302  0.5604 -0.0580  0.0546
 6173TIP3    H140082   5.365   2.442   7.371 -1.2182 -1.9459 -1.0630
 6173TIP3    H240083   5.422   2.505   7.246  1.2553  0.9895  1.3793
 6174TIP3   OH240084   1.325   4.185   2.124 -0.1498 -0.0062 -0.2943
 6174TIP3    H140085   1.303   4.197   2.032  0.7454 -1.3302 -0.7022
 6174TIP3    H240086   1.411   4.143   2.123  0.2860  0.7827  1.1660
 6175TIP3   OH240087   5.161   0.528   1.733  0.3702 -0.0510 -0.2706
 6175TIP3    H140088   5.128   0.438   1.732  0.3728 -0.0468 -1.2112
 6175TIP3    H240089   5.200   0.538   1.820 -1.6611 -0.1988  0.7024
 6176TIP3   OH240090   2.169   3.139   6.267  0.2329  0.6094 -0.2755
 6176TIP3    H140091   2.144   3.157   6.358  0.4718  1.1235 -0.3064
 6176TIP3    H240092   2.089   3.154   6.217  0.5856  2.3287 -0.3844
 6177TIP3   OH240093   4.527   6.602   8.044 -0.2914  0.0144 -0.4446
 6177TIP3    H140094   4.571   6.638   7.967 -0.3602  2.7128  0.6513
 6177TIP3    H240095   4.488   6.520   8.014  1.1054  0.1357 -2.7952
 6178TIP3   OH240096   6.676   5.108   8.573  0.1778  0.0881 -0.0945
 6178TIP3    H140097   6.747   5.172   8.584 -0.6869  0.8567  1.1825
 6178TIP3    H240098   6.687   5.077   8.483  2.2886 -0.0117  0.1285
 6179TIP3   OH240099   2.377   5.886   6.135  0.1855 -0.5305 -0.0938
 6179TIP3    H140100   2.426   5.952   6.085 -1.1140  0.0879 -0.5983
 6179TIP3    H240101   2.445   5.830   6.173  1.3893  1.3132  0.6837
 6180TIP3   OH240102   4.936   1.733   6.528  0.8568  0.2088 -0.8008
 6180TIP3    H140103   4.936   1.644   6.494 -0.7825  0.2660 -1.0512
 6180TIP3    H240104   4.878   1.781   6.468  1.6916  1.4365 -0.6586
 6181TIP3   OH240105   2.097   0.497   8.086 -0.5188 -0.8524  0.5643
 6181TIP3    H140106   2.183   0.456   8.099  0.5933  1.0747 -0.1880
 6181TIP3    H240107   2.078   0.484   7.993 -0.8549 -0.9576  0.6473
 6182TIP3   OH240108   5.348   0.740   2.051 -0.1796 -0.1199 -0.2469
 6182TIP3    H140109   5.306   0.770   2.131 -0.3439  0.6845 -0.6231
 6182TIP3    H240110   5.413   0.676   2.080 -0.4020 -0.0133  0.5009
 6183TIP3   OH240111   3.750   3.216   5.913  0.1732  0.2089  0.5444
 6183TIP3    H140112   3.666   3.174   5.930 -0.2130  1.1143  0.9536
 6183TIP3    H240113   3.729   3.309   5.905  1.1982  0.5147  1.1314
 6184TIP3   OH240114   6.055   1.954   2.387 -0.0824 -0.6171 -0.3762
 6184TIP3    H140115   5.980   1.959   2.447  0.4474 -0.3003  0.2737
 6184TIP3    H240116   6.028   2.006   2.312 -0.2802  0.0274  0.1277
 6185TIP3   OH240117   1.742   3.092   7.006  0.4298  0.7242 -0.4042
 6185TIP3    H140118   1.695   3.109   6.925 -0.8469 -0.4790  0.0379
 6185TIP3    H240119   1.834   3.103   6.984  0.0511  1.3994 -1.7464
 6186TIP3   OH240120   5.244   4.524   7.242  0.1553 -0.2456  0.2578
 6186TIP3    H140121   5.225   4.509   7.149 -1.3371 -1.9128  0.7737
 6186TIP3    H240122   5.315   4.463   7.261 -0.2481 -0.6688  0.4323
 6187TIP3   OH240123   0.116   4.162   6.265  0.9975 -0.2452 -0.7009
 6187TIP3    H140124   0.211   4.160   6.262  0.9797 -0.2832 -1.9053
 6187TIP3    H240125   0.095   4.220   6.339  2.0049  2.5266 -2.4170
 6188TIP3   OH240126   4.990   1.051   7.294 -0.3527  0.2999 -0.0052
 6188TIP3    H140127   5.038   0.973   7.322 -1.8870  0.0760  2.2562
 6188TIP3    H240128   4.898   1.031   7.314 -1.1327  1.6163 -2.0170
 6189TIP3   OH240129   3.209   4.388   7.460 -0.2071  0.7511  0.2250
 6189TIP3    H140130   3.222   4.426   7.373  1.1147 -0.0431  0.0388
 6189TIP3    H240131   3.181   4.461   7.515  3.3442  2.3619  0.1611
 6190TIP3   OH240132   3.065   5.966   7.409  0.4806  0.0575 -0.1337
 6190TIP3    H140133   3.044   5.873   7.403 -0.6133  0.3797 -3.1100
 6190TIP3    H240134   3.149   5.975   7.365  0.5476  0.4768  0.0746
 6191TIP3   OH240135   5.810   1.363   1.580 -0.6651  0.0491  0.5015
 6191TIP3    H140136   5.803   1.270   1.561  0.0537 -0.1613  1.2572
 6191TIP3    H240137   5.740   1.381   1.643  0.2241 -0.3322  1.6248
 6192TIP3   OH240138   2.026   3.448   8.276 -0.0922  0.3934  0.3610
 6192TIP3    H140139   1.933   3.458   8.292  0.2596  4.4225  0.8671
 6192TIP3    H240140   2.057   3.391   8.346 -2.0232 -0.5773  0.4819
 6193TIP3   OH240141   0.601   0.196   7.600 -0.2114  0.4854 -0.2229
 6193TIP3    H140142   0.555   0.265   7.648  1.7028  2.0128 -0.4423
 6193TIP3    H240143   0.694   0.211   7.620  0.3612 -1.1922 -1.4051
 6194TIP3   OH240144   1.596   6.209   8.255  0.4005 -0.1122 -0.2432
 6194TIP3    H140145   1.570   6.261   8.179  2.4153  0.7436 -0.3867
 6194TIP3    H240146   1.691   6.216   8.258  0.5590 -2.1011  0.9737
 6195TIP3   OH240147   5.209   6.007   7.176  0.0933 -0.0299 -0.2998
 6195TIP3    H140148   5.201   6.032   7.084  2.0551  0.4725 -0.3702
 6195TIP3    H240149   5.216   6.091   7.223  2.5080 -0.2877 -0.0884
 6196TIP3   OH240150   3.992   1.506   8.303  0.1476  0.7110  0.0453
 6196TIP3    H140151   4.087   1.497   8.298  0.2102  0.5145  1.2155
 6196TIP3    H240152   3.978   1.580   8.363 -0.4439  1.0986 -0.5446
 6197TIP3   OH240153   5.561   2.358   1.421  0.3228  0.0650 -0.2037
 6197TIP3    H140154   5.520   2.408   1.350 -2.3077 -1.7634 -0.1199
 6197TIP3    H240155   5.643   2.326   1.383 -0.2828  0.4028 -1.8824
 6198TIP3   OH240156   5.340   3.132   1.330 -0.5062 -0.0137 -0.2298
 6198TIP3    H140157   5.430   3.130   1.297 -0.8819  2.2763 -1.5827
 6198TIP3    H240158   5.298   3.203   1.282 -2.9741 -0.7967  0.6144
 6199TIP3   OH240159   3.521   5.553   0.469 -0.0559 -0.0310  0.3231
 6199TIP3    H140160   3.538   5.458   0.466  0.8039 -0.0052  2.4950
 6199TIP3    H240161   3.607   5.593   0.461 -0.3668  0.5528 -0.1138
 6200TIP3   OH240162   0.815   2.947   0.606  0.3500 -0.9592 -0.1229
 6200TIP3    H140163   0.883   3.010   0.629 -1.8395  1.5717 -0.1305
 6200TIP3    H240164   0.792   2.906   0.689  0.4400 -0.2786  0.2459
 6201TIP3   OH240165   6.004   4.968   0.244 -0.5952  0.4199 -0.9087
 6201TIP3    H140166   6.001   4.987   0.338 -0.2008  0.1424 -0.8391
 6201TIP3    H240167   6.097   4.966   0.223 -0.6705  0.0320 -1.2119
 6202TIP3   OH240168   0.115   2.288   0.302  0.0672  0.1287 -0.3638
 6202TIP3    H140169   0.203   2.321   0.321  0.1786 -0.7963  0.8642
 6202TIP3    H240170   0.069   2.364   0.265  1.6846  0.3255 -2.1155
 6203TIP3   OH240171   0.412   4.411   6.863  0.3995  0.3215  0.2265
 6203TIP3    H140172   0.381   4.487   6.914 -0.6150  0.3233 -0.3720
 6203TIP3    H240173   0.354   4.408   6.787  2.1761  0.5928 -1.2033
 6204TIP3   OH240174   2.331   5.027   1.617  0.2352 -0.1138  0.1560
 6204TIP3    H140175   2.351   5.086   1.690 -1.4942  0.5528  0.1393
 6204TIP3    H240176   2.258   4.974   1.649 -2.8405  2.4003 -2.1022
 6205TIP3   OH240177   0.835   0.235   7.766 -0.0672 -0.1857 -0.2088
 6205TIP3    H140178   0.855   0.327   7.749 -1.4619 -0.2639 -2.8063
 6205TIP3    H240179   0.839   0.226   7.861  1.9707  2.0768  0.0083
 6206TIP3   OH240180   3.886   2.922   6.287  0.0503  0.3111 -0.1391
 6206TIP3    H140181   3.933   2.901   6.368 -1.6987  0.8245  1.0497
 6206TIP3    H240182   3.826   2.848   6.274 -0.7264  0.9358 -0.1451
 6207TIP3   OH240183   1.762   0.160   2.047  0.0411  0.0063  0.2519
 6207TIP3    H140184   1.787   0.192   2.134  0.3094 -0.8425  0.4930
 6207TIP3    H240185   1.667   0.151   2.052 -0.1105  1.2253  0.0132
 6208TIP3   OH240186   6.652   1.660   6.113  0.1333  0.2307 -0.5808
 6208TIP3    H140187   6.607   1.602   6.052  0.2632  0.0333 -0.4891
 6208TIP3    H240188   6.735   1.616   6.132  0.3259  0.5454 -0.6731
 6209TIP3   OH240189   0.499   0.201   2.367  0.3480 -0.0599  0.3316
 6209TIP3    H140190   0.479   0.109   2.383 -0.0003 -0.4593 -2.0457
 6209TIP3    H240191   0.571   0.220   2.427  0.7933 -2.0539  0.5187
 6210TIP3   OH240192   6.402   6.476   6.992 -0.1950  0.6495  0.0412
 6210TIP3    H140193   6.438   6.497   7.078 -0.3577  1.8560 -0.1684
 6210TIP3    H240194   6.412   6.556   6.941 -2.7450  0.9193 -0.1725
 6211TIP3   OH240195   4.036   4.853   7.010  0.0203  0.1913  0.4099
 6211TIP3    H140196   4.064   4.878   6.922 -1.1936 -0.3075 -0.1377
 6211TIP3    H240197   4.071   4.764   7.022  0.2749  0.2998  0.4773
 6212TIP3   OH240198   4.856   1.174   1.207  0.0825 -0.2714  0.4349
 6212TIP3    H140199   4.818   1.086   1.205  2.1951 -1.3475  2.6809
 6212TIP3    H240200   4.790   1.228   1.250 -1.2452 -0.7024 -0.9850
 6213TIP3   OH240201   2.072   5.446   1.281 -0.3004 -0.0282 -0.5297
 6213TIP3    H140202   2.102   5.475   1.367 -2.3200 -0.6499  0.4537
 6213TIP3    H240203   2.123   5.497   1.218  0.9137  0.7427  1.0447
 6214TIP3   OH240204   6.147   4.033   0.487  0.4728 -0.4836 -0.4618
 6214TIP3    H140205   6.116   4.018   0.398 -0.5492 -0.3546 -0.1458
 6214TIP3    H240206   6.161   4.127   0.493 -2.0205 -0.0627  0.2477
 6215TIP3   OH240207   4.847   0.301   0.252 -0.0705  0.2839 -0.2244
 6215TIP3    H140208   4.791   0.315   0.175  0.5595  0.1965 -0.7080
 6215TIP3    H240209   4.795   0.246   0.310 -0.5253  0.2857 -0.6269
 6216TIP3   OH240210   2.452   6.578   8.199  0.1456 -0.1038 -0.0895
 6216TIP3    H140211   2.484   6.491   8.225 -0.8398 -0.5778 -0.4108
 6216TIP3    H240212   2.377   6.560   8.143 -1.7788  0.9503  1.9693
 6217TIP3   OH240213   6.052   2.189   6.981 -0.2046 -0.4568 -0.6453
 6217TIP3    H140214   6.130   2.229   7.019 -1.4259  1.6251 -0.2041
 6217TIP3    H240215   6.018   2.254   6.920 -1.5559 -1.3555 -0.9076
 6218TIP3   OH240216   6.741   1.480   7.627 -0.2348 -0.2533 -0.1076
 6218TIP3    H140217   6.652   1.502   7.601 -0.2889 -1.1464 -0.7136
 6218TIP3    H240218   6.745   1.504   7.720 -0.6099  1.2420 -0.4579
 6219TIP3   OH240219   3.214   6.646   2.312 -0.3330 -0.5424 -0.2637
 6219TIP3    H140220   3.195   6.626   2.220  0.6029 -2.0158 -0.1629
 6219TIP3    H240221   3.223   6.560   2.354  2.4097  0.0342  0.5285
 6220TIP3   OH240222   5.797   4.227   7.008  0.3330  0.4606 -0.1975
 6220TIP3    H140223   5.847   4.287   7.064 -1.2588  1.5896  0.0603
 6220TIP3    H240224   5.764   4.282   6.937 -1.8941  0.1381  0.5165
 6221TIP3   OH240225   6.364   2.835   2.072  0.5608 -0.0681  0.0658
 6221TIP3    H140226   6.407   2.750   2.061 -0.9445 -0.7543 -0.9262
 6221TIP3    H240227   6.408   2.893   2.010 -0.1639 -0.8603 -1.2242
 6222TIP3   OH240228   6.805   4.012   0.881 -0.0444 -0.0623 -0.4546
 6222TIP3    H140229   6.835   4.103   0.886 -0.8144  0.3275 -2.0787
 6222TIP3    H240230   6.855   3.974   0.809  1.0222 -1.2734  0.8688
 6223TIP3   OH240231   3.108   5.479   8.108 -0.1662 -0.3674  0.1087
 6223TIP3    H140232   3.088   5.386   8.121 -1.4605 -0.1455 -0.1877
 6223TIP3    H240233   3.070   5.501   8.023  0.7491  0.2765 -0.1543
 6224TIP3   OH240234   4.277   5.390   2.062  0.6413  0.0847 -0.3899
 6224TIP3    H140235   4.271   5.308   2.013  0.0668 -1.8508  2.6725
 6224TIP3    H240236   4.188   5.406   2.093  1.2540  0.3175  1.3403
 6225TIP3   OH240237   1.501   0.238   7.497 -0.1116 -0.2472 -0.2369
 6225TIP3    H140238   1.484   0.295   7.572 -2.3122 -1.1767  0.0455
 6225TIP3    H240239   1.466   0.153   7.523  0.6014 -1.0190 -1.6828
 6226TIP3   OH240240   1.801   0.624   2.052  0.2910 -0.2916 -0.0424
 6226TIP3    H140241   1.722   0.572   2.061  0.6120 -0.8171 -0.1906
 6226TIP3    H240242   1.866   0.562   2.018  0.8885  0.0215  0.5264
 6227TIP3   OH240243   4.086   0.674   0.356 -0.1826  0.5138  0.1054
 6227TIP3    H140244   4.130   0.671   0.272 -0.9072 -1.5752 -0.2633
 6227TIP3    H240245   4.156   0.662   0.420  0.1438  0.1621 -0.3117
 6228TIP3   OH240246   6.337   2.868   7.207 -1.1995  0.4136 -0.2033
 6228TIP3    H140247   6.262   2.924   7.188 -2.4660 -1.0132  0.3776
 6228TIP3    H240248   6.367   2.838   7.121 -1.1018  1.2172 -0.4557
 6229TIP3   OH240249   1.121   3.483   6.507 -0.3748 -0.0322  0.1495
 6229TIP3    H140250   1.118   3.414   6.574  0.8917 -0.8246 -0.5567
 6229TIP3    H240251   1.126   3.435   6.424  0.9509  0.8935 -0.3284
 6230TIP3   OH240252   1.821   1.760   7.422  0.7706 -0.7801 -0.6645
 6230TIP3    H140253   1.805   1.684   7.478  1.4566  0.0627  0.7111
 6230TIP3    H240254   1.909   1.745   7.387  0.5522 -1.0429 -1.1156
 6231TIP3   OH240255   1.648   1.773   7.038 -0.4851 -0.2552 -0.6619
 6231TIP3    H140256   1.579   1.758   7.103 -0.8403 -2.3539 -1.4498
 6231TIP3    H240257   1.719   1.715   7.065  0.4227  0.7903 -0.7067
 6232TIP3   OH240258   4.495   1.789   7.863 -0.7088 -0.3992  0.2221
 6232TIP3    H140259   4.541   1.869   7.889  0.5272 -0.6500 -1.0714
 6232TIP3    H240260   4.453   1.812   7.781 -1.1990 -0.7820  0.3658
 6233TIP3   OH240261   5.139   6.540   8.515  0.6997  0.3516  0.1114
 6233TIP3    H140262   5.157   6.536   8.421  2.8091 -1.1032  0.5020
 6233TIP3    H240263   5.079   6.467   8.532  0.5197  0.4581 -0.0715
 6234TIP3   OH240264   4.026   6.065   2.253  0.2550  0.1989 -0.3215
 6234TIP3    H140265   4.017   6.143   2.308 -0.8306  0.8808 -1.4317
 6234TIP3    H240266   4.033   6.098   2.164 -3.1744 -0.9844 -1.1683
 6235TIP3   OH240267   4.935   5.433   8.293  1.0399 -0.2186  0.5103
 6235TIP3    H140268   4.980   5.495   8.351  2.1595  0.0594 -0.6093
 6235TIP3    H240269   5.001   5.409   8.228 -0.9778  2.1312 -2.7177
 6236TIP3   OH240270   3.139   3.780   0.440 -0.1032 -0.2235 -0.1456
 6236TIP3    H140271   3.048   3.757   0.421  0.8050 -4.3450 -0.3360
 6236TIP3    H240272   3.165   3.720   0.509  1.9101  2.4891  1.6875
 6237TIP3   OH240273   4.641   5.439   1.415  0.6859 -0.4206  0.0694
 6237TIP3    H140274   4.701   5.495   1.366 -0.4839  0.4423 -0.4159
 6237TIP3    H240275   4.623   5.488   1.495 -3.5676  2.0821 -2.0751
 6238TIP3   OH240276   2.314   6.038   0.898  0.0127  0.3139 -0.5807
 6238TIP3    H140277   2.356   6.013   0.981 -0.6256 -1.5960 -0.7843
 6238TIP3    H240278   2.296   6.131   0.908  0.8363  0.3398  1.0419
 6239TIP3   OH240279   5.085   2.046   6.145  0.6248  0.0827  0.1283
 6239TIP3    H140280   5.172   2.016   6.120  1.0030  0.9145  0.4042
 6239TIP3    H240281   5.100   2.106   6.218 -0.1023  0.8807 -0.3499
 6240TIP3   OH240282   2.658   5.849   0.831 -0.2256  0.2414  0.4739
 6240TIP3    H140283   2.690   5.880   0.916 -0.4985  1.9058  0.0157
 6240TIP3    H240284   2.647   5.755   0.842  2.0643  0.0151  1.5367
 6241TIP3   OH240285   2.982   3.052   7.167 -0.0310 -0.1979  0.0330
 6241TIP3    H140286   2.989   3.062   7.072 -1.5225 -1.4123 -0.2424
 6241TIP3    H240287   3.030   2.972   7.186  1.7928  0.9662  0.5945
 6242TIP3   OH240288   2.067   5.218   1.675  0.8119 -0.1298  0.0555
 6242TIP3    H140289   2.070   5.208   1.770  2.3215 -1.9365 -0.1193
 6242TIP3    H240290   2.001   5.155   1.646  0.2787  0.4922 -0.0806
 6243TIP3   OH240291   3.674   5.794   8.199 -0.3672  0.3357 -0.4184
 6243TIP3    H140292   3.586   5.806   8.235 -0.6149 -1.1183 -0.4810
 6243TIP3    H240293   3.709   5.718   8.246  0.9424  1.0069 -0.2598
 6244TIP3   OH240294   2.810   3.181   8.114 -0.0916  0.2063 -0.1337
 6244TIP3    H140295   2.788   3.094   8.080  0.2660  0.3722 -0.8139
 6244TIP3    H240296   2.736   3.237   8.086 -0.3938  0.0925  0.4330
 6245TIP3   OH240297   2.430   2.543   0.304 -0.4269 -0.7501 -0.0710
 6245TIP3    H140298   2.436   2.618   0.363  0.3915 -0.7214 -0.1727
 6245TIP3    H240299   2.398   2.472   0.360  0.3612 -0.7313  0.4327
 6246TIP3   OH240300   2.907   2.748   1.529 -0.2442  0.2219  0.1380
 6246TIP3    H140301   2.895   2.698   1.448 -1.7260  0.0573  0.4280
 6246TIP3    H240302   2.819   2.775   1.553  0.2698  0.9135  1.3016
 6247TIP3   OH240303   2.076   5.897   1.707  1.0162  0.1711  0.1792
 6247TIP3    H140304   2.092   5.848   1.787  0.3946  1.4852  1.1384
 6247TIP3    H240305   2.004   5.956   1.729 -0.8132 -1.0516 -2.0318
 6248TIP3   OH240306   6.784   4.811   8.592  0.3103 -0.3072 -0.1765
 6248TIP3    H140307   6.756   4.881   8.652 -1.5755 -2.0721  1.1240
 6248TIP3    H240308   6.754   4.840   8.506 -1.8929 -0.1891  0.5745
 6249TIP3   OH240309   2.779   0.349   7.374 -0.9340 -0.1036  0.5193
 6249TIP3    H140310   2.840   0.405   7.325  0.8375 -1.4154  1.1344
 6249TIP3    H240311   2.694   0.390   7.361 -0.1254  1.0995 -1.4182
 6250TIP3   OH240312   3.969   6.631   7.370  0.1762  0.0095  0.6162
 6250TIP3    H140313   3.918   6.653   7.293  1.3381  0.5409 -0.0311
 6250TIP3    H240314   3.940   6.543   7.394  0.4607 -0.5689 -1.0177
 6251TIP3   OH240315   6.668   3.731   8.535 -0.3044 -0.0883 -0.8491
 6251TIP3    H140316   6.639   3.807   8.484 -2.3846  0.1440  0.5318
 6251TIP3    H240317   6.628   3.744   8.621 -1.0250 -2.9026 -0.6516
 6252TIP3   OH240318   0.829   4.992   0.579 -0.4519  0.3799 -0.0132
 6252TIP3    H140319   0.857   4.902   0.599 -0.5706  0.7217  1.9571
 6252TIP3    H240320   0.859   5.008   0.490  1.0646 -1.0278  0.2054
 6253TIP3   OH240321   0.586   6.337   8.360 -0.3338 -0.0314  0.4218
 6253TIP3    H140322   0.499   6.377   8.355 -0.0132  0.6998  0.6281
 6253TIP3    H240323   0.611   6.344   8.452 -0.1015 -0.3457  0.3842
 6254TIP3   OH240324   6.101   1.476   1.599 -0.3173  0.1221  0.1118
 6254TIP3    H140325   6.175   1.418   1.580 -0.8846 -0.2381 -1.0885
 6254TIP3    H240326   6.024   1.422   1.583 -0.8554  1.1336 -0.8154
 6255TIP3   OH240327   5.281   2.408   0.900 -0.1221  0.0673  0.6853
 6255TIP3    H140328   5.189   2.406   0.871  0.7286 -2.3559 -2.3843
 6255TIP3    H240329   5.279   2.369   0.987 -1.8129 -2.2740 -0.2943
 6256TIP3   OH240330   1.185   2.129   8.576 -0.8674 -0.2448 -0.0673
 6256TIP3    H140331   1.098   2.143   8.539 -0.5214  0.3728 -0.6616
 6256TIP3    H240332   1.168   2.095   8.664 -1.7045 -0.2962 -0.2355
 6257TIP3   OH240333   5.081   5.620   1.125  0.4903 -0.1508 -0.0872
 6257TIP3    H140334   5.031   5.685   1.075  1.9320  1.6697  0.6979
 6257TIP3    H240335   5.170   5.626   1.089  1.1305 -0.1346  1.4387
 6258TIP3   OH240336   1.460   2.191   1.987 -0.7999  0.5425  0.5006
 6258TIP3    H140337   1.423   2.141   1.914  0.0113  1.5920 -0.6554
 6258TIP3    H240338   1.455   2.131   2.061  0.8036 -1.5502 -0.9859
 6259TIP3   OH240339   0.873   1.444   7.916  0.2278 -0.2447 -0.2794
 6259TIP3    H140340   0.929   1.377   7.955 -0.2298 -0.6266 -0.2693
 6259TIP3    H240341   0.933   1.514   7.891  0.6938 -0.5992 -0.1642
 6260TIP3   OH240342   6.127   3.965   6.454  0.4393 -0.2267 -0.0614
 6260TIP3    H140343   6.170   4.026   6.393 -0.6208 -0.1039 -0.7252
 6260TIP3    H240344   6.099   3.892   6.399 -0.7637  0.0023  0.1966
 6261TIP3   OH240345   5.112   4.982   1.187 -0.0359  0.5689 -0.1935
 6261TIP3    H140346   5.087   5.073   1.171  0.8340  0.5211 -2.1141
 6261TIP3    H240347   5.127   4.945   1.100  1.7404 -0.7910  0.6119
 6262TIP3   OH240348   2.011   1.210   6.636 -0.0493 -0.1580  0.0867
 6262TIP3    H140349   2.101   1.241   6.649 -0.2298 -0.1646  1.5203
 6262TIP3    H240350   1.957   1.274   6.682 -0.8326  0.0786 -1.1271
 6263TIP3   OH240351   6.740   3.638   0.567 -0.6576 -0.2907 -0.2714
 6263TIP3    H140352   6.680   3.660   0.639 -0.8113 -0.8863 -0.2131
 6263TIP3    H240353   6.683   3.620   0.493 -0.5006  0.2644 -0.5327
 6264TIP3   OH240354   5.311   4.347   1.553 -0.4244 -0.2690  0.6479
 6264TIP3    H140355   5.343   4.302   1.631  2.6672  0.7830  0.1223
 6264TIP3    H240356   5.385   4.346   1.492 -2.4289 -0.2969 -2.0109
 6265TIP3   OH240357   1.227   5.120   7.553 -0.2160  0.2722 -0.3717
 6265TIP3    H140358   1.257   5.196   7.603 -1.6700  1.0628 -0.6233
 6265TIP3    H240359   1.252   5.140   7.462 -1.2445  0.8390 -0.5515
 6266TIP3   OH240360   4.310   2.372   7.740 -0.1042  0.0399 -0.3151
 6266TIP3    H140361   4.391   2.414   7.712  0.4350  0.2242  1.4062
 6266TIP3    H240362   4.338   2.286   7.773 -0.7431 -0.2928 -0.6238
 6267TIP3   OH240363   0.042   5.497   8.133 -0.1013  0.2094  0.1457
 6267TIP3    H140364  -0.014   5.498   8.211 -1.0199  0.1899 -0.4980
 6267TIP3    H240365   0.049   5.589   8.107 -1.9991  0.0183 -1.2561
 6268TIP3   OH240366   4.371   1.590   8.009  1.1320  0.3872  0.5848
 6268TIP3    H140367   4.425   1.668   7.995  0.4924  0.4548 -2.1114
 6268TIP3    H240368   4.281   1.622   8.005  0.8099 -0.5420 -1.9599
 6269TIP3   OH240369   0.790   0.606   2.830 -0.1396  0.2172  0.3684
 6269TIP3    H140370   0.712   0.660   2.819 -0.3098  0.4079  2.3019
 6269TIP3    H240371   0.757   0.516   2.833  0.0138  0.0483 -1.3977
 6270TIP3   OH240372   3.924   6.011   0.798 -0.1404 -0.9454  0.8045
 6270TIP3    H140373   3.979   5.941   0.762 -1.5564 -0.8987 -1.6647
 6270TIP3    H240374   3.944   6.087   0.744 -2.0192 -0.7343  0.3261
 6271TIP3   OH240375   2.649   2.714   0.695  0.6107 -0.0373  0.4986
 6271TIP3    H140376   2.684   2.647   0.637 -0.5408  0.5807 -0.9575
 6271TIP3    H240377   2.716   2.723   0.763  0.5290 -3.0510  1.1013
 6272TIP3   OH240378   4.862   4.309   8.384 -0.1237 -0.8402  0.5643
 6272TIP3    H140379   4.958   4.306   8.389 -0.0284  0.8589  0.3919
 6272TIP3    H240380   4.832   4.308   8.474  0.2767  2.0116  0.8425
 6273TIP3   OH240381   3.353   5.829   2.315  0.4598  0.2285 -0.2416
 6273TIP3    H140382   3.310   5.788   2.240 -0.1409  1.9686 -0.9007
 6273TIP3    H240383   3.437   5.862   2.280  1.2009 -0.8902  0.4161
 6274TIP3   OH240384   2.751   1.128   1.732  0.5884  0.1698 -0.0729
 6274TIP3    H140385   2.846   1.120   1.720  0.6973  0.7716  0.3317
 6274TIP3    H240386   2.739   1.217   1.767 -0.0188 -0.3004  0.9518
 6275TIP3   OH240387   1.210   0.967   7.080  0.4432  0.0667  0.3442
 6275TIP3    H140388   1.173   1.044   7.125  0.0688  0.2221 -0.2183
 6275TIP3    H240389   1.220   0.995   6.989 -0.6755 -0.8735 -0.0958
 6276TIP3   OH240390   2.101   0.995   0.006  0.0049 -0.0057 -0.3697
 6276TIP3    H140391   2.039   1.037  -0.054 -0.1194 -1.7240 -1.5010
 6276TIP3    H240392   2.109   1.057   0.078 -0.8023  1.5707 -1.5600
 6277TIP3   OH240393   2.232   2.625   1.155 -0.0925  0.1473  0.5201
 6277TIP3    H140394   2.190   2.704   1.189  0.0384  0.8636 -0.9274
 6277TIP3    H240395   2.231   2.564   1.229 -1.1166  1.1337  1.3556
 6278TIP3   OH240396   0.589   1.821   7.916 -0.7642 -0.5837  0.0209
 6278TIP3    H140397   0.642   1.860   7.847 -0.2873  0.8921  1.1671
 6278TIP3    H240398   0.525   1.767   7.870 -1.2259  1.2828 -1.6647
 6279TIP3   OH240399   3.805   1.855   6.850  0.0883 -0.0293 -0.3987
 6279TIP3    H140400   3.780   1.946   6.867 -0.2730  0.0053 -1.1178
 6279TIP3    H240401   3.823   1.852   6.756  0.0600 -0.7128 -0.3854
 6280TIP3   OH240402   0.818   6.403   1.373 -0.3171 -0.0103 -0.3560
 6280TIP3    H140403   0.904   6.389   1.412 -0.7433 -2.5851 -0.2000
 6280TIP3    H240404   0.756   6.378   1.441 -1.1938  0.9008 -0.7972
 6281TIP3   OH240405   4.384   3.434   8.300  1.1636 -0.3170 -0.7332
 6281TIP3    H140406   4.439   3.488   8.357 -0.8485  0.4890  0.5533
 6281TIP3    H240407   4.440   3.414   8.225  2.6052  2.0412 -0.3981
 6282TIP3   OH240408   3.373   3.046   7.971  0.2875 -0.2633  0.3479
 6282TIP3    H140409   3.404   2.955   7.968 -0.6594 -0.5678 -0.9650
 6282TIP3    H240410   3.355   3.068   7.880  0.5011  1.2646  0.6493
 6283TIP3   OH240411   2.554   2.872   8.432 -0.1992  1.0244  0.0342
 6283TIP3    H140412   2.518   2.883   8.344  0.2924 -0.4352 -0.3796
 6283TIP3    H240413   2.532   2.953   8.477 -1.8214  1.1776 -0.9557
 6284TIP3   OH240414   5.621   3.754   0.021  0.9200 -0.4164  0.0474
 6284TIP3    H140415   5.643   3.759   0.114  0.9102 -0.2766  0.0422
 6284TIP3    H240416   5.559   3.825   0.007  0.0604 -1.1199  0.1717
 6285TIP3   OH240417   2.492   0.910   2.402  0.2258 -0.1040  0.0793
 6285TIP3    H140418   2.504   0.905   2.497  0.6007  1.8164  0.1560
 6285TIP3    H240419   2.397   0.920   2.390  0.3377  1.4553  0.3689
 6286TIP3   OH240420   5.198   3.407   0.682  0.3785 -0.0090 -0.2286
 6286TIP3    H140421   5.251   3.486   0.697  0.8132 -0.2663 -0.3896
 6286TIP3    H240422   5.230   3.344   0.747 -0.3794  0.1344  0.3025
 6287TIP3   OH240423   2.415   2.236   1.456  0.0716 -0.0231  0.3775
 6287TIP3    H140424   2.424   2.206   1.546  0.4424  0.9249  0.6729
 6287TIP3    H240425   2.371   2.164   1.410 -0.4284 -0.3796  1.3871
 6288TIP3   OH240426   0.772   2.234   7.591  0.5640 -0.3878  0.1294
 6288TIP3    H140427   0.718   2.312   7.574  1.9809  0.4326 -0.8274
 6288TIP3    H240428   0.767   2.184   7.510 -0.2653 -1.2742  0.7111
 6289TIP3   OH240429   1.229   2.170   7.924  0.3288 -0.8425  0.0997
 6289TIP3    H140430   1.170   2.224   7.872 -0.3186 -0.3120  1.3359
 6289TIP3    H240431   1.192   2.173   8.012  3.6735  1.9082  1.6460
 6290TIP3   OH240432   4.264   1.239   7.206  0.0075  0.3075 -0.7791
 6290TIP3    H140433   4.321   1.220   7.281  1.3760  0.1913 -1.8044
 6290TIP3    H240434   4.264   1.335   7.200 -0.3338  0.3296 -0.4735
 6291TIP3   OH240435   0.910   0.425   0.556  0.4216  0.3374  0.2328
 6291TIP3    H140436   0.992   0.395   0.595 -0.1972 -0.4492  1.0052
 6291TIP3    H240437   0.908   0.519   0.572  0.8161  0.2370  0.9134
 6292TIP3   OH240438   6.558   6.558   0.789  0.9386 -0.4011 -0.1930
 6292TIP3    H140439   6.636   6.503   0.789  1.1824 -0.0596 -1.0919
 6292TIP3    H240440   6.541   6.574   0.882  1.5519 -1.0142  0.0353
 6293TIP3   OH240441   1.988   5.147   7.123  1.0113  0.0083  0.1190
 6293TIP3    H140442   1.944   5.206   7.062  1.1004 -1.4507 -1.4038
 6293TIP3    H240443   1.952   5.170   7.209  1.2173  2.4156 -0.3736
 6294TIP3   OH240444   2.574   0.693   0.793  0.2058  0.2199  0.0455
 6294TIP3    H140445   2.577   0.662   0.702  0.5335 -1.6387  0.6490
 6294TIP3    H240446   2.502   0.642   0.832 -0.3060  1.4138  0.7034
 6295TIP3   OH240447   5.821   2.207   2.263 -0.2396 -0.8362  0.4786
 6295TIP3    H140448   5.769   2.203   2.343 -2.2953  0.5460 -0.6858
 6295TIP3    H240449   5.879   2.282   2.276 -2.5849  1.2749 -0.3208
 6296TIP3   OH240450   2.100   1.752   8.069 -0.3663  0.0724 -0.3487
 6296TIP3    H140451   2.143   1.695   8.005  0.3635  0.6385 -0.3711
 6296TIP3    H240452   2.108   1.706   8.152 -1.9058 -0.9866 -0.7444
 6297TIP3   OH240453   5.276   0.930   7.275  0.0315 -0.2292 -0.1928
 6297TIP3    H140454   5.317   0.970   7.352  2.3366 -1.6466 -0.5675
 6297TIP3    H240455   5.282   0.998   7.207  2.3510 -0.5046 -0.3568
 6298TIP3   OH240456   4.519   0.658   1.687  0.0294  0.2935 -0.1209
 6298TIP3    H140457   4.436   0.628   1.724  0.0261 -0.6322 -0.8248
 6298TIP3    H240458   4.586   0.620   1.745 -0.0141  0.0780 -0.2098
 6299TIP3   OH240459   3.746   1.275   1.189  0.3096  0.1079  0.6721
 6299TIP3    H140460   3.834   1.313   1.198  1.1288 -1.0841 -1.4538
 6299TIP3    H240461   3.734   1.224   1.269  1.7958 -0.1173  0.7834
 6300TIP3   OH240462   4.052   1.322   8.008  0.0982 -0.3220 -0.6602
 6300TIP3    H140463   3.960   1.332   8.033 -0.0882 -1.2138 -0.9478
 6300TIP3    H240464   4.048   1.284   7.920  0.7454  1.4596 -1.5002
 6301TIP3   OH240465   4.911   2.913   1.141  0.4097 -0.1411  0.2041
 6301TIP3    H140466   4.968   2.948   1.073  0.5056  0.0532  0.3810
 6301TIP3    H240467   4.922   2.818   1.135  0.9755 -0.0972  0.4173
 6302TIP3   OH240468   6.278   3.154   0.673  0.0569 -0.2115  0.0145
 6302TIP3    H140469   6.293   3.183   0.583  0.2473 -2.0575 -0.5895
 6302TIP3    H240470   6.286   3.059   0.669 -0.8176 -0.4012  1.8245
 6303TIP3   OH240471   6.005   1.534   0.669  0.6687 -0.7606 -0.1609
 6303TIP3    H140472   6.088   1.580   0.652  0.6944 -1.0957 -0.9684
 6303TIP3    H240473   5.938   1.602   0.664  0.6282 -0.8806 -2.0444
 6304TIP3   OH240474   0.884   4.745   6.651 -0.2359  0.4414 -0.0332
 6304TIP3    H140475   0.963   4.693   6.660 -0.1506  0.1590 -1.9191
 6304TIP3    H240476   0.860   4.770   6.740  1.5262 -0.1228  0.6266
 6305TIP3   OH240477   0.600   4.581   2.038 -0.2518 -0.2600 -0.1912
 6305TIP3    H140478   0.586   4.518   2.110 -1.8767 -0.6447 -0.8020
 6305TIP3    H240479   0.664   4.538   1.981  1.4496  0.2655  1.2283
 6306TIP3   OH240480   5.850   2.642   2.240 -0.0788  0.0510  0.5293
 6306TIP3    H140481   5.787   2.637   2.312  0.4349 -2.0840  0.9093
 6306TIP3    H240482   5.913   2.708   2.269 -0.7848  0.4252  1.2696
 6307TIP3   OH240483   6.634   3.252   8.365  0.0755 -0.2322 -0.3916
 6307TIP3    H140484   6.610   3.239   8.273 -1.3078  0.6496 -0.1890
 6307TIP3    H240485   6.634   3.165   8.403  2.1953 -0.8208 -1.5288
 6308TIP3   OH240486   6.208   4.657   7.676  0.1040  0.0642 -0.2553
 6308TIP3    H140487   6.171   4.570   7.693 -3.5201  1.2882 -0.9527
 6308TIP3    H240488   6.219   4.659   7.581 -0.7090  0.6492 -0.3444
 6309TIP3   OH240489   2.857   4.956   0.837  0.4244 -0.0432  0.0114
 6309TIP3    H140490   2.907   4.992   0.910 -0.0871  1.4171 -0.3235
 6309TIP3    H240491   2.769   4.944   0.872  0.5058 -0.6256  0.0165
 6310TIP3   OH240492   5.823   0.313   2.465 -0.2371 -0.0559  0.0473
 6310TIP3    H140493   5.780   0.259   2.531  0.9685 -0.3709  0.6078
 6310TIP3    H240494   5.889   0.363   2.514 -1.3336  1.9723 -0.4414
 6311TIP3   OH240495   3.755   3.611   7.620 -0.1137  0.1443  0.0877
 6311TIP3    H140496   3.833   3.647   7.664  0.5931  0.5476 -1.4158
 6311TIP3    H240497   3.688   3.608   7.688  1.2542 -0.3305  1.4549
 6312TIP3   OH240498   1.229   5.295   2.240  0.4667 -0.0256 -0.1218
 6312TIP3    H140499   1.285   5.231   2.196  1.1694 -0.1210  0.8886
 6312TIP3    H240500   1.163   5.242   2.285  1.0287 -0.0494  0.6876
 6313TIP3   OH240501   1.952   6.462   0.467 -0.0840  0.3264 -0.2911
 6313TIP3    H140502   1.931   6.427   0.553 -0.7722  2.5874  0.5509
 6313TIP3    H240503   2.048   6.462   0.464 -0.0684 -1.2510 -0.2141
 6314TIP3   OH240504   5.436   3.423   1.311  0.3453 -0.4044  0.3529
 6314TIP3    H140505   5.472   3.511   1.302 -2.4477  0.7169 -0.9065
 6314TIP3    H240506   5.352   3.436   1.355  0.6204 -2.6716  1.6874
 6315TIP3   OH240507   3.142   0.427   0.942  0.2142 -0.3814  0.0310
 6315TIP3    H140508   3.118   0.509   0.985  0.8570  1.0435 -2.1141
 6315TIP3    H240509   3.081   0.421   0.868  0.2162 -1.8391  0.1234
 6316TIP3   OH240510   4.264   5.491   8.104 -0.3655 -0.4211 -0.7791
 6316TIP3    H140511   4.190   5.541   8.140 -1.3400 -0.8747 -2.0613
 6316TIP3    H240512   4.236   5.469   8.015  0.6618 -2.0009 -0.7363
 6317TIP3   OH240513   0.832   5.261   1.056 -0.0908  0.1897  0.1358
 6317TIP3    H140514   0.926   5.259   1.075  0.5909  0.3235 -2.8275
 6317TIP3    H240515   0.804   5.170   1.067  0.6903 -0.1029 -0.2112
 6318TIP3   OH240516   6.506   1.901   0.928 -0.1731  0.0820  0.0566
 6318TIP3    H140517   6.489   1.821   0.977 -0.0640  0.8769  1.4411
 6318TIP3    H240518   6.469   1.971   0.982  0.8517  1.0943 -0.5071
 6319TIP3   OH240519   3.164   5.124   8.133  0.3775  0.1813 -0.2531
 6319TIP3    H140520   3.171   5.039   8.091  0.3348  0.8479 -1.6570
 6319TIP3    H240521   3.252   5.144   8.163  0.3329 -0.4626  0.3449
 6320TIP3   OH240522   1.922   6.054   6.793  0.3136 -0.4021 -0.3121
 6320TIP3    H140523   1.935   6.148   6.790  0.7059 -0.4715 -0.8137
 6320TIP3    H240524   1.829   6.044   6.815 -0.2690  0.1277 -2.3200
 6321TIP3   OH240525   4.225   5.104   6.022  0.2198 -0.1111 -0.2463
 6321TIP3    H140526   4.285   5.130   6.091  0.3634  0.2927 -0.5144
 6321TIP3    H240527   4.173   5.182   6.005 -0.4582 -0.4943  0.0620
 6322TIP3   OH240528   3.626   5.614   6.346  0.4220 -0.5580 -0.0706
 6322TIP3    H140529   3.680   5.554   6.398 -1.2702 -1.6164  0.5703
 6322TIP3    H240530   3.670   5.620   6.262  1.8186 -0.9268  0.6122
 6323TIP3   OH240531   2.999   5.048   1.056  0.2248 -0.5199 -0.4085
 6323TIP3    H140532   3.093   5.057   1.042  0.4128 -1.6723  0.0402
 6323TIP3    H240533   2.974   5.130   1.100  0.9932 -0.1739 -0.5880
 6324TIP3   OH240534   5.846   6.434   1.616  0.0515 -0.1696 -0.0329
 6324TIP3    H140535   5.811   6.494   1.550  0.9340 -1.1747 -1.4543
 6324TIP3    H240536   5.881   6.491   1.684  0.8776  0.9614 -1.3562
 6325TIP3   OH240537   6.182   0.153   7.188 -0.0332 -0.2619  0.2808
 6325TIP3    H140538   6.200   0.227   7.246  0.6807 -0.9657  0.9743
 6325TIP3    H240539   6.087   0.142   7.193 -0.1775  0.7645 -0.0349
 6326TIP3   OH240540   6.747   1.193   7.488 -0.0672  0.0121  0.5181
 6326TIP3    H140541   6.835   1.194   7.451  0.2006  0.9528  1.1549
 6326TIP3    H240542   6.724   1.285   7.502 -2.5389  0.0811 -2.7512
 6327TIP3   OH240543   4.052   2.118   6.800  0.0636  0.1204 -0.3048
 6327TIP3    H140544   4.057   2.191   6.738  0.4224 -0.1895 -0.6402
 6327TIP3    H240545   3.990   2.148   6.866  0.5213  0.9086 -0.2152
 6328TIP3   OH240546   4.178   3.392   0.482  0.2907  0.1404  0.6948
 6328TIP3    H140547   4.197   3.453   0.411  1.5527  0.9902  1.7164
 6328TIP3    H240548   4.264   3.371   0.519 -0.1136 -2.1619  0.4758
 6329TIP3   OH240549   4.857   4.711   7.565 -0.3086 -0.1543 -0.2367
 6329TIP3    H140550   4.866   4.751   7.479 -2.9124  0.0192 -0.5107
 6329TIP3    H240551   4.781   4.755   7.604  0.4915 -0.5855  1.9443
 6330TIP3   OH240552   0.378   4.297   8.005  0.1916 -0.3113  0.4444
 6330TIP3    H140553   0.467   4.312   8.038  0.8493 -0.1091 -1.3328
 6330TIP3    H240554   0.327   4.369   8.043  1.6075  1.8755 -1.4896
 6331TIP3   OH240555   4.442   1.936   7.200  0.0155 -0.3381  0.9372
 6331TIP3    H140556   4.379   2.000   7.166  0.0493  0.1212  1.7242
 6331TIP3    H240557   4.456   1.962   7.290  1.6643 -0.1973  0.6553
 6332TIP3   OH240558   5.572   6.392   1.446  0.2744 -0.2058 -0.4874
 6332TIP3    H140559   5.641   6.326   1.455 -1.7078 -2.4563 -0.8091
 6332TIP3    H240560   5.558   6.399   1.351  0.4151  0.6667 -0.4541
 6333TIP3   OH240561   0.732   3.679   7.784  0.8336 -0.3987  0.2265
 6333TIP3    H140562   0.673   3.606   7.767  1.7099 -1.4616  1.4734
 6333TIP3    H240563   0.682   3.757   7.762 -0.1435 -1.3692 -1.1138
 6334TIP3   OH240564   0.098   2.560   6.469  0.2743  0.0951 -0.1781
 6334TIP3    H140565   0.040   2.636   6.467 -0.0241 -0.0853  0.9783
 6334TIP3    H240566   0.092   2.523   6.381 -1.3644  0.0877 -0.0917
 6335TIP3   OH240567   0.933   1.495   7.433  0.0208  0.3061  0.5946
 6335TIP3    H140568   0.933   1.409   7.391  0.4901  0.5312  0.1179
 6335TIP3    H240569   0.996   1.487   7.504 -0.3817  0.0836  0.9357
 6336TIP3   OH240570   4.913   6.196   0.650 -0.4591 -0.6432  0.2829
 6336TIP3    H140571   4.950   6.242   0.725  0.8804 -0.7235 -0.2958
 6336TIP3    H240572   4.820   6.190   0.669 -0.2341 -0.1495  1.6600
 6337TIP3   OH240573   1.813   0.964   0.835 -0.3186 -0.2954  0.2114
 6337TIP3    H140574   1.863   0.958   0.753 -1.9058 -0.4423 -0.7949
 6337TIP3    H240575   1.872   0.928   0.901  1.4389  0.8625 -0.6406
 6338TIP3   OH240576   5.155   3.652   0.987 -0.5568 -0.2865 -0.1424
 6338TIP3    H140577   5.179   3.698   1.067 -0.5095  0.3534 -0.5217
 6338TIP3    H240578   5.068   3.685   0.965 -0.5383 -0.4047 -0.4002
 6339TIP3   OH240579   0.303   6.471   8.291  0.3409 -0.5358 -0.0642
 6339TIP3    H140580   0.275   6.495   8.379 -2.9951  1.0391 -1.3637
 6339TIP3    H240581   0.343   6.551   8.256 -0.7798 -0.2621 -0.7894
 6340TIP3   OH240582   6.582   5.233   1.527  0.7878  0.2083 -0.0261
 6340TIP3    H140583   6.642   5.241   1.453  0.9014 -0.3338  0.0010
 6340TIP3    H240584   6.495   5.239   1.488  0.7918 -1.8571 -0.4834
 6341TIP3   OH240585   0.212   1.879   1.340 -0.3575  0.0548  0.4143
 6341TIP3    H140586   0.165   1.927   1.271  1.6141  0.4163 -0.7625
 6341TIP3    H240587   0.291   1.847   1.297 -0.6098 -2.5391  1.7242
 6342TIP3   OH240588   0.023   6.457   2.300  0.1901 -0.3606  0.1313
 6342TIP3    H140589   0.066   6.540   2.281 -1.7742  0.4040 -1.3414
 6342TIP3    H240590  -0.057   6.482   2.347 -0.4839 -1.3721 -0.4339
 6343TIP3   OH240591   0.921   4.330   1.283 -0.7607 -0.0958 -0.2971
 6343TIP3    H140592   0.928   4.356   1.374 -2.6690  0.2608 -0.2179
 6343TIP3    H240593   0.956   4.404   1.233  1.4216 -0.7760  0.1294
 6344TIP3   OH240594   5.704   4.990   6.971  0.6220 -0.0959  0.3591
 6344TIP3    H140595   5.784   4.993   6.919  0.3888 -0.6037 -0.0349
 6344TIP3    H240596   5.642   4.941   6.917 -0.1969  0.9398  0.3416
 6345TIP3   OH240597   1.156   5.679   7.917  0.4652 -0.2649 -0.0155
 6345TIP3    H140598   1.118   5.709   8.000  0.3572 -0.5955  0.0569
 6345TIP3    H240599   1.092   5.706   7.851  0.1617 -0.6966  0.0916
 6346TIP3   OH240600   5.172   0.029   1.697  0.4602  0.1031 -1.0234
 6346TIP3    H140601   5.180  -0.014   1.611  1.0432 -0.5213 -0.6689
 6346TIP3    H240602   5.252   0.005   1.743 -1.0447 -1.9402  0.7322
 6347TIP3   OH240603   4.648   1.184   6.262  0.1579 -0.0863 -0.2443
 6347TIP3    H140604   4.731   1.225   6.237 -0.3435  1.0600 -0.0989
 6347TIP3    H240605   4.587   1.208   6.192 -0.6112  1.0133  0.7533
 6348TIP3   OH240606   2.899   4.774   0.635  0.1309 -0.0471 -0.2055
 6348TIP3    H140607   2.926   4.683   0.647  1.2088  0.3502  0.5210
 6348TIP3    H240608   2.918   4.816   0.719  0.9334  1.1566 -0.9742
 6349TIP3   OH240609   4.787   0.332   1.719  0.3209 -0.6364  0.1883
 6349TIP3    H140610   4.738   0.368   1.645  2.5856 -2.4627 -2.3936
 6349TIP3    H240611   4.724   0.274   1.763 -1.3004  1.0848  0.2652
 6350TIP3   OH240612   6.350   3.274   2.147  0.2385  0.0112 -0.4609
 6350TIP3    H140613   6.422   3.225   2.107 -0.0100  0.3151 -1.2918
 6350TIP3    H240614   6.271   3.229   2.118  0.0633  0.0764 -0.0897
 6351TIP3   OH240615   0.539   5.578   8.463  0.2979 -0.6521 -0.2786
 6351TIP3    H140616   0.593   5.610   8.535 -1.8892 -0.8282  1.5596
 6351TIP3    H240617   0.503   5.495   8.495 -2.0589  0.0775 -0.8354
 6352TIP3   OH240618   1.960   4.330   1.891 -0.7465  0.7644 -0.4272
 6352TIP3    H140619   1.888   4.372   1.843 -1.0332 -0.2439 -0.9216
 6352TIP3    H240620   2.022   4.305   1.822 -0.4861  0.5780 -0.1240
 6353TIP3   OH240621   6.661   0.982   6.130 -0.1107  0.5182 -0.2379
 6353TIP3    H140622   6.630   1.059   6.178 -0.9904 -0.5864  1.0061
 6353TIP3    H240623   6.582   0.932   6.110  0.6647 -1.9102  2.2296
 6354TIP3   OH240624   2.873   5.642   8.585  0.0940  0.1657 -0.7664
 6354TIP3    H140625   2.887   5.605   8.498 -0.3596  0.9044 -1.1568
 6354TIP3    H240626   2.860   5.565   8.641  1.7555 -0.3857 -1.0751
 6355TIP3   OH240627   5.761   5.373   8.602  0.4144 -0.1891 -0.0392
 6355TIP3    H140628   5.692   5.339   8.545  0.7681 -1.7267  0.4181
 6355TIP3    H240629   5.840   5.370   8.547  0.3881  0.2459 -0.1064
 6356TIP3   OH240630   3.625   3.851   0.405  0.5385 -0.0962 -0.0202
 6356TIP3    H140631   3.547   3.894   0.370 -1.1238 -0.4186  3.0369
 6356TIP3    H240632   3.674   3.921   0.448 -0.1541 -0.5609  1.5544
 6357TIP3   OH240633   2.690   3.429   0.941  0.3927 -0.0919 -0.0370
 6357TIP3    H140634   2.744   3.508   0.950  2.0981 -1.3423  1.4029
 6357TIP3    H240635   2.689   3.412   0.847 -0.5321  1.9335 -0.4526
 6358TIP3   OH240636   5.398   6.522   0.720 -0.5200 -0.4784  0.0252
 6358TIP3    H140637   5.386   6.456   0.652  0.2414 -1.8260  1.1429
 6358TIP3    H240638   5.331   6.588   0.702 -1.2372 -1.5044 -1.1874
 6359TIP3   OH240639   4.471   4.534   8.142  0.6471 -0.0497  0.5208
 6359TIP3    H140640   4.386   4.548   8.183  1.1668 -0.9473  1.9876
 6359TIP3    H240641   4.531   4.593   8.188  1.1838 -0.8554  0.8817
 6360TIP3   OH240642   3.055   3.573   8.182  0.2333  0.3476  0.2072
 6360TIP3    H140643   3.118   3.502   8.195  0.4379  0.6118  0.7145
 6360TIP3    H240644   3.066   3.629   8.260  1.3186  1.8877 -0.9792
 6361TIP3   OH240645   1.881   0.757   1.338 -0.4414  0.2413  0.3509
 6361TIP3    H140646   1.926   0.683   1.377 -1.2132 -0.8685 -0.7951
 6361TIP3    H240647   1.917   0.763   1.249 -2.0706 -0.3122 -0.3932
 6362TIP3   OH240648   2.621   1.071   7.497 -0.4028 -0.1242  0.5978
 6362TIP3    H140649   2.604   1.059   7.404 -0.0962  1.3077  0.3375
 6362TIP3    H240650   2.537   1.049   7.539 -0.3197 -1.5364  0.0824
 6363TIP3   OH240651   5.689   5.724   0.288 -0.1835 -0.3696  0.5329
 6363TIP3    H140652   5.618   5.758   0.233  0.3199 -0.6678 -0.3072
 6363TIP3    H240653   5.687   5.630   0.275 -0.1657 -0.4660  1.1679
 6364TIP3   OH240654   3.545   5.277   1.120  0.2856  0.2017  0.0657
 6364TIP3    H140655   3.527   5.217   1.048 -0.1801 -0.5183  0.7640
 6364TIP3    H240656   3.504   5.235   1.197 -0.1213  1.4510  0.5508
 6365TIP3   OH240657   5.453   6.202   7.064 -0.3877  0.3389  0.2095
 6365TIP3    H140658   5.536   6.156   7.060  0.1801  1.4306 -1.7079
 6365TIP3    H240659   5.392   6.138   7.102  0.9184 -1.0736  0.0293
 6366TIP3   OH240660   5.445   3.101   0.314 -0.3961 -0.1976 -0.0237
 6366TIP3    H140661   5.379   3.164   0.342 -0.3905  0.3717 -1.2216
 6366TIP3    H240662   5.407   3.016   0.332 -1.2729  0.1325 -0.2722
 6367TIP3   OH240663   1.418   2.677   6.610  0.7773  0.2484  0.2910
 6367TIP3    H140664   1.446   2.632   6.530 -0.6663 -0.3400  0.0687
 6367TIP3    H240665   1.407   2.607   6.674  2.1628  0.7468  1.0954
 6368TIP3   OH240666   6.218   6.284   6.957 -0.2836 -0.3334 -0.1593
 6368TIP3    H140667   6.287   6.346   6.980  0.2315 -0.7001 -0.6647
 6368TIP3    H240668   6.189   6.312   6.870  0.0273 -0.8528 -0.4378
 6369TIP3   OH240669   0.413   0.324   7.446 -0.4518  0.5638  0.3098
 6369TIP3    H140670   0.480   0.274   7.493 -0.8343  0.2672  0.5383
 6369TIP3    H240671   0.425   0.414   7.475  0.5729  0.7060 -0.4787
 6370TIP3   OH240672   2.503   3.800   7.915  0.3558 -0.2973  0.2509
 6370TIP3    H140673   2.522   3.757   7.998  0.6305  0.8531  0.7985
 6370TIP3    H240674   2.514   3.893   7.933 -0.3968  0.0222 -0.8644
 6371TIP3   OH240675   4.258   5.929   1.392  0.0767 -0.1771 -0.2280
 6371TIP3    H140676   4.328   5.929   1.458 -0.0308 -1.4770 -0.0922
 6371TIP3    H240677   4.239   6.022   1.378 -0.3834  0.1282  2.0837
 6372TIP3   OH240678   6.195   5.933   1.124 -0.0341 -0.3001  0.6825
 6372TIP3    H140679   6.280   5.907   1.091  0.8755 -0.8008  3.1940
 6372TIP3    H240680   6.210   6.018   1.165 -0.5027 -0.7824  1.9088
 6373TIP3   OH240681   4.358   1.053   7.797  0.1363  0.0937  0.2163
 6373TIP3    H140682   4.360   0.986   7.865  1.4962  1.1835  1.3112
 6373TIP3    H240683   4.414   1.123   7.831 -1.7445  2.0830 -0.5716
 6374TIP3   OH240684   5.163   4.238   1.308 -0.2209  0.3660  0.1039
 6374TIP3    H140685   5.160   4.207   1.399  0.1199 -0.6655 -0.2129
 6374TIP3    H240686   5.249   4.278   1.299 -1.1649  2.7155  0.8928
 6375TIP3   OH240687   0.516   0.858   2.112 -0.2448  0.3869  0.1655
 6375TIP3    H140688   0.473   0.935   2.074  1.0765  0.9884 -0.1616
 6375TIP3    H240689   0.541   0.886   2.200  0.6173  0.4934 -0.1047
 6376TIP3   OH240690   2.181   2.521   0.623  0.2132 -0.9346 -0.0043
 6376TIP3    H140691   2.118   2.533   0.552 -0.5340 -1.4976  0.5476
 6376TIP3    H240692   2.261   2.563   0.592 -0.6279  0.3871 -0.4364
 6377TIP3   OH240693   0.078   4.957   0.500  0.0814 -0.0814 -0.7294
 6377TIP3    H140694   0.045   4.935   0.587  0.2791 -2.2935 -1.1632
 6377TIP3    H240695   0.135   5.033   0.514  0.1507 -0.4280  1.0612
 6378TIP3   OH240696   4.276   2.313   2.195  0.4705 -0.7655 -0.1892
 6378TIP3    H140697   4.208   2.320   2.128 -1.4705  0.8508  1.8164
 6378TIP3    H240698   4.272   2.222   2.223 -2.5895 -0.2663  1.4385
 6379TIP3   OH240699   2.711   2.891   1.668 -0.1162 -0.6961  0.0171
 6379TIP3    H140700   2.685   2.918   1.756 -1.7175  1.3393 -0.9947
 6379TIP3    H240701   2.775   2.957   1.641 -2.5326  1.0708 -1.7257
 6380TIP3   OH240702   6.161   5.076   1.325  0.0559  0.0318  0.1834
 6380TIP3    H140703   6.115   5.067   1.409 -0.1695  1.7839  0.2824
 6380TIP3    H240704   6.092   5.097   1.262  0.2891 -0.8243 -0.3696
 6381TIP3   OH240705   1.278   0.394   7.139  0.6714  0.1285 -0.4961
 6381TIP3    H140706   1.221   0.397   7.062  0.0086  0.0292 -0.0123
 6381TIP3    H240707   1.336   0.319   7.122  0.1587 -0.2439 -0.6463
 6382TIP3   OH240708   0.121   3.274   6.240  0.1650 -0.4559 -0.0146
 6382TIP3    H140709   0.181   3.212   6.197  1.3070  0.3378  0.3764
 6382TIP3    H240710   0.096   3.231   6.321  0.7020 -0.5521  0.1067
 6383TIP3   OH240711   2.809   4.268   8.333  0.3500  0.3885 -0.5526
 6383TIP3    H140712   2.893   4.248   8.373  0.7913  0.3554 -1.4718
 6383TIP3    H240713   2.782   4.351   8.372 -0.5233 -0.8935  1.7895
 6384TIP3   OH240714   1.196   6.784   7.538 -0.3537 -0.2762 -0.6085
 6384TIP3    H140715   1.196   6.844   7.464 -0.9637  1.2745  0.5983
 6384TIP3    H240716   1.128   6.817   7.596 -1.2580 -2.5953 -0.2315
 6385TIP3   OH240717   6.178   0.832   1.409 -0.6359  0.3868  0.3009
 6385TIP3    H140718   6.125   0.767   1.454 -0.7353  0.8154  0.8115
 6385TIP3    H240719   6.266   0.796   1.408 -1.3126 -1.6768 -3.0091
 6386TIP3   OH240720   0.607   1.161   1.548 -0.3176 -0.0391  0.1242
 6386TIP3    H140721   0.688   1.211   1.541 -0.3351 -0.0369 -0.0710
 6386TIP3    H240722   0.538   1.224   1.528 -0.2805 -0.3590 -1.0424
 6387TIP3   OH240723   4.194   5.223   8.257 -0.8882 -0.7794  0.3107
 6387TIP3    H140724   4.266   5.208   8.195 -1.8937  2.3931 -1.8509
 6387TIP3    H240725   4.237   5.256   8.335  0.3540 -4.2703  1.2952
 6388TIP3   OH240726   0.092   6.323   8.205  0.9084 -0.2273 -0.5723
 6388TIP3    H140727   0.173   6.372   8.218  0.6135  0.0384  0.3600
 6388TIP3    H240728   0.094   6.255   8.271 -0.3202  0.7215  0.4943
 6389TIP3   OH240729   5.106   1.583   8.672 -0.2922  0.0037  0.1172
 6389TIP3    H140730   5.066   1.614   8.753 -0.5063 -2.1483  0.8966
 6389TIP3    H240731   5.198   1.609   8.679 -0.2287 -0.4892  1.2542
 6390TIP3   OH240732   2.425   5.424   0.173  0.0174 -0.5170 -0.6601
 6390TIP3    H140733   2.462   5.358   0.114 -1.3568 -0.5026 -1.5918
 6390TIP3    H240734   2.463   5.404   0.258 -0.8807 -3.0064 -0.7532
 6391TIP3   OH240735   0.130   1.031   8.369 -0.3842  0.5158  0.0395
 6391TIP3    H140736   0.204   1.089   8.357 -1.4797  2.1247  0.7233
 6391TIP3    H240737   0.106   1.003   8.280  0.5754  0.5403 -0.2367
 6392TIP3   OH240738   4.091   2.007   8.330 -0.1137  0.4075  0.4908
 6392TIP3    H140739   4.136   1.941   8.277  1.1032  0.7781  1.0267
 6392TIP3    H240740   4.051   1.956   8.401  0.6344  0.1933  0.7765
 6393TIP3   OH240741   3.407   5.419   0.742 -0.0210 -0.4097 -0.0177
 6393TIP3    H140742   3.376   5.330   0.724  1.9766 -1.3372  0.8671
 6393TIP3    H240743   3.475   5.434   0.675 -0.7281  0.7007 -0.5175
 6394TIP3   OH240744   3.419   2.234   1.984 -0.1097 -0.6633  0.2467
 6394TIP3    H140745   3.488   2.202   1.924  0.7744 -1.1307  1.4740
 6394TIP3    H240746   3.352   2.166   1.980 -0.4595 -0.2733 -0.8564
 6395TIP3   OH240747   2.954   5.352   0.313  0.3924  0.0246  1.4731
 6395TIP3    H140748   2.887   5.359   0.381 -0.0837  0.0371  1.0012
 6395TIP3    H240749   2.918   5.398   0.238  1.0172  0.2137  1.2767
 6396TIP3   OH240750   5.876   3.646   0.711  0.1289 -0.3049  0.2477
 6396TIP3    H140751   5.948   3.709   0.706  1.3513 -1.6193  0.4134
 6396TIP3    H240752   5.879   3.599   0.628 -0.5112 -0.4167  0.2836
 6397TIP3   OH240753   2.033   1.469   0.448  0.3802 -0.2205 -0.2670
 6397TIP3    H140754   2.032   1.563   0.427 -1.3495 -0.4485 -1.4470
 6397TIP3    H240755   1.969   1.431   0.388  1.3248 -2.2379 -0.0663
 6398TIP3   OH240756   2.823   5.953   0.419 -0.4337  0.4801 -0.6280
 6398TIP3    H140757   2.910   5.953   0.459  0.4870  0.0424 -2.5117
 6398TIP3    H240758   2.828   6.019   0.350 -0.4756 -1.7191 -2.8815
 6399TIP3   OH240759   1.251   3.693   8.787  0.4320 -0.0837 -0.9764
 6399TIP3    H140760   1.333   3.716   8.831  0.6809 -0.8471 -1.0357
 6399TIP3    H240761   1.187   3.687   8.858  0.9097 -1.6740 -0.6470
 6400TIP3   OH240762   5.617   6.057   8.752 -0.1897 -0.3178  0.1073
 6400TIP3    H140763   5.602   6.072   8.658 -1.9244  0.7374  0.5194
 6400TIP3    H240764   5.696   6.107   8.772  2.3611 -3.3465 -1.4484
 6401TIP3   OH240765   2.080   4.881   7.854 -0.0311  0.2412 -0.1842
 6401TIP3    H140766   2.120   4.922   7.777 -0.8565 -0.5344 -1.0545
 6401TIP3    H240767   2.045   4.955   7.904  1.5391  0.8451  0.0710
 6402TIP3   OH240768   0.991   1.832   2.088  0.7742 -0.1934  0.7710
 6402TIP3    H140769   0.913   1.796   2.045  1.5310 -0.8336 -0.1148
 6402TIP3    H240770   1.052   1.758   2.091  0.7417 -0.1856  3.0290
 6403TIP3   OH240771   3.603   1.155   7.090 -0.5369 -0.0986  0.2011
 6403TIP3    H140772   3.648   1.097   7.151  1.2792 -0.3112 -1.2483
 6403TIP3    H240773   3.526   1.105   7.062 -0.3533 -0.7780  0.8679
 6404TIP3   OH240774   3.185   6.388   0.298 -0.2203  0.1483 -0.2821
 6404TIP3    H140775   3.116   6.363   0.359  0.8730  0.2529  1.0408
 6404TIP3    H240776   3.150   6.465   0.253 -1.8393 -1.0850 -1.2629
 6405TIP3   OH240777   3.820   5.613   7.831 -0.7324 -0.5437  0.5026
 6405TIP3    H140778   3.798   5.642   7.742  0.5654  2.1639  0.9615
 6405TIP3    H240779   3.743   5.565   7.860 -1.4900 -0.8457 -1.8019
 6406TIP3   OH240780   2.082   2.940   0.266  0.7310 -0.0579 -0.4061
 6406TIP3    H140781   2.063   2.995   0.189  0.9945 -0.0435 -0.4608
 6406TIP3    H240782   2.135   2.996   0.322  2.6495 -0.8663 -1.3084
 6407TIP3   OH240783   4.783   6.313   7.908 -0.1874 -0.1185 -0.4002
 6407TIP3    H140784   4.846   6.380   7.937  0.2638 -1.3657  1.7672
 6407TIP3    H240785   4.704   6.362   7.886 -0.3057  1.1467  2.3422
 6408TIP3   OH240786   2.473   1.585   1.082  0.0084  0.4271  0.1078
 6408TIP3    H140787   2.525   1.527   1.139  0.1272 -1.0045 -1.3938
 6408TIP3    H240788   2.420   1.637   1.143 -2.1274 -3.1092  1.5245
 6409TIP3   OH240789   1.493   6.407   0.239  0.1445  0.0783 -0.7730
 6409TIP3    H140790   1.584   6.384   0.260 -0.3240 -0.2501  1.1300
 6409TIP3    H240791   1.455   6.326   0.205  0.7018  0.3853 -2.1916
 6410TIP3   OH240792   3.344   3.729   8.427 -0.4640  0.4952  0.0072
 6410TIP3    H140793   3.399   3.651   8.436  0.4329  1.0201 -0.6769
 6410TIP3    H240794   3.302   3.738   8.512  2.6255  1.5766  1.5918
 6411TIP3   OH240795   5.756   1.060   0.914  0.0385  0.2052  0.3890
 6411TIP3    H140796   5.702   1.045   0.837  0.1917 -3.1203  0.8118
 6411TIP3    H240797   5.705   1.120   0.968 -0.5917  1.6595 -1.6828
 6412TIP3   OH240798   3.734   4.416   8.462 -0.0550  0.2031  0.0472
 6412TIP3    H140799   3.776   4.501   8.476 -0.2454  0.1970  0.7216
 6412TIP3    H240800   3.641   4.437   8.451 -0.0513  0.1123 -0.1573
 6413TIP3   OH240801   2.413   0.700   7.482 -0.1160  0.1837 -0.2942
 6413TIP3    H140802   2.392   0.617   7.438  1.2120 -1.4164  1.8874
 6413TIP3    H240803   2.425   0.676   7.574  1.3509  2.6444  0.2466
 6414TIP3   OH240804   5.652   1.322   0.330  0.0100  0.7652  0.1955
 6414TIP3    H140805   5.591   1.320   0.257  0.3284  0.2922 -0.0659
 6414TIP3    H240806   5.623   1.395   0.385  0.1836  1.5710 -0.7623
 6415TIP3   OH240807   2.528   4.735   1.598  0.1455 -0.4078 -0.2255
 6415TIP3    H140808   2.614   4.709   1.563  0.2409 -1.8350  0.9763
 6415TIP3    H240809   2.505   4.813   1.548  1.6405 -0.6280 -1.3458
 6416TIP3   OH240810   2.588   4.545   1.069 -0.0812 -0.6573 -0.4331
 6416TIP3    H140811   2.554   4.527   1.157 -0.1436  0.5265 -0.1990
 6416TIP3    H240812   2.522   4.602   1.029  0.5738 -0.1162 -0.7641
 6417TIP3   OH240813   0.341   1.842   8.393  0.2353 -0.2963 -1.0086
 6417TIP3    H140814   0.359   1.814   8.482 -1.1649 -1.5203 -1.0906
 6417TIP3    H240815   0.411   1.905   8.374  0.8875 -0.4396  0.7275
 6418TIP3   OH240816   0.565   4.781   7.060 -0.2319 -0.2405 -0.9642
 6418TIP3    H140817   0.527   4.860   7.100  0.2778 -0.3505 -0.2394
 6418TIP3    H240818   0.489   4.725   7.040 -0.7342  1.0341 -2.8937
 6419TIP3   OH240819   2.540   0.459   7.309  0.1531  0.4321  1.0602
 6419TIP3    H140820   2.489   0.422   7.382 -1.8486  2.1582  0.6347
 6419TIP3    H240821   2.531   0.395   7.239 -1.5916  0.7361  0.9613
 6420TIP3   OH240822   3.749   3.843   7.493  0.0634  0.3273 -0.2978
 6420TIP3    H140823   3.816   3.789   7.535 -0.3716  1.7657  2.4006
 6420TIP3    H240824   3.675   3.842   7.554 -1.2605  1.1982 -1.8147
 6421TIP3   OH240825   3.773   2.233   6.609  0.3684 -0.8220 -0.1330
 6421TIP3    H140826   3.697   2.253   6.554 -0.6517  0.9548  1.8036
 6421TIP3    H240827   3.738   2.178   6.679  0.8692 -0.1117  0.6919
 6422TIP3   OH240828   5.465   6.035   7.400  0.7011 -0.1370  0.0326
 6422TIP3    H140829   5.450   6.102   7.467 -1.0989 -0.8646  0.4102
 6422TIP3    H240830   5.380   5.994   7.387  1.9092 -3.0577  0.5540
 6423TIP3   OH240831   2.165   6.124   0.422 -0.4749 -0.1721 -0.4847
 6423TIP3    H140832   2.138   6.201   0.372  0.5365  0.2230 -0.4394
 6423TIP3    H240833   2.243   6.092   0.377 -0.6118 -0.8881 -0.2221
 6424TIP3   OH240834   3.497   1.440   7.208 -0.7787 -0.3941  0.5679
 6424TIP3    H140835   3.532   1.412   7.123 -0.9527 -0.9125  0.6603
 6424TIP3    H240836   3.501   1.362   7.262  0.6135  0.2809  1.4735
 6425TIP3   OH240837   1.370   1.268   0.386  0.0891 -0.0236 -0.3120
 6425TIP3    H140838   1.317   1.189   0.398  0.7978 -0.5160 -0.3739
 6425TIP3    H240839   1.369   1.283   0.291  0.0157 -0.0002 -0.3076
 6426TIP3   OH240840   0.301   4.623   0.591 -0.2912 -0.1466 -0.1926
 6426TIP3    H140841   0.316   4.716   0.576 -0.0471 -0.3326 -1.1460
 6426TIP3    H240842   0.383   4.591   0.629 -0.3200 -0.0074 -0.0117
 6427TIP3   OH240843   2.130   5.999   7.129 -0.1770 -0.3876 -0.8744
 6427TIP3    H140844   2.074   5.934   7.087 -1.5487  0.5497 -0.5682
 6427TIP3    H240845   2.071   6.050   7.185  1.3356 -0.6748  1.1104
 6428TIP3   OH240846   5.720   0.381   7.610  0.3035 -0.1891  0.3174
 6428TIP3    H140847   5.658   0.341   7.671 -0.3784 -0.6502 -0.6475
 6428TIP3    H240848   5.665   0.416   7.539  1.1326 -0.4524 -0.4777
 6429TIP3   OH240849   3.304   6.370   1.288  0.2996 -0.3749 -0.6965
 6429TIP3    H140850   3.326   6.434   1.220 -2.5321 -0.0181 -1.3904
 6429TIP3    H240851   3.208   6.368   1.289  0.2792 -3.0397  0.8087
 6430TIP3   OH240852   0.934   3.350   7.515  0.0366 -0.7608 -0.4243
 6430TIP3    H140853   0.903   3.319   7.430 -3.0671  1.5072 -0.2870
 6430TIP3    H240854   0.966   3.439   7.498 -2.2246  0.4042  0.9320
 6431TIP3   OH240855   4.600   4.168   0.114 -1.0590  0.7323 -0.7712
 6431TIP3    H140856   4.642   4.116   0.045 -0.9838  1.1259 -1.0206
 6431TIP3    H240857   4.557   4.103   0.169  0.1150  0.2860 -0.3366
 6432TIP3   OH240858   5.650   5.646   6.847 -0.0695 -1.1186 -0.3091
 6432TIP3    H140859   5.700   5.696   6.782  0.2712 -0.2288  0.6169
 6432TIP3    H240860   5.651   5.556   6.814  0.2084 -0.7038 -1.4655
 6433TIP3   OH240861   0.963   1.877   7.630 -0.0843  0.5783 -0.3765
 6433TIP3    H140862   0.998   1.956   7.588  0.8460  0.0534 -0.6174
 6433TIP3    H240863   1.012   1.805   7.590 -1.0784 -0.1446 -0.3264
 6434TIP3   OH240864   6.170   0.622   7.175  0.1934  0.3352 -0.0732
 6434TIP3    H140865   6.261   0.606   7.196  0.4266 -0.6357 -1.6391
 6434TIP3    H240866   6.165   0.611   7.080 -1.4950  0.6461 -0.0602
 6435TIP3   OH240867   4.886   1.992   8.401 -0.1815 -0.2095 -0.6570
 6435TIP3    H140868   4.945   2.066   8.390  0.2345  0.0085  2.2062
 6435TIP3    H240869   4.939   1.915   8.383  0.8411  0.0291  1.0906
 6436TIP3   OH240870   0.867   1.419   0.099  0.3578 -0.1678 -0.1352
 6436TIP3    H140871   0.819   1.366   0.036 -0.1567  1.0036 -0.7596
 6436TIP3    H240872   0.894   1.496   0.049 -1.2621  1.4662  1.3669
 6437TIP3   OH240873   1.065   6.558   0.830  0.8580 -0.1555 -0.2877
 6437TIP3    H140874   1.083   6.529   0.741  0.7297 -2.2072  0.2971
 6437TIP3    H240875   1.136   6.521   0.882 -0.2320 -0.8682  0.7481
 6438TIP3   OH240876   3.371   1.155   1.522  0.3480  0.2562  0.1040
 6438TIP3    H140877   3.360   1.201   1.439  0.9220  0.2969  0.0413
 6438TIP3    H240878   3.339   1.216   1.588 -1.3039 -0.2735 -0.1752
 6439TIP3   OH240879   6.789   5.609   7.335 -0.3806  0.2350 -0.0722
 6439TIP3    H140880   6.779   5.538   7.398 -0.9431  0.4213  0.0562
 6439TIP3    H240881   6.700   5.627   7.305 -0.0392 -0.4750 -1.6269
 6440TIP3   OH240882   1.888   0.528   7.474 -0.0614  0.1443  0.3447
 6440TIP3    H140883   1.849   0.504   7.558  0.0622 -0.6149  0.1981
 6440TIP3    H240884   1.835   0.482   7.408  2.3727 -2.8902  0.2641
 6441TIP3   OH240885   0.624   6.591   0.597  0.3324 -0.3647  0.1684
 6441TIP3    H140886   0.557   6.539   0.554 -0.7195  1.2066 -0.1977
 6441TIP3    H240887   0.706   6.543   0.582 -0.7522 -2.7480  1.2985
 6442TIP3   OH240888   2.966   4.195   7.501  0.3096  0.3977 -0.1338
 6442TIP3    H140889   3.036   4.260   7.506 -0.9636  1.9444 -1.2525
 6442TIP3    H240890   2.970   4.148   7.585  0.6453  2.6210  1.1719
 6443TIP3   OH240891   6.115   2.379   8.316 -0.0785 -0.2093  0.1602
 6443TIP3    H140892   6.158   2.464   8.315  2.4675 -1.3337  2.1462
 6443TIP3    H240893   6.045   2.389   8.382 -1.5962  1.0102 -1.5310
 6444TIP3   OH240894   6.585   3.704   1.152 -0.2439 -0.3089  0.4152
 6444TIP3    H140895   6.542   3.691   1.236  2.0125  1.8462  2.0550
 6444TIP3    H240896   6.634   3.622   1.138 -0.7730 -0.7595  1.1232
 6445TIP3   OH240897   3.010   4.775   2.268  0.0299 -0.0316  0.0278
 6445TIP3    H140898   3.000   4.703   2.205 -0.4122 -1.2522  1.4430
 6445TIP3    H240899   3.076   4.745   2.329 -1.4076 -0.0231  1.6616
 6446TIP3   OH240900   1.763   2.154   1.686 -0.2886 -0.1707  0.0934
 6446TIP3    H140901   1.780   2.164   1.592 -1.6820  0.5186 -0.1101
 6446TIP3    H240902   1.701   2.082   1.692  1.7385 -1.9652  0.7353
 6447TIP3   OH240903   6.015   1.044   7.247  1.3663 -0.2402  0.1318
 6447TIP3    H140904   5.971   1.028   7.331  0.1233 -1.4998 -0.7095
 6447TIP3    H240905   5.983   1.130   7.219 -0.5326 -1.0701 -0.3887
 6448TIP3   OH240906   6.089   0.046   8.546  0.0553  0.7344  0.8606
 6448TIP3    H140907   6.094   0.141   8.549  0.9459  0.8378 -1.6140
 6448TIP3    H240908   6.157   0.020   8.483 -1.4332 -1.3722 -0.0041
 6449TIP3   OH240909   4.267   0.925   2.253  0.0921 -0.4751 -0.4441
 6449TIP3    H140910   4.204   0.870   2.301  0.4118 -0.8133 -0.4113
 6449TIP3    H240911   4.216   1.002   2.227  0.1705  0.2365  1.3613
 6450TIP3   OH240912   4.815   0.321   6.937 -0.5836  0.0917  0.6352
 6450TIP3    H140913   4.856   0.304   6.852 -0.6663  2.0343  0.1683
 6450TIP3    H240914   4.847   0.250   6.993  0.1747 -0.7339 -0.7687
 6451TIP3   OH240915   5.191   1.735   6.395 -0.1025 -0.2320  0.1193
 6451TIP3    H140916   5.125   1.736   6.464 -0.2391 -1.1885  0.0148
 6451TIP3    H240917   5.143   1.708   6.316 -0.0147  1.1560 -0.4414
 6452TIP3   OH240918   1.255   2.423   0.359  0.3193  0.0761 -0.0216
 6452TIP3    H140919   1.296   2.354   0.412  1.5824 -0.3518 -1.4752
 6452TIP3    H240920   1.235   2.493   0.421 -0.8319 -1.4831  1.4799
 6453TIP3   OH240921   4.420   5.401   7.161  0.0529 -0.2543  0.2545
 6453TIP3    H140922   4.495   5.351   7.129  0.8466  1.6362 -1.0031
 6453TIP3    H240923   4.375   5.430   7.081 -1.5770 -0.6798  0.9800
 6454TIP3   OH240924   6.210   1.161   2.074  0.0410  0.7921 -0.1006
 6454TIP3    H140925   6.121   1.197   2.069  0.5060  1.9920  0.1525
 6454TIP3    H240926   6.201   1.086   2.134 -0.8258  0.7999 -0.2027
 6455TIP3   OH240927   2.352   3.480   1.537  0.0231  0.0024 -0.1159
 6455TIP3    H140928   2.398   3.553   1.495  1.2302 -1.7198 -1.9601
 6455TIP3    H240929   2.273   3.468   1.484 -0.8872  0.7811  1.0107
 6456TIP3   OH240930   1.336   6.458   1.282  1.3444 -0.3851 -0.1256
 6456TIP3    H140931   1.305   6.518   1.214  0.4865 -1.2271 -0.5020
 6456TIP3    H240932   1.386   6.392   1.235 -1.5441 -2.5749 -0.4434
 6457TIP3   OH240933   1.763   5.030   0.584 -0.6753  0.4747 -0.4765
 6457TIP3    H140934   1.733   5.013   0.495 -1.5532 -0.4385 -0.0306
 6457TIP3    H240935   1.850   5.070   0.573  0.9046 -2.8982 -1.7093
 6458TIP3   OH240936   4.437   0.250   6.401 -0.2625 -0.4371 -0.7565
 6458TIP3    H140937   4.370   0.292   6.454 -1.0393 -0.7692 -1.4601
 6458TIP3    H240938   4.456   0.313   6.331 -0.7982 -0.8814 -1.3105
 6459TIP3   OH240939   2.320   2.483   8.397  0.1483 -0.0365  0.0469
 6459TIP3    H140940   2.282   2.534   8.469  1.7158  0.3199  0.6507
 6459TIP3    H240941   2.361   2.408   8.441 -2.3158 -2.0306 -0.8300
 6460TIP3   OH240942   4.552   0.231   8.235  0.6834 -0.1024 -0.6313
 6460TIP3    H140943   4.480   0.168   8.234 -0.6989  1.3460  0.7165
 6460TIP3    H240944   4.618   0.190   8.291 -0.0535 -0.5126 -0.0416
 6461TIP3   OH240945   3.478   5.383   6.749  0.1996 -0.2311  0.3757
 6461TIP3    H140946   3.410   5.407   6.812  0.8320  1.9655  0.3171
 6461TIP3    H240947   3.519   5.466   6.726  1.4838 -1.2510 -1.2314
 6462TIP3   OH240948   4.559   3.602   8.397  0.3392  0.1695  0.6336
 6462TIP3    H140949   4.644   3.570   8.426 -0.6675 -0.5211  3.0561
 6462TIP3    H240950   4.578   3.683   8.349  2.2316  0.9973  2.6431
 6463TIP3   OH240951   0.161   0.401   1.997 -0.5432  0.2568  0.2435
 6463TIP3    H140952   0.190   0.469   2.057 -2.8972  1.3622  0.2422
 6463TIP3    H240953   0.177   0.438   1.910  1.7483 -0.8580  0.1004
 6464TIP3   OH240954   4.065   3.687   7.234  0.3234  0.5049  0.3207
 6464TIP3    H140955   4.072   3.638   7.152  0.7318  0.4354  0.3929
 6464TIP3    H240956   4.113   3.634   7.298 -0.6479  0.1709  0.7888
 6465TIP3   OH240957   6.341   4.417   7.177 -0.4625 -0.1193 -0.8353
 6465TIP3    H140958   6.399   4.485   7.211 -1.1799 -1.0808  2.7510
 6465TIP3    H240959   6.261   4.425   7.229 -1.2218 -2.6007 -1.4698
 6466TIP3   OH240960   3.233   2.043   1.236 -0.1557 -0.1098  0.3607
 6466TIP3    H140961   3.177   2.007   1.305 -0.3468  1.7633  1.2311
 6466TIP3    H240962   3.322   2.019   1.262 -0.1683  1.1465  1.6555
 6467TIP3   OH240963   4.071   1.885   0.632 -0.3790  0.2415  0.3289
 6467TIP3    H140964   4.084   1.902   0.538 -0.1622  0.1453  0.3424
 6467TIP3    H240965   4.080   1.790   0.641 -2.9222 -0.1142  0.0337
 6468TIP3   OH240966   5.440   4.483   7.520 -0.1391 -0.1155 -0.6087
 6468TIP3    H140967   5.353   4.461   7.488 -0.4938  3.2940 -2.4183
 6468TIP3    H240968   5.429   4.570   7.560  2.0028 -0.6587  1.3794
 6469TIP3   OH240969   3.912   5.668   2.529  0.0075  0.0565  0.4330
 6469TIP3    H140970   3.881   5.600   2.469 -0.2252  0.6239 -0.0956
 6469TIP3    H240971   3.868   5.747   2.500  0.5629  0.5092  0.8159
 6470TIP3   OH240972   2.882   6.490   2.247 -0.2419 -0.2954 -0.5560
 6470TIP3    H140973   2.821   6.456   2.313  0.8716 -2.6292 -0.6419
 6470TIP3    H240974   2.969   6.469   2.281  0.6247  2.8881 -0.4779
 6471TIP3   OH240975   1.710   4.364   7.200 -0.1342 -0.2943  0.3443
 6471TIP3    H140976   1.780   4.301   7.218  0.3335  0.8488  2.9301
 6471TIP3    H240977   1.756   4.441   7.166 -0.0353  0.4844  2.1152
 6472TIP3   OH240978   3.912   5.659   6.806  0.4884  0.7791  0.0571
 6472TIP3    H140979   3.852   5.637   6.735  0.1129 -0.2508  0.6634
 6472TIP3    H240980   3.859   5.709   6.868  1.2861  3.3808 -1.2114
 6473TIP3   OH240981   0.316   4.273   1.221 -0.8934 -0.8638  0.3759
 6473TIP3    H140982   0.372   4.221   1.280 -1.6718 -0.2600  1.6966
 6473TIP3    H240983   0.268   4.207   1.171 -0.9445 -1.4261  1.1322
 6474TIP3   OH240984   2.352   5.563   6.683 -0.1665  0.6258  0.3149
 6474TIP3    H140985   2.445   5.586   6.686  0.1235 -0.5139  0.3101
 6474TIP3    H240986   2.311   5.623   6.745  0.4172  1.8056 -0.4065
 6475TIP3   OH240987   4.529   3.009   8.214 -0.9884 -0.4350  0.3882
 6475TIP3    H140988   4.543   3.035   8.305  1.2505 -0.1196  0.0070
 6475TIP3    H240989   4.499   3.089   8.171 -0.8369 -0.2611  0.6001
 6476TIP3   OH240990   5.002   1.013   7.694 -0.4889 -0.2173 -0.6716
 6476TIP3    H140991   5.020   0.933   7.744 -0.1273  0.4140  0.2368
 6476TIP3    H240992   4.920   0.995   7.649 -0.8341 -0.8181  0.1601
 6477TIP3   OH240993   3.460   1.978   7.598  0.2420  0.2843  0.0299
 6477TIP3    H140994   3.424   2.058   7.559  1.4938 -0.0712 -2.0220
 6477TIP3    H240995   3.535   1.956   7.542 -0.4074 -2.6328  0.1398
 6478TIP3   OH240996   4.961   5.267   1.959  0.8333 -0.0101  0.1798
 6478TIP3    H140997   4.975   5.179   1.994  1.1193  0.1316  0.4239
 6478TIP3    H240998   4.970   5.256   1.864  1.1184 -0.2025  0.2258
 6479TIP3   OH240999   4.315   0.138   6.993  0.8507  0.3842  0.3879
 6479TIP3    H141000   4.401   0.128   6.953  0.1095  0.8546 -1.4499
 6479TIP3    H241001   4.276   0.213   6.948 -1.9122 -1.9641 -1.5483
 6480TIP3   OH241002   6.206   6.666   1.370  0.4185 -0.0020 -0.0195
 6480TIP3    H141003   6.155   6.621   1.303  2.9346 -0.1923 -1.9732
 6480TIP3    H241004   6.187   6.758   1.358 -0.4133 -0.1468  0.1547
 6481TIP3   OH241005   0.937   0.530   2.474 -0.6012  0.1248  0.7257
 6481TIP3    H141006   0.876   0.595   2.507 -0.4183  1.6074 -1.6128
 6481TIP3    H241007   0.883   0.470   2.422 -0.3983 -0.0198  0.6783
 6482TIP3   OH241008   0.532   6.730   8.520 -0.3274  0.3973  0.2807
 6482TIP3    H141009   0.566   6.656   8.570 -0.7257 -0.3351 -0.5017
 6482TIP3    H241010   0.444   6.703   8.493 -0.3151  0.9828 -0.3826
 6483TIP3   OH241011   0.701   1.482   1.677 -0.1489 -0.2363  0.4148
 6483TIP3    H141012   0.752   1.560   1.698 -0.5513  0.4237 -0.9067
 6483TIP3    H241013   0.684   1.489   1.583 -1.6864 -1.0131  0.5897
 6484TIP3   OH241014   0.031   5.507   6.363 -0.3230  0.2466  0.6348
 6484TIP3    H141015  -0.045   5.542   6.317  0.4013  1.2412  0.1645
 6484TIP3    H241016   0.098   5.497   6.296  0.2369  0.1994  1.1889
 6485TIP3   OH241017   1.814   3.795   0.403 -0.0842 -0.1471  0.4485
 6485TIP3    H141018   1.867   3.756   0.472  0.2998 -2.4169 -1.0233
 6485TIP3    H241019   1.877   3.843   0.348 -0.4028  1.7419  1.6380
 6486TIP3   OH241020   0.074   2.742   8.348 -0.4152 -0.0095  0.1048
 6486TIP3    H141021   0.100   2.768   8.436 -0.5342 -1.8573  0.7294
 6486TIP3    H241022   0.144   2.685   8.318  0.2319  1.5575 -1.5380
 6487TIP3   OH241023   3.788   6.291   2.179 -0.2360 -0.2221  0.3336
 6487TIP3    H141024   3.808   6.376   2.219  0.5464 -0.8249  1.2593
 6487TIP3    H241025   3.702   6.268   2.213  0.1441 -0.4271  1.1632
 6488TIP3   OH241026   3.107   6.439   0.909 -0.3402  0.8193 -0.3090
 6488TIP3    H141027   3.137   6.530   0.904 -0.6592  0.9820  0.5422
 6488TIP3    H241028   3.069   6.432   0.996 -1.4230  0.2041 -0.8145
 6489TIP3   OH241029   3.453   3.217   8.389 -0.6257 -0.1224  0.1559
 6489TIP3    H141030   3.508   3.177   8.322 -0.2815  1.5819 -0.6178
 6489TIP3    H241031   3.406   3.143   8.429 -0.5958 -1.2008 -1.7206
 6490TIP3   OH241032   3.471   1.644   7.781 -0.1126 -0.4708  0.4495
 6490TIP3    H141033   3.400   1.608   7.728  0.6897 -0.0200 -1.0050
 6490TIP3    H241034   3.454   1.738   7.784 -0.4059 -0.5472  1.4160
 6491TIP3   OH241035   1.963   5.191   8.296 -0.1097  0.2568  0.4927
 6491TIP3    H141036   2.042   5.242   8.315 -0.6034  1.2353 -0.0472
 6491TIP3    H241037   1.939   5.153   8.380  1.8788 -1.4547  0.3640
 6492TIP3   OH241038   5.668   2.610   1.001  0.4578  0.4295  0.1478
 6492TIP3    H141039   5.630   2.692   0.971  0.0312 -0.0617 -0.6896
 6492TIP3    H241040   5.714   2.574   0.924  0.8442  0.0001  0.5660
 6493TIP3   OH241041   3.301   0.504   1.490  0.1644  0.0781 -0.0466
 6493TIP3    H141042   3.252   0.424   1.509 -1.7602  0.9740 -0.9655
 6493TIP3    H241043   3.354   0.519   1.569  2.7930 -3.5265 -0.8870
 6494TIP3   OH241044   4.290   2.473   7.454  0.1574 -0.8798 -0.0441
 6494TIP3    H141045   4.275   2.385   7.488  0.6853 -1.2578 -0.7605
 6494TIP3    H241046   4.283   2.464   7.359 -3.4704  0.5553 -0.0550
 6495TIP3   OH241047   4.198   6.776   1.810  0.4331 -0.2162  0.1978
 6495TIP3    H141048   4.241   6.696   1.780  0.4266 -1.2689  2.7821
 6495TIP3    H241049   4.269   6.839   1.820  0.4082  0.2794 -2.1099
 6496TIP3   OH241050   3.912   0.054   0.010 -0.0110 -0.2645 -0.1571
 6496TIP3    H141051   3.816   0.048   0.001  0.0215 -0.5473 -0.3394
 6496TIP3    H241052   3.944   0.057  -0.080  0.1213  0.4041 -0.0938
 6497TIP3   OH241053   2.081   2.915   1.649 -0.7997 -0.7648  0.2493
 6497TIP3    H141054   2.122   2.981   1.705 -0.5892 -0.9872  0.3583
 6497TIP3    H241055   2.004   2.959   1.612  0.7851  0.4568 -1.8451
 6498TIP3   OH241056   1.861   2.964   0.454 -0.1333 -0.0476 -0.5788
 6498TIP3    H141057   1.856   3.059   0.459 -1.1897 -0.1223  0.0415
 6498TIP3    H241058   1.924   2.947   0.384 -0.1198  1.1054 -0.8639
 6499TIP3   OH241059   1.993   5.094   8.025 -0.6994  0.2567 -0.3349
 6499TIP3    H141060   1.959   5.160   7.964 -0.9271 -0.3552 -0.8900
 6499TIP3    H241061   1.952   5.115   8.109 -1.1554  0.5263 -0.6196
 6500TIP3   OH241062   2.272   6.103   7.706  0.3570 -0.2087  0.1004
 6500TIP3    H141063   2.327   6.051   7.648  2.6210 -0.7196  2.5408
 6500TIP3    H241064   2.222   6.039   7.756  0.5781  0.0804  0.7073
 6501TIP3   OH241065   0.101   1.508   6.482  0.0976 -0.0509  0.1393
 6501TIP3    H141066   0.147   1.435   6.524 -1.1267 -1.4656 -0.8898
 6501TIP3    H241067   0.089   1.480   6.391 -0.3349  1.4819 -0.3047
 6502TIP3   OH241068   6.291   3.310   6.856 -0.3335 -0.8939  0.1057
 6502TIP3    H141069   6.341   3.232   6.881 -1.2277 -1.0233  1.6490
 6502TIP3    H241070   6.203   3.276   6.836 -0.2036 -0.5061 -1.2534
 6503TIP3   OH241071   1.828   1.509   8.061 -0.3164  0.1419  1.1296
 6503TIP3    H141072   1.743   1.474   8.087  0.2115 -0.3788  2.2119
 6503TIP3    H241073   1.880   1.507   8.141  0.1914  2.0539  0.8981
 6504TIP3   OH241074   6.481   3.435   2.611 -0.3158 -0.5050 -0.4266
 6504TIP3    H141075   6.495   3.341   2.604 -0.5423 -0.4568 -1.8391
 6504TIP3    H241076   6.388   3.447   2.593 -1.0074 -0.2414  2.7004
 6505TIP3   OH241077   0.986   3.813   0.108 -0.0168 -0.3996  0.5394
 6505TIP3    H141078   0.942   3.787   0.189 -2.1398 -2.0296 -1.0255
 6505TIP3    H241079   0.921   3.865   0.062  1.5055  1.3329  0.2121
 6506TIP3   OH241080   4.098   4.921   6.721  0.4863 -0.0108 -0.0676
 6506TIP3    H141081   4.094   4.847   6.660 -3.3189 -1.5841  1.7307
 6506TIP3    H241082   4.028   4.980   6.692  2.4178  2.2376 -0.5082
 6507TIP3   OH241083   3.281   2.016   1.879  0.0547 -0.3086 -0.6528
 6507TIP3    H141084   3.258   2.058   1.796 -2.1448  0.9536  0.5162
 6507TIP3    H241085   3.233   1.934   1.878 -1.7714  0.6978  0.2460
 6508TIP3   OH241086   5.800   0.379   0.760 -0.4113  0.3013  0.4035
 6508TIP3    H141087   5.831   0.322   0.690  2.8046  0.0890  1.7904
 6508TIP3    H241088   5.788   0.320   0.835  2.1090  1.1914  1.6147
 6509TIP3   OH241089   6.707   1.756   6.358 -0.3597 -0.2957 -0.1858
 6509TIP3    H141090   6.771   1.685   6.352  1.5814  1.4681 -2.3080
 6509TIP3    H241091   6.660   1.754   6.275 -0.1085  0.9923 -0.3891
 6510TIP3   OH241092   3.913   3.443   0.950  0.1953 -0.0807 -0.5453
 6510TIP3    H141093   3.976   3.434   0.879 -0.4657 -0.9030 -1.0314
 6510TIP3    H241094   3.833   3.403   0.918 -0.6646  1.1249 -0.0076
 6511TIP3   OH241095   3.111   0.492   7.420 -0.5923 -0.1430  0.4037
 6511TIP3    H141096   3.079   0.480   7.330 -0.5593 -0.9241  0.4841
 6511TIP3    H241097   3.065   0.424   7.470  0.8685 -1.0319  0.5937
 6512TIP3   OH241098   5.812   6.612   1.161 -0.1694  0.2077  0.2628
 6512TIP3    H141099   5.770   6.528   1.139 -0.1719  0.0190  0.9710
 6512TIP3    H241100   5.790   6.626   1.253 -0.1091  0.9573  0.1618
 6513TIP3   OH241101   0.169   1.419   8.639  0.0467  0.0333  0.3672
 6513TIP3    H141102   0.111   1.359   8.686 -0.7501  0.4459 -0.0773
 6513TIP3    H241103   0.233   1.361   8.597  1.0506 -0.3295  2.2526
 6514TIP3   OH241104   6.715   6.030   0.165 -0.1017 -0.5969  0.2658
 6514TIP3    H141105   6.638   5.983   0.134  0.2269 -0.6687 -0.4666
 6514TIP3    H241106   6.751   5.976   0.235 -0.3565 -0.8728  0.1833
 6515TIP3   OH241107   4.357   5.741   7.910  0.3732  0.2054 -0.2338
 6515TIP3    H141108   4.281   5.688   7.883  0.8851  0.2533 -1.9280
 6515TIP3    H241109   4.325   5.794   7.983 -0.4265 -1.7356  0.8893
 6516TIP3   OH241110   1.633   6.739   8.810 -0.2308 -0.0131  0.3239
 6516TIP3    H141111   1.594   6.658   8.777 -1.5680  0.8620 -0.3256
 6516TIP3    H241112   1.707   6.755   8.751  0.9072 -1.4342  1.2811
 6517TIP3   OH241113   5.003   5.865   0.794  0.4687 -0.6243 -0.2116
 6517TIP3    H141114   5.082   5.813   0.777  1.1556  0.0159  0.8976
 6517TIP3    H241115   5.017   5.901   0.881 -1.2711 -0.8765  0.2146
 6518TIP3   OH241116   5.327   1.104   1.296  0.2881  0.3593  0.3777
 6518TIP3    H141117   5.358   1.141   1.213 -1.8605  0.8624 -0.2494
 6518TIP3    H241118   5.357   1.013   1.295 -0.4284  0.1180 -1.3581
 6519TIP3   OH241119   2.450   5.421   8.092  0.1744 -0.0946 -0.1289
 6519TIP3    H141120   2.500   5.403   8.171 -0.3178  0.1974  0.2556
 6519TIP3    H241121   2.506   5.391   8.020  0.4037 -0.8384  0.3568
 6520TIP3   OH241122   3.171   3.877   7.468 -0.0165 -0.5777  0.3789
 6520TIP3    H141123   3.128   3.896   7.385 -0.5550  0.4878  0.8864
 6520TIP3    H241124   3.163   3.958   7.519  1.0647 -0.9263  1.1454
 6521TIP3   OH241125   5.524   3.119   7.583  0.0033 -0.3369 -0.1374
 6521TIP3    H141126   5.520   3.119   7.487 -2.3211  0.0233 -0.1129
 6521TIP3    H241127   5.515   3.211   7.607  0.7966 -0.4022  0.4434
 6522TIP3   OH241128   2.289   0.280   0.656 -0.6893 -0.1603 -0.2388
 6522TIP3    H141129   2.216   0.269   0.595 -0.4138 -0.7378 -0.4722
 6522TIP3    H241130   2.248   0.282   0.743 -1.0634  0.4612 -0.4203
 6523TIP3   OH241131   5.690   0.154   0.617 -0.7076 -0.0304 -0.0376
 6523TIP3    H141132   5.618   0.206   0.581 -2.4705 -2.7808 -0.8013
 6523TIP3    H241133   5.650   0.102   0.687  1.2493  0.4588  1.5639
 6524TIP3   OH241134   1.412   2.655   1.805 -0.1933  0.0878 -0.6001
 6524TIP3    H141135   1.416   2.560   1.792  2.1797  0.2545 -1.5206
 6524TIP3    H241136   1.406   2.691   1.716 -0.0346  0.8178 -0.3221
 6525TIP3   OH241137   6.675   1.280   1.043 -0.0869 -0.2324  0.1396
 6525TIP3    H141138   6.669   1.370   1.076 -0.4137 -0.0366 -0.4387
 6525TIP3    H241139   6.674   1.289   0.948 -1.0710 -0.9104  0.0696
 6526TIP3   OH241140   6.650   2.339   0.909  0.0715 -0.3258  0.0428
 6526TIP3    H141141   6.620   2.425   0.938 -0.5362 -0.5603  0.1313
 6526TIP3    H241142   6.745   2.342   0.918  0.0424  0.2829  0.1876
 6527TIP3   OH241143   0.676   4.260   0.478  0.0119  0.4543 -0.0247
 6527TIP3    H141144   0.600   4.263   0.420 -0.2464 -1.2637  0.1626
 6527TIP3    H241145   0.727   4.185   0.447  1.8838  1.7919 -0.3922
 6528TIP3   OH241146   1.839   3.170   8.042  0.1019  0.3478  0.0542
 6528TIP3    H141147   1.775   3.184   7.972 -0.2390  1.4418  0.5548
 6528TIP3    H241148   1.793   3.116   8.106  0.0034  0.3308 -0.0315
 6529TIP3   OH241149   4.537   4.666   8.563 -0.3019 -0.4429  0.2877
 6529TIP3    H141150   4.530   4.595   8.498 -2.5783  0.3641 -0.4165
 6529TIP3    H241151   4.477   4.733   8.532 -0.8405  0.3261  2.8186
 6530TIP3   OH241152   1.346   6.110   8.350 -0.0594  0.4721 -0.3056
 6530TIP3    H141153   1.309   6.104   8.262 -2.2456  1.2230  0.5144
 6530TIP3    H241154   1.433   6.148   8.337 -0.8015  1.6882 -2.0564
 6531TIP3   OH241155   1.664   0.604   8.699 -0.0976  0.2789  0.1674
 6531TIP3    H141156   1.693   0.586   8.788 -1.8742 -0.9418  0.5524
 6531TIP3    H241157   1.673   0.699   8.689 -1.5100  0.7121  2.3067
 6532TIP3   OH241158   6.460   3.661   7.317 -1.1368  0.2781 -0.0934
 6532TIP3    H141159   6.511   3.581   7.304 -0.4569  0.7995 -0.6423
 6532TIP3    H241160   6.389   3.634   7.376 -0.3074 -0.4832  0.5871
 6533TIP3   OH241161   0.100   4.606   7.411  0.3070  0.1901  0.0881
 6533TIP3    H141162   0.088   4.587   7.504 -0.6253 -3.4236 -0.6404
 6533TIP3    H241163   0.173   4.668   7.409  0.4018  0.3363  3.2065
 6534TIP3   OH241164   2.953   1.288   6.266  0.1931 -0.2274 -0.3192
 6534TIP3    H141165   2.947   1.317   6.357  1.4415 -0.3311 -0.1807
 6534TIP3    H241166   2.898   1.210   6.261 -1.6437  1.0221 -0.2098
 6535TIP3   OH241167   0.030   3.993   8.482 -0.1448 -0.5177  0.3532
 6535TIP3    H141168  -0.018   4.011   8.563 -1.4516  1.2107 -0.7213
 6535TIP3    H241169  -0.022   3.925   8.439  0.0193 -0.7530  0.5245
 6536TIP3   OH241170   3.835   4.151   0.663 -0.1586 -0.7415 -0.1944
 6536TIP3    H141171   3.813   4.155   0.570 -0.0639  1.1320 -0.1699
 6536TIP3    H241172   3.793   4.071   0.694  0.2748 -1.6999 -1.9561
 6537TIP3   OH241173   1.742   0.652   7.809 -0.1917 -0.1830  0.3211
 6537TIP3    H141174   1.808   0.634   7.876 -0.9924  1.0640  1.4759
 6537TIP3    H241175   1.734   0.747   7.807 -2.1920 -0.3090  0.4523
 6538TIP3   OH241176   3.549   1.925   1.522  0.4889 -0.2290  0.0987
 6538TIP3    H141177   3.515   1.923   1.611  0.1745 -0.0147 -0.0160
 6538TIP3    H241178   3.635   1.882   1.528  1.0520  0.9420  0.7471
 6539TIP3   OH241179   2.087   3.794   1.399 -0.0566 -0.5488 -0.0732
 6539TIP3    H141180   2.015   3.741   1.434  0.0693 -0.9737 -0.4486
 6539TIP3    H241181   2.086   3.873   1.452 -0.4039 -0.8223  0.3387
 6540TIP3   OH241182   4.154   1.607   8.578 -0.1935 -0.1715  0.2674
 6540TIP3    H141183   4.200   1.631   8.497  0.7860 -1.6317  0.3516
 6540TIP3    H241184   4.192   1.523   8.603 -0.1879  0.4256  2.4894
 6541TIP3   OH241185   2.777   3.745   1.381  0.7533 -0.5559 -0.1708
 6541TIP3    H141186   2.810   3.829   1.349 -1.7174  0.9495  0.9189
 6541TIP3    H241187   2.807   3.740   1.472 -1.2464  0.4964  0.6079
 6542TIP3   OH241188   2.014   5.062   1.032 -0.4828  0.9553 -0.4291
 6542TIP3    H141189   2.106   5.038   1.044 -1.0880 -0.5234  1.9049
 6542TIP3    H241190   1.985   5.011   0.957 -0.0888 -0.7889  0.5601
 6543TIP3   OH241191   4.059   4.375   8.116  0.3874 -0.2657 -0.1631
 6543TIP3    H141192   4.020   4.423   8.189  0.6030 -0.2046 -0.0849
 6543TIP3    H241193   4.046   4.431   8.040  1.1557  0.1973  0.0310
 6544TIP3   OH241194   1.299   5.626   0.938  0.2511  0.4018 -0.3368
 6544TIP3    H141195   1.257   5.684   0.875  0.3471  1.0147  0.1492
 6544TIP3    H241196   1.313   5.544   0.891 -0.6423  0.4983 -0.7818
 6545TIP3   OH241197   0.867   2.385   8.277 -0.3549  0.0411 -0.6112
 6545TIP3    H141198   0.860   2.480   8.282  1.0415  0.2845 -2.1559
 6545TIP3    H241199   0.795   2.359   8.220 -2.4920 -0.2172  2.0344
 6546TIP3   OH241200   0.255   5.797   0.251  0.2913  0.8330 -0.5057
 6546TIP3    H141201   0.343   5.820   0.221  0.0549  0.7305 -1.2800
 6546TIP3    H241202   0.208   5.773   0.172  0.0231 -0.6789  0.0688
 6547TIP3   OH241203   1.749   1.544   7.569 -0.0533 -0.2050 -0.1810
 6547TIP3    H141204   1.778   1.459   7.538  1.1007  0.2804 -0.5088
 6547TIP3    H241205   1.790   1.553   7.655  0.0285  0.1075 -0.2510
 6548TIP3   OH241206   5.777   6.691   1.529 -0.1942 -0.2652 -0.0549
 6548TIP3    H141207   5.694   6.735   1.547 -0.1987 -0.7196  1.1574
 6548TIP3    H241208   5.844   6.756   1.548 -0.2454 -0.2807  0.1862
 6549TIP3   OH241209   6.291   6.311   2.088 -0.5677 -0.0933  0.5658
 6549TIP3    H141210   6.346   6.380   2.124 -0.6600  0.0489  0.4377
 6549TIP3    H241211   6.344   6.231   2.095 -0.2009  0.1021  0.1114
 6550TIP3   OH241212   4.442   1.980   0.235  0.5137  0.3101 -0.3423
 6550TIP3    H141213   4.482   1.964   0.149  0.5238  1.9561 -0.6801
 6550TIP3    H241214   4.349   1.963   0.222  0.4001  1.2709 -0.9156
 6551TIP3   OH241215   5.106   6.020   6.897 -0.3402 -0.4269 -0.2989
 6551TIP3    H141216   5.046   5.979   6.835 -0.0646  0.0954 -0.9221
 6551TIP3    H241217   5.049   6.068   6.957 -0.6490 -1.4571  0.2582
 6552TIP3   OH241218   1.461   2.957   0.706 -0.2797 -0.1242 -0.5563
 6552TIP3    H141219   1.480   2.947   0.613  1.0643 -0.7893 -0.2247
 6552TIP3    H241220   1.458   2.868   0.741 -0.0445  0.1449  0.1783
 6553TIP3   OH241221   1.537   3.799   1.232  0.3292  0.1772 -0.5938
 6553TIP3    H141222   1.461   3.777   1.286  0.1644  0.9077 -0.5069
 6553TIP3    H241223   1.599   3.838   1.293  0.9071 -0.7007 -0.6106
 6554TIP3   OH241224   1.646   6.393   7.755  0.2514 -0.7891  0.2366
 6554TIP3    H141225   1.698   6.355   7.684  2.4720  1.1180  0.7042
 6554TIP3    H241226   1.557   6.399   7.719  1.2037 -0.2681 -2.2820
 6555TIP3   OH241227   2.587   5.881   7.690 -0.4230  0.3034 -0.3931
 6555TIP3    H141228   2.562   5.898   7.599 -0.3533 -0.4107 -0.5564
 6555TIP3    H241229   2.674   5.840   7.683 -0.4621  0.1565 -0.0111
 6556TIP3   OH241230   5.538   3.188   0.067 -0.1425  0.6767 -0.0056
 6556TIP3    H141231   5.478   3.160  -0.001 -1.4083  3.3622 -0.1053
 6556TIP3    H241232   5.506   3.146   0.147 -1.6791  1.3797 -0.2221
 6557TIP3   OH241233   3.481   6.064   8.706 -0.4582  1.1396  0.3854
 6557TIP3    H141234   3.477   5.994   8.640 -0.5376  0.7403  0.8034
 6557TIP3    H241235   3.540   6.129   8.669  2.8780 -0.9244  1.6456
 6558TIP3   OH241236   6.469   5.106   1.124  0.3123 -0.5307 -0.8375
 6558TIP3    H141237   6.474   5.016   1.156  3.6925 -0.7140 -1.5068
 6558TIP3    H241238   6.474   5.160   1.203 -1.8223 -0.8408 -0.4261
 6559TIP3   OH241239   0.491   1.815   1.247  0.5290  0.4057 -0.2650
 6559TIP3    H141240   0.514   1.899   1.207  0.2437 -0.2455 -1.8914
 6559TIP3    H241241   0.496   1.752   1.175  0.0222 -0.8595  0.7554
 6560TIP3   OH241242   3.789   1.584   0.510  0.4422 -0.0340  0.6991
 6560TIP3    H141243   3.781   1.516   0.443 -2.1779  0.8580 -0.0481
 6560TIP3    H241244   3.710   1.574   0.564 -1.2978  3.5973 -0.7823
 6561TIP3   OH241245   2.316   4.923   1.366  0.2462 -0.2859 -0.0614
 6561TIP3    H141246   2.228   4.961   1.374 -0.8490 -2.5019 -0.6619
 6561TIP3    H241247   2.365   4.959   1.440 -1.3830  0.4728  0.7018
 6562TIP3   OH241248   5.059   0.301   1.771 -0.8699 -0.4598  0.0330
 6562TIP3    H141249   4.964   0.303   1.772 -0.9076  1.4777 -1.1951
 6562TIP3    H241250   5.081   0.212   1.744 -2.3072 -1.0740  0.8064
 6563TIP3   OH241251   6.374   5.092   8.071  0.3386  0.3716 -0.3531
 6563TIP3    H141252   6.331   5.015   8.110 -1.2518  0.4548 -1.8524
 6563TIP3    H241253   6.441   5.055   8.014 -0.9920  0.0061 -1.7428
 6564TIP3   OH241254   4.842   0.664   1.246 -0.0485  0.2160  0.6302
 6564TIP3    H141255   4.911   0.614   1.289  1.1674  1.5885  0.3554
 6564TIP3    H241256   4.820   0.613   1.168 -0.2207 -0.8395  1.3578
 6565TIP3   OH241257   1.720   6.488   6.617  0.5275 -0.1906  0.4244
 6565TIP3    H141258   1.813   6.511   6.620  0.1445  1.8548 -1.0710
 6565TIP3    H241259   1.675   6.572   6.608 -1.3537 -1.2661 -0.8150
 6566TIP3   OH241260   0.625   0.176   0.371  0.1926  0.3887  0.1171
 6566TIP3    H141261   0.613   0.090   0.331 -4.9264  1.1315 -0.6488
 6566TIP3    H241262   0.632   0.158   0.465 -0.6270 -0.9139 -0.0499
 6567TIP3   OH241263   1.598   0.116   8.394 -0.0205  0.3319 -0.2912
 6567TIP3    H141264   1.506   0.136   8.374 -0.0299  0.4600 -0.1222
 6567TIP3    H241265   1.619   0.041   8.337 -1.0867 -1.5807  1.6981
 6568TIP3   OH241266   4.312   0.768   7.476  0.2805 -0.1031  0.0862
 6568TIP3    H141267   4.310   0.852   7.522 -0.7187 -0.0523 -0.0241
 6568TIP3    H241268   4.286   0.789   7.386 -1.2550 -0.6854  0.3566
 6569TIP3   OH241269   1.103   4.128   1.887  0.2679 -0.1430  0.3636
 6569TIP3    H141270   1.008   4.131   1.876  0.2800 -0.3293  0.1947
 6569TIP3    H241271   1.135   4.210   1.850  0.0985  0.3137  1.2178
 6570TIP3   OH241272   0.367   1.552   0.060 -0.4738  0.2212  0.1652
 6570TIP3    H141273   0.409   1.519   0.139 -1.7895  3.0523  2.1641
 6570TIP3    H241274   0.336   1.473   0.015  1.4026 -1.5318  1.7671
 6571TIP3   OH241275   6.323   6.388   0.733 -0.3445 -0.5011 -0.3898
 6571TIP3    H141276   6.374   6.457   0.776 -0.7504 -1.6555  2.1486
 6571TIP3    H241277   6.340   6.400   0.639  0.2483  2.4751  0.0046
 6572TIP3   OH241278   2.373   6.013   0.300 -0.0119 -0.3196  0.0629
 6572TIP3    H141279   2.449   5.961   0.324  0.6778  0.9763  0.7512
 6572TIP3    H241280   2.383   6.028   0.206  0.0219 -1.0223 -0.0509
 6573TIP3   OH241281   4.522   5.162   7.062 -0.1983 -0.2000 -0.2709
 6573TIP3    H141282   4.567   5.083   7.031 -0.2751 -0.0385 -0.8070
 6573TIP3    H241283   4.472   5.192   6.986  0.3377  0.7357 -0.2668
 6574TIP3   OH241284   2.633   1.708   0.650  0.1325 -0.0788  0.3362
 6574TIP3    H141285   2.576   1.695   0.726  0.4989 -2.0105  0.3534
 6574TIP3    H241286   2.576   1.699   0.574  0.2304 -1.2510  0.3702
 6575TIP3   OH241287   4.028   5.536   6.103 -0.1303 -0.4093 -0.1271
 6575TIP3    H141288   4.076   5.466   6.147 -0.6871 -0.7978 -0.1240
 6575TIP3    H241289   4.010   5.502   6.016  2.0223  0.8290 -1.1246
 6576TIP3   OH241290   2.973   1.055   0.229 -0.0915 -0.4656  0.0210
 6576TIP3    H141291   3.027   1.063   0.308  1.0621 -0.1242 -0.7815
 6576TIP3    H241292   3.034   1.029   0.161 -0.8985  0.2060 -0.9859
 6577TIP3   OH241293   3.084   2.223   6.899 -0.3941  0.1674 -0.4234
 6577TIP3    H141294   3.042   2.161   6.959  0.3056 -1.6365 -1.7135
 6577TIP3    H241295   3.021   2.234   6.828 -0.7518  1.4373  0.0564
 6578TIP3   OH241296   6.255   1.973   0.074  0.4030 -0.6405  0.0630
 6578TIP3    H141297   6.341   1.969   0.032 -1.0241 -1.1945 -3.1516
 6578TIP3    H241298   6.255   2.057   0.120  2.7586 -0.8010  0.5050
 6579TIP3   OH241299   5.081   2.675   1.814  0.0533  0.3286 -0.6116
 6579TIP3    H141300   4.991   2.700   1.797 -0.2103 -0.2299 -0.0942
 6579TIP3    H241301   5.082   2.649   1.906  1.1726  2.1709 -0.0553
 6580TIP3   OH241302   3.703   3.485   5.956 -0.1754  0.3851 -0.4494
 6580TIP3    H141303   3.624   3.530   5.984  0.7748  0.9758  1.4356
 6580TIP3    H241304   3.739   3.540   5.886 -0.8532  0.6849 -0.5633
 6581TIP3   OH241305   5.167   1.639   0.406  0.3060 -0.1485  0.1150
 6581TIP3    H141306   5.134   1.549   0.411 -0.5722  0.1636  0.0810
 6581TIP3    H241307   5.127   1.683   0.480  0.3627  0.3376 -0.1422
 6582TIP3   OH241308   5.350   4.170   0.720 -0.4567  0.0366 -0.2918
 6582TIP3    H141309   5.364   4.233   0.791 -0.0607  0.6165 -0.8805
 6582TIP3    H241310   5.273   4.202   0.674 -0.5087 -0.1477 -0.3335
 6583TIP3   OH241311   0.306   5.157   8.014  0.2000 -0.0424  0.4633
 6583TIP3    H141312   0.272   5.085   8.068  0.9278 -0.0967  0.8693
 6583TIP3    H241313   0.231   5.186   7.962 -0.0976 -1.1242  0.2661
 6584TIP3   OH241314   6.643   5.719   8.271  0.1331  0.2090 -0.1564
 6584TIP3    H141315   6.644   5.761   8.357 -0.2949  0.3247 -0.2058
 6584TIP3    H241316   6.575   5.653   8.277 -1.5674  1.7777 -1.1229
 6585TIP3   OH241317   5.170   1.465   6.639  0.4239  0.5040  0.1313
 6585TIP3    H141318   5.121   1.469   6.557 -0.7545 -4.0687  0.3367
 6585TIP3    H241319   5.112   1.505   6.704  0.3283  1.9364 -0.7751
 6586TIP3   OH241320   3.534   0.512   0.167 -0.5379 -0.5249 -0.0771
 6586TIP3    H141321   3.442   0.516   0.141 -0.7356 -1.4035  0.4590
 6586TIP3    H241322   3.565   0.428   0.133 -1.2876 -2.6601  3.8491
 6587TIP3   OH241323   2.866   3.796   2.119  0.0917 -0.7030 -0.6702
 6587TIP3    H141324   2.789   3.804   2.174  0.7105 -2.2507  0.5000
 6587TIP3    H241325   2.937   3.834   2.171  0.3881 -0.6756 -1.0890
 6588TIP3   OH241326   2.112   1.903   7.589 -0.2962 -0.5342 -0.0960
 6588TIP3    H141327   2.107   1.811   7.565 -1.4507 -0.4218 -0.3531
 6588TIP3    H241328   2.024   1.924   7.622  0.2155  0.2340  0.8318
 6589TIP3   OH241329   3.322   4.009   8.547 -0.0141 -0.9757 -0.1815
 6589TIP3    H141330   3.411   4.024   8.578 -0.2809  1.5517 -0.4268
 6589TIP3    H241331   3.295   3.927   8.589  1.9553 -1.1067  0.9328
 6590TIP3   OH241332   1.210   4.882   7.242 -0.2038  0.2534  0.6871
 6590TIP3    H141333   1.175   4.800   7.209 -0.7543 -0.4331  2.8143
 6590TIP3    H241334   1.140   4.946   7.231  0.0611  0.3555 -0.5385
 6591TIP3   OH241335   0.812   2.090   7.825 -0.5610 -0.2490  0.3268
 6591TIP3    H141336   0.775   2.029   7.761 -0.3321  0.5048 -0.5357
 6591TIP3    H241337   0.829   2.170   7.776  1.2962 -0.2393  0.9213
 6592TIP3   OH241338   0.603   3.268   7.489 -0.3567  0.6219  0.2122
 6592TIP3    H141339   0.661   3.192   7.494 -0.4698  0.4387 -0.8805
 6592TIP3    H241340   0.532   3.248   7.551 -0.2878 -0.0858  0.0726
 6593TIP3   OH241341   0.762   0.128   1.773  0.2119 -0.2876  0.0116
 6593TIP3    H141342   0.738   0.088   1.690 -0.9060 -1.4906  0.8675
 6593TIP3    H241343   0.682   0.173   1.802  0.2431 -0.8021  0.9343
 6594TIP3   OH241344   4.121   3.155   0.905  0.0085  0.6902  0.2590
 6594TIP3    H141345   4.129   3.235   0.853 -1.4725  1.0185  0.4815
 6594TIP3    H241346   4.044   3.110   0.867 -1.2800  1.0595  2.2883
 6595TIP3   OH241347   4.304   6.135   2.596  0.6281 -0.0907  0.7319
 6595TIP3    H141348   4.233   6.111   2.656 -0.3261 -0.7450 -0.6292
 6595TIP3    H241349   4.284   6.225   2.570  1.4375  0.4552  1.9119
 6596TIP3   OH241350   2.058   2.819   8.817  0.3457 -0.3906  0.3691
 6596TIP3    H141351   2.093   2.843   8.903 -0.5436  1.7470  0.2084
 6596TIP3    H241352   1.972   2.862   8.814  1.1071  1.1537 -2.2666
 6597TIP3   OH241353   3.207   4.004   0.943 -1.1265 -0.1884 -0.1688
 6597TIP3    H141354   3.174   3.945   1.011 -0.9156  0.2521  0.3276
 6597TIP3    H241355   3.302   3.996   0.949 -0.9909  1.6183  1.2418
 6598TIP3   OH241356   3.707   6.163   0.960 -0.5197  0.1087 -0.1455
 6598TIP3    H141357   3.774   6.104   0.927 -0.7833  1.1458 -2.8171
 6598TIP3    H241358   3.626   6.134   0.917 -0.9472  1.4266 -0.2769
 6599TIP3   OH241359   4.587   5.650   8.282 -0.3547 -0.3938  0.2069
 6599TIP3    H141360   4.521   5.582   8.299 -1.3102  0.5687  0.4659
 6599TIP3    H241361   4.612   5.637   8.191 -0.9732 -0.7364  0.0775
 6600TIP3   OH241362   6.154   1.019   8.297 -0.1112 -0.6743  0.4178
 6600TIP3    H141363   6.206   0.942   8.275  1.4078  0.3044  0.4266
 6600TIP3    H241364   6.206   1.093   8.265 -1.8358  0.3361 -0.1827
 6601TIP3   OH241365   6.800   6.539   0.285 -0.6699  0.0912  0.1657
 6601TIP3    H141366   6.828   6.448   0.291 -0.8408  0.0077 -0.2263
 6601TIP3    H241367   6.764   6.560   0.371 -0.7059 -0.2398  0.2304
 6602TIP3   OH241368   3.941   2.792   7.379  0.1040 -0.5108 -0.2512
 6602TIP3    H141369   3.918   2.881   7.404 -4.3704 -1.0064 -1.6765
 6602TIP3    H241370   3.992   2.758   7.453 -0.5114  2.3069  1.6033
 6603TIP3   OH241371   0.401   0.872   0.346 -0.0117  0.2239  0.0887
 6603TIP3    H141372   0.431   0.961   0.366 -0.3897  0.4861 -0.4629
 6603TIP3    H241373   0.307   0.875   0.364  0.0017 -0.1065  0.2063
 6604TIP3   OH241374   1.645   3.588   1.119  0.0510 -0.2174  0.1665
 6604TIP3    H141375   1.730   3.595   1.076 -0.0123 -0.9981 -0.1091
 6604TIP3    H241376   1.620   3.678   1.139 -0.2876  0.2677 -2.1872
 6605TIP3   OH241377   5.159   5.177   6.869  0.6650  0.1518  0.3332
 6605TIP3    H141378   5.146   5.159   6.962 -2.2690  1.1929  0.2136
 6605TIP3    H241379   5.107   5.255   6.852  1.7245  0.4236 -2.0577
 6606TIP3   OH241380   2.543   5.571   7.264 -0.1254  0.1845  0.1747
 6606TIP3    H141381   2.485   5.643   7.288 -0.0301  1.0785 -2.0635
 6606TIP3    H241382   2.486   5.494   7.260 -0.3275  0.1862  2.0339
 6607TIP3   OH241383   5.008   0.183   1.494 -0.3835 -0.2214  0.0291
 6607TIP3    H141384   4.954   0.111   1.461 -0.5934 -0.0059 -0.0979
 6607TIP3    H241385   4.947   0.255   1.506 -0.2876 -0.2562  0.7766
 6608TIP3   OH241386   5.689   4.162   0.274  0.5956  0.4108 -0.6700
 6608TIP3    H141387   5.779   4.139   0.251  0.4581  0.2082 -1.0003
 6608TIP3    H241388   5.693   4.181   0.368  0.6656 -1.1936 -0.3143
 6609TIP3   OH241389   1.285   1.430   1.781 -0.2087 -0.1870  0.5954
 6609TIP3    H141390   1.328   1.516   1.783 -3.4272  1.5762  1.1524
 6609TIP3    H241391   1.257   1.416   1.872 -1.3196 -0.9317  0.1581
 6610TIP3   OH241392   6.464   1.973   7.254 -0.0965 -0.3657 -0.1001
 6610TIP3    H141393   6.403   1.911   7.294 -0.1171  0.1341  0.6552
 6610TIP3    H241394   6.536   1.979   7.316  0.8106 -1.0410 -1.0352
 6611TIP3   OH241395   6.061   6.486   2.041 -0.5810 -0.4463  0.0990
 6611TIP3    H141396   6.130   6.429   2.074  0.9895  0.6352 -1.1924
 6611TIP3    H241397   6.019   6.521   2.120  1.7421  0.5208  0.9917
 6612TIP3   OH241398   0.932   4.595   1.152  0.0373  0.1934  0.5190
 6612TIP3    H141399   0.893   4.683   1.147  1.4724  1.0885  3.1450
 6612TIP3    H241400   0.985   4.588   1.073  1.3658  2.5069  1.1134
 6613TIP3   OH241401   5.783   1.458   7.685 -0.1061  0.3426 -0.0650
 6613TIP3    H141402   5.876   1.433   7.683  0.1331  1.2104 -1.5322
 6613TIP3    H241403   5.744   1.399   7.749  1.0667 -1.4198 -0.8689
 6614TIP3   OH241404   2.179   5.917   0.670 -0.1960  0.4319  0.6233
 6614TIP3    H141405   2.271   5.895   0.656 -0.1160  1.3444 -0.3088
 6614TIP3    H241406   2.168   5.910   0.765  0.9543  0.7780  0.8010
 6615TIP3   OH241407   6.753   5.904   7.184  0.0703  0.7648  0.0093
 6615TIP3    H141408   6.775   5.811   7.183  1.0089  0.9438  1.0250
 6615TIP3    H241409   6.664   5.909   7.150 -0.0291 -0.5166  0.0487
 6616TIP3   OH241410   2.989   6.523   7.443 -0.1263 -0.0590  0.2124
 6616TIP3    H141411   3.023   6.611   7.458 -0.3250 -0.0806  0.8196
 6616TIP3    H241412   2.897   6.535   7.422 -0.7772 -0.2325  2.6096
 6617TIP3   OH241413   2.046   5.359   6.532  0.9466 -0.5693  0.1260
 6617TIP3    H141414   2.127   5.336   6.577  1.7078 -1.2398 -1.5010
 6617TIP3    H241415   1.990   5.281   6.543  1.5604 -1.1895 -1.0101
 6618TIP3   OH241416   6.327   2.000   2.396  0.0561  0.1798 -0.6766
 6618TIP3    H141417   6.231   2.003   2.394  0.0653  0.3211 -1.0226
 6618TIP3    H241418   6.349   1.975   2.485 -0.2879  0.8666 -0.3962
 6619TIP3   OH241419   4.059   6.671   0.158 -0.3090  1.1289 -0.3034
 6619TIP3    H141420   4.006   6.606   0.204  1.4018 -0.0040  0.1879
 6619TIP3    H241421   3.997   6.718   0.103 -1.3984 -2.5256 -2.5621
 6620TIP3   OH241422   6.786   2.895   1.558 -0.2164  0.0285  0.1422
 6620TIP3    H141423   6.719   2.922   1.496 -1.1010 -2.1925  0.0099
 6620TIP3    H241424   6.782   2.799   1.556 -0.2393 -0.1558  3.5383
 6621TIP3   OH241425   3.401   1.436   0.998  0.3468 -0.2307  0.0824
 6621TIP3    H141426   3.441   1.479   1.074  0.5570 -2.2320  1.1627
 6621TIP3    H241427   3.352   1.363   1.035  1.6706 -2.1714 -1.7991
 6622TIP3   OH241428   3.322   3.277   8.759 -0.2270 -0.1215  0.5413
 6622TIP3    H141429   3.246   3.227   8.788  0.0910 -0.6051  0.5459
 6622TIP3    H241430   3.397   3.223   8.782  0.2394  1.1136  2.1277
 6623TIP3   OH241431   6.769   5.488   8.425  0.5075 -0.0101  0.2165
 6623TIP3    H141432   6.754   5.573   8.465 -0.8969  0.2152 -0.7439
 6623TIP3    H241433   6.689   5.438   8.442  0.5793 -0.4999 -0.8147
 6624TIP3   OH241434   0.999   0.297   1.220  0.1132  0.1746 -0.1708
 6624TIP3    H141435   0.935   0.275   1.287 -0.3062  1.5525 -0.0746
 6624TIP3    H241436   1.081   0.309   1.269  0.3130 -0.9350 -0.2084
 6625TIP3   OH241437   6.021   6.114   2.076 -0.0421 -0.4040  0.4199
 6625TIP3    H141438   6.114   6.098   2.062 -0.2058 -0.3149 -0.8880
 6625TIP3    H241439   6.019   6.193   2.130  0.6437 -0.6914  0.8796
 6626TIP3   OH241440   3.788   3.639   0.257 -0.1414  0.1799  0.8436
 6626TIP3    H141441   3.737   3.687   0.322 -0.4487 -0.4719  1.0922
 6626TIP3    H241442   3.809   3.704   0.190 -2.3890  0.2285  0.0783
 6627TIP3   OH241443   6.025   3.699   0.358  0.1540  0.0292  0.7192
 6627TIP3    H141444   5.997   3.629   0.417  0.2970  1.2326  2.2915
 6627TIP3    H241445   5.945   3.726   0.313  0.2625 -1.7598 -0.6648
 6628TIP3   OH241446   1.553   1.152   8.778 -0.3366 -0.4148 -0.2561
 6628TIP3    H141447   1.491   1.124   8.845  1.4009  2.8807  3.1728
 6628TIP3    H241448   1.522   1.238   8.750  2.4624  1.4270  1.7009
 6629TIP3   OH241449   6.293   0.127   6.956  0.0390  0.4890 -0.0826
 6629TIP3    H141450   6.264   0.122   7.047 -1.9531 -1.2480 -0.7369
 6629TIP3    H241451   6.262   0.212   6.925 -1.6750 -0.0232  0.1451
 6630TIP3   OH241452   2.335   2.940   2.027 -0.3316 -0.3163  0.6074
 6630TIP3    H141453   2.328   2.848   2.002  0.2836  0.3199 -2.1570
 6630TIP3    H241454   2.424   2.950   2.059  0.1966 -0.3328 -0.8115
 6631TIP3   OH241455   0.670   2.622   1.106 -0.1077  0.0233 -0.3886
 6631TIP3    H141456   0.657   2.715   1.089  0.6411  0.2037 -0.0024
 6631TIP3    H241457   0.587   2.582   1.081  0.5824  0.3318 -3.6782
 6632TIP3   OH241458   4.946   5.210   7.638  0.3144  0.5489 -0.0175
 6632TIP3    H141459   5.020   5.270   7.630  0.2888  0.8826  1.8353
 6632TIP3    H241460   4.965   5.159   7.717 -1.7208  1.1017  0.8994
 6633TIP3   OH241461   4.394   2.518   1.129  0.1027  0.0786  0.2536
 6633TIP3    H141462   4.359   2.583   1.068 -2.6959 -0.9904  0.6078
 6633TIP3    H241463   4.344   2.532   1.210  0.6991 -1.3620  0.9034
 6634TIP3   OH241464   0.092   1.454   8.172  0.7079  0.1616  0.1065
 6634TIP3    H141465   0.072   1.532   8.120  0.8965  0.0149 -0.1873
 6634TIP3    H241466   0.007   1.423   8.202  0.3141 -1.1754 -2.1540
 6635TIP3   OH241467   0.252   3.417   8.780 -0.3579 -0.0269  0.2383
 6635TIP3    H141468   0.178   3.359   8.762  0.2473 -0.3097 -1.5292
 6635TIP3    H241469   0.214   3.505   8.781 -0.8818 -0.2524  0.3831
 6636TIP3   OH241470   1.788   1.118   0.221 -0.3158  0.3283 -0.3033
 6636TIP3    H141471   1.787   1.116   0.316  1.5707 -2.2881 -0.2432
 6636TIP3    H241472   1.746   1.037   0.194 -0.8858  1.0570 -1.7417
 6637TIP3   OH241473   3.493   1.907   1.780 -0.5957 -0.0854 -0.5007
 6637TIP3    H141474   3.546   1.984   1.800 -0.7862 -0.1970  0.4756
 6637TIP3    H241475   3.406   1.928   1.815 -0.7426 -0.5911 -0.5553
 6638TIP3   OH241476   2.230   6.535   8.621  0.1511  0.1996  0.0693
 6638TIP3    H141477   2.322   6.559   8.627  0.0337  0.3759  1.9618
 6638TIP3    H241478   2.184   6.619   8.613  0.0704  0.2577  1.0014
 6639TIP3   OH241479   2.380   3.913   0.292 -0.1717  0.1421 -0.0201
 6639TIP3    H141480   2.342   3.990   0.336  0.2885  0.9694 -1.0325
 6639TIP3    H241481   2.407   3.856   0.364 -2.2054  0.0586  0.7455
 6640TIP3   OH241482   3.768   5.539   8.278 -0.0004  0.2348  0.5286
 6640TIP3    H141483   3.779   5.444   8.268  0.1278  0.3759 -0.8420
 6640TIP3    H241484   3.782   5.555   8.371 -0.4074 -1.1427  0.8413
 6641TIP3   OH241485   1.864   3.715   7.517 -0.4117 -0.5642  0.5646
 6641TIP3    H141486   1.814   3.753   7.590  0.2645  0.9747  0.2663
 6641TIP3    H241487   1.954   3.714   7.548 -0.2155 -0.5280 -0.0083
 6642TIP3   OH241488   1.742   5.729   6.686  0.3010 -0.0083  0.2030
 6642TIP3    H141489   1.827   5.748   6.649  1.2912  1.3839  2.8749
 6642TIP3    H241490   1.687   5.804   6.661 -0.0273 -0.6768 -1.1247
 6643TIP3   OH241491   1.465   0.501   1.693 -0.7279  0.0362 -0.2063
 6643TIP3    H141492   1.404   0.542   1.754  1.4238 -3.1280  4.7168
 6643TIP3    H241493   1.539   0.562   1.687 -0.8210  0.2461  0.6837
 6644TIP3   OH241494   3.802   1.391   8.135 -0.5422  0.0677 -0.4047
 6644TIP3    H141495   3.859   1.438   8.196  1.0621 -2.0092 -0.1902
 6644TIP3    H241496   3.732   1.355   8.189  0.3657 -0.9810  0.1243
 6645TIP3   OH241497   1.136   3.060   8.537  0.3274 -0.1745  0.1861
 6645TIP3    H141498   1.117   3.135   8.594 -1.5544 -0.0408 -0.5277
 6645TIP3    H241499   1.223   3.031   8.563 -0.0382  0.5181  2.4186
 6646TIP3   OH241500   6.049   5.547   0.705 -0.2741 -0.1214 -0.1106
 6646TIP3    H141501   5.957   5.568   0.717 -0.3973 -0.1634 -0.9468
 6646TIP3    H241502   6.068   5.568   0.614  0.1642 -1.5073 -0.3742
 6647TIP3   OH241503   6.410   0.073   7.481  0.0152 -0.6148  0.1298
 6647TIP3    H141504   6.335   0.081   7.422 -2.4135  0.3431  3.1248
 6647TIP3    H241505   6.469   0.144   7.454 -0.8325 -0.4224 -1.3450
 6648TIP3   OH241506   5.503   6.020   0.174  0.0294  0.9340 -0.1200
 6648TIP3    H141507   5.515   6.046   0.082  0.8205  0.1047 -0.2708
 6648TIP3    H241508   5.592   6.002   0.204 -0.0508  2.5812  1.2521
 6649TIP3   OH241509   2.006   2.282   1.386  0.6792 -0.0570 -0.0577
 6649TIP3    H141510   2.005   2.376   1.367 -0.0270 -0.0663 -0.0915
 6649TIP3    H241511   1.916   2.262   1.411  0.7979 -0.7489 -0.1730
 6650TIP3   OH241512   5.817   5.879   1.335  0.1929  1.0231 -0.0412
 6650TIP3    H141513   5.897   5.847   1.375  0.5680  1.4594 -0.4194
 6650TIP3    H241514   5.748   5.859   1.398  0.1421 -1.9333 -0.9082
 6651TIP3   OH241515   0.832   1.660   0.710  0.1244  0.6489 -0.4383
 6651TIP3    H141516   0.799   1.592   0.651 -0.8171 -1.1526  1.9702
 6651TIP3    H241517   0.775   1.736   0.693 -0.9568 -0.2481 -0.9519
 6652TIP3   OH241518   2.939   1.364   6.548 -1.1502  0.1485 -0.1276
 6652TIP3    H141519   2.987   1.294   6.591 -1.1754 -0.3611 -0.9044
 6652TIP3    H241520   2.847   1.347   6.568 -1.4159 -1.6221 -2.4752
 6653TIP3   OH241521   0.305   0.667   6.433  0.2613 -0.3090 -0.4496
 6653TIP3    H141522   0.260   0.583   6.448 -1.4669  0.8958  1.6226
 6653TIP3    H241523   0.250   0.713   6.370 -0.4313  0.4110  0.6520
 6654TIP3   OH241524   2.094   0.887   8.165  0.0433  0.0655 -0.2258
 6654TIP3    H141525   2.059   0.975   8.179 -0.8673 -0.1681 -0.9327
 6654TIP3    H241526   2.111   0.854   8.253 -2.2255 -0.0627  0.2144
 6655TIP3   OH241527   5.022   6.290   1.690  0.5364  0.1997  0.4450
 6655TIP3    H141528   5.058   6.354   1.751  1.9907  0.6750 -0.8486
 6655TIP3    H241529   5.066   6.208   1.712  0.7177  0.2680  0.3376
 6656TIP3   OH241530   0.810   5.407   8.526  0.1340  0.1823  0.0566
 6656TIP3    H141531   0.793   5.342   8.594  1.8124 -0.3394  0.0134
 6656TIP3    H241532   0.752   5.480   8.548 -0.2969 -0.5087  1.2904
 6657TIP3   OH241533   4.503   4.504   6.819 -0.3360  0.0370 -0.1025
 6657TIP3    H141534   4.555   4.473   6.745  0.7574  1.6536 -0.0692
 6657TIP3    H241535   4.551   4.580   6.851 -0.1975 -1.2124  2.9628
 6658TIP3   OH241536   2.119   6.141   8.443  0.0320  0.0694  0.3751
 6658TIP3    H141537   2.197   6.195   8.443 -2.0209  3.3813 -1.4128
 6658TIP3    H241538   2.117   6.100   8.530  2.8476  1.1475  1.0369
 6659TIP3   OH241539   5.387   4.779   1.487 -0.4770  0.2535 -0.3230
 6659TIP3    H141540   5.316   4.716   1.477 -0.2011 -0.9043  3.4406
 6659TIP3    H241541   5.351   4.862   1.455 -3.1593 -0.5393  0.4259
 6660TIP3   OH241542   2.716   2.931   8.065  0.0216  0.8218 -0.0989
 6660TIP3    H141543   2.656   2.895   8.000  0.4785  1.1798 -0.7281
 6660TIP3    H241544   2.724   2.862   8.131  1.5540 -0.6421 -1.7077
 6661TIP3   OH241545   6.408   6.822   1.848 -0.2222 -0.9544  0.4022
 6661TIP3    H141546   6.411   6.786   1.759 -0.0877 -0.3959  0.1736
 6661TIP3    H241547   6.471   6.769   1.897 -1.2691 -2.1536  0.5199
 6662TIP3   OH241548   2.965   4.505   0.764  0.1996  0.1414 -0.5301
 6662TIP3    H141549   2.877   4.477   0.789  0.6114 -2.1383 -1.3935
 6662TIP3    H241550   3.016   4.498   0.844  0.2538 -1.6003 -0.6784
 6663TIP3   OH241551   0.769   0.451   8.357  0.2063  0.3237  0.2545
 6663TIP3    H141552   0.737   0.435   8.446  0.4007 -0.7820  0.1394
 6663TIP3    H241553   0.772   0.365   8.316 -2.4743  1.0521 -1.7441
 6664TIP3   OH241554   1.644   0.020   0.893 -0.2665 -0.0863 -0.5759
 6664TIP3    H141555   1.657   0.034   0.987  0.7293 -0.0358 -0.7005
 6664TIP3    H241556   1.550   0.019   0.881 -0.4111  1.4464  0.2107
 6665TIP3   OH241557   2.147   3.532   0.869 -0.5608 -0.4662  0.4509
 6665TIP3    H141558   2.155   3.605   0.931 -0.0098 -0.9649  0.9710
 6665TIP3    H241559   2.054   3.532   0.845 -0.7048 -0.0353  0.9804
 6666TIP3   OH241560   5.225   2.010   0.103  0.7848 -0.0132  0.4975
 6666TIP3    H141561   5.293   2.067   0.139  1.7587 -0.4517 -0.5856
 6666TIP3    H241562   5.273   1.935   0.068 -0.2229 -0.1136 -0.7239
 6667TIP3   OH241563   5.157   0.167   8.036 -0.0423 -0.0480  0.0487
 6667TIP3    H141564   5.188   0.158   8.126 -1.1367  0.1839  0.4651
 6667TIP3    H241565   5.088   0.234   8.041  0.8090  0.9757 -1.1925
 6668TIP3   OH241566   4.138   0.969   0.700  0.1438  0.2630  0.1604
 6668TIP3    H141567   4.225   0.970   0.739 -0.7838 -3.3806  2.9207
 6668TIP3    H241568   4.086   1.027   0.756 -0.0355 -0.8157  1.1466
 6669TIP3   OH241569   6.129   0.597   7.668  0.1542  0.5954  0.8274
 6669TIP3    H141570   6.061   0.542   7.706 -0.6014 -0.0770 -1.3551
 6669TIP3    H241571   6.097   0.619   7.581  3.0826 -0.4579 -0.6693
 6670TIP3   OH241572   2.820   0.228   1.123  0.6963 -0.4982  0.0532
 6670TIP3    H141573   2.746   0.280   1.154  1.1419  1.4462 -1.9136
 6670TIP3    H241574   2.796   0.202   1.034  2.1506 -0.2244 -0.4506
 6671TIP3   OH241575   5.474   0.459   8.310 -0.3495  0.4684 -0.2328
 6671TIP3    H141576   5.568   0.449   8.325 -0.2339  0.7204 -0.7574
 6671TIP3    H241577   5.467   0.484   8.218 -1.0275 -0.9756 -0.6084
 6672TIP3   OH241578   6.226   1.880   1.225  0.2308 -0.0403 -0.4380
 6672TIP3    H141579   6.131   1.869   1.231  0.2564 -0.2449 -0.4047
 6672TIP3    H241580   6.239   1.975   1.229 -0.1310  0.1608 -2.6167
 6673TIP3   OH241581   4.069   0.595   6.505 -0.6290  0.1034  0.1347
 6673TIP3    H141582   4.007   0.587   6.578  0.2258  1.0137  0.9881
 6673TIP3    H241583   4.134   0.659   6.536  0.0672  0.0671 -1.2063
 6674TIP3   OH241584   2.368   2.625   6.805  0.3872 -0.0206 -0.0265
 6674TIP3    H141585   2.318   2.553   6.842  0.2043 -0.6408 -1.4068
 6674TIP3    H241586   2.390   2.681   6.880 -0.0316 -1.1562  0.9668
 6675TIP3   OH241587   3.367   0.085   0.154 -0.5862  0.1176 -0.5029
 6675TIP3    H141588   3.458   0.079   0.124 -0.2393  3.2603 -0.3990
 6675TIP3    H241589   3.374   0.085   0.250 -0.7101  0.2806 -0.4951
 6676TIP3   OH241590   3.927   5.968   6.312  0.0074 -0.5826  0.2701
 6676TIP3    H141591   3.889   6.056   6.304 -1.1756 -1.2165 -1.7733
 6676TIP3    H241592   4.022   5.983   6.310 -0.1452  0.5336 -2.5185
 6677TIP3   OH241593   3.578   5.840   2.134  0.2013  0.1062 -0.1016
 6677TIP3    H141594   3.660   5.887   2.144 -0.3578  1.0385  0.2763
 6677TIP3    H241595   3.513   5.908   2.119 -0.4724 -0.6309 -0.6634
 6678TIP3   OH241596   5.966   6.296   2.324 -0.2028 -0.4926 -0.6224
 6678TIP3    H141597   5.945   6.389   2.316 -0.8337 -0.5276  0.4356
 6678TIP3    H241598   5.934   6.272   2.411 -0.0115 -1.6876 -0.8705
 6679TIP3   OH241599   2.320   4.488   0.855 -0.2566  0.7690 -0.6130
 6679TIP3    H141600   2.237   4.507   0.810 -0.8663 -0.8470 -0.2259
 6679TIP3    H241601   2.320   4.393   0.866  0.7925  0.9266  1.0444
 6680TIP3   OH241602   4.644   2.723   0.751  0.1198  0.5114  0.1151
 6680TIP3    H141603   4.568   2.718   0.694 -0.5833  2.6431  0.7935
 6680TIP3    H241604   4.609   2.740   0.838  1.2447 -1.4214  1.0195
 6681TIP3   OH241605   4.236   3.220   8.465 -0.5588 -0.5468  0.7826
 6681TIP3    H141606   4.143   3.240   8.454 -0.8077 -2.6645 -1.6706
 6681TIP3    H241607   4.281   3.298   8.432 -1.4815 -0.6383 -0.7856
 6682TIP3   OH241608   5.188   2.689   8.217  0.1477 -0.8288 -0.1777
 6682TIP3    H141609   5.256   2.706   8.283  0.7837 -0.7873 -0.8387
 6682TIP3    H241610   5.119   2.645   8.266 -0.1430  0.7290  0.8922
 6683TIP3   OH241611   0.711   0.090   1.520  0.6526 -0.1884  0.3051
 6683TIP3    H141612   0.772   0.037   1.469  0.5092 -0.2754  0.2234
 6683TIP3    H241613   0.741   0.180   1.508  0.1865 -0.1377 -0.5213
 6684TIP3   OH241614   1.061   1.626   7.861 -0.5032  0.1139  0.0613
 6684TIP3    H141615   1.059   1.699   7.923  4.0536 -0.4962  1.2516
 6684TIP3    H241616   1.120   1.655   7.792 -0.0757 -1.7655 -0.4074
 6685TIP3   OH241617   5.733   6.188   1.648  0.1152  0.6820 -0.2923
 6685TIP3    H141618   5.740   6.283   1.661  0.2805  0.8904 -1.6866
 6685TIP3    H241619   5.762   6.174   1.558  1.3224 -0.8637  0.2943
 6686TIP3   OH241620   2.820   3.353   6.911 -0.1870 -0.5658  0.2431
 6686TIP3    H141621   2.915   3.356   6.924 -0.1304  0.8517 -0.2843
 6686TIP3    H241622   2.810   3.341   6.816 -0.5275 -0.1039  0.2198
 6687TIP3   OH241623   0.882   2.643   7.122 -0.1030 -0.2080 -0.6705
 6687TIP3    H141624   0.934   2.721   7.104  0.1015 -0.1826  0.0137
 6687TIP3    H241625   0.942   2.570   7.107 -0.1807 -0.2214 -0.9234
 6688TIP3   OH241626   4.431   0.985   1.304  0.1118  0.2612 -0.1433
 6688TIP3    H141627   4.472   0.976   1.390  1.1460  0.5900 -0.5914
 6688TIP3    H241628   4.426   1.079   1.290  0.4535  0.2011 -0.6793
 6689TIP3   OH241629   3.217   4.489   7.211  0.1325 -0.2431 -0.5568
 6689TIP3    H141630   3.137   4.465   7.165 -1.5419 -1.3070  2.6174
 6689TIP3    H241631   3.276   4.415   7.198 -0.3591 -0.5860 -0.8269
 6690TIP3   OH241632   1.657   0.737   0.330  0.1607 -0.1036 -0.1722
 6690TIP3    H141633   1.618   0.650   0.328  0.2496 -0.1338 -0.7840
 6690TIP3    H241634   1.604   0.789   0.271  0.0848  0.2749  0.2205
 6691TIP3   OH241635   5.743   0.722   8.550  0.1003  0.4010 -0.1656
 6691TIP3    H141636   5.698   0.768   8.479  1.8506  0.4506 -1.3307
 6691TIP3    H241637   5.676   0.665   8.588 -0.9498  0.4573 -1.8010
 6692TIP3   OH241638   4.294   6.076   0.544  0.1043 -0.1365 -0.4549
 6692TIP3    H141639   4.353   6.016   0.589  0.0874 -0.0269 -0.2840
 6692TIP3    H241640   4.347   6.152   0.523 -0.2071  0.3746  0.5678
 6693TIP3   OH241641   6.286   2.514   7.842  1.0007 -0.1671 -0.3534
 6693TIP3    H141642   6.333   2.494   7.923  0.9695  0.9247 -0.0534
 6693TIP3    H241643   6.194   2.514   7.866  1.0547  1.5720 -0.0403
 6694TIP3   OH241644   3.601   2.108   0.803  0.2507  0.7327  0.4712
 6694TIP3    H141645   3.538   2.067   0.861 -0.9498 -1.2457 -2.0403
 6694TIP3    H241646   3.667   2.041   0.787  0.8982  1.4518  0.0182
 6695TIP3   OH241647   5.416   3.345   7.101  0.3619  0.5906  0.5156
 6695TIP3    H141648   5.493   3.403   7.103  1.6210 -0.8915 -1.5692
 6695TIP3    H241649   5.386   3.348   7.011  0.1099 -1.5365  0.4966
 6696TIP3   OH241650   2.402   2.911   1.278 -0.4439 -0.1882 -0.2192
 6696TIP3    H141651   2.457   2.988   1.292  1.4230 -1.3496 -0.8517
 6696TIP3    H241652   2.313   2.946   1.274  0.3064  1.8718 -0.0406
 6697TIP3   OH241653   6.761   0.367   7.746 -0.0266  0.1926 -0.1850
 6697TIP3    H141654   6.826   0.307   7.784 -0.4149 -0.5953 -0.7163
 6697TIP3    H241655   6.677   0.334   7.777 -0.1738  1.3662  0.7111
 6698TIP3   OH241656   1.113   4.732   1.666 -0.2288  0.4064  0.5124
 6698TIP3    H141657   1.174   4.805   1.678 -0.5951  0.9197 -0.5452
 6698TIP3    H241658   1.108   4.721   1.571  0.2112 -1.3602  0.6644
 6699TIP3   OH241659   5.401   6.608   8.188 -1.0604 -0.0069 -0.2266
 6699TIP3    H141660   5.376   6.617   8.096 -0.4956 -1.4592 -0.5433
 6699TIP3    H241661   5.454   6.529   8.191  1.1014  1.3881  0.9148
 6700TIP3   OH241662   5.620   0.447   0.383  0.1369  0.9713 -0.1211
 6700TIP3    H141663   5.706   0.483   0.361  1.1135 -1.1220  0.1316
 6700TIP3    H241664   5.626   0.354   0.362 -2.4710  0.9839 -1.2254
 6701TIP3   OH241665   2.668   1.277   0.125  0.4226  0.6050 -0.6577
 6701TIP3    H141666   2.714   1.211   0.073  1.2186  1.6946 -1.3760
 6701TIP3    H241667   2.708   1.360   0.099 -0.2903  1.3394  0.5104
 6702TIP3   OH241668   6.609   5.766   0.255 -0.0095  0.4285 -0.4109
 6702TIP3    H141669   6.581   5.777   0.164  0.4168  1.5560 -0.4186
 6702TIP3    H241670   6.668   5.691   0.253  1.1493  1.3362 -1.3320
 6703TIP3   OH241671   4.594   3.886   2.073 -0.2641 -0.1499  0.4339
 6703TIP3    H141672   4.640   3.969   2.086 -0.1650 -0.1900  0.3402
 6703TIP3    H241673   4.662   3.825   2.045 -0.3620 -0.2278  0.3659
 6704TIP3   OH241674   2.518   2.186   8.524  0.2005  0.5713 -0.2668
 6704TIP3    H141675   2.447   2.205   8.586 -1.3615  1.8390 -2.3035
 6704TIP3    H241676   2.479   2.124   8.461  1.3205  0.2990 -0.7173
 6705TIP3   OH241677   6.332   2.081   7.598  0.2452 -0.0990 -0.3103
 6705TIP3    H141678   6.284   2.145   7.544  1.4983  0.8310 -0.3569
 6705TIP3    H241679   6.387   2.134   7.655  1.5195 -1.1346 -0.5299
 6706TIP3   OH241680   0.452   6.646   8.119  0.0052  0.0462 -0.9268
 6706TIP3    H141681   0.441   6.607   8.033 -1.0001  2.8713 -2.1930
 6706TIP3    H241682   0.547   6.646   8.134  0.1486 -0.9712 -1.7530
 6707TIP3   OH241683   2.967   3.781   6.585 -0.2816 -0.1488  0.3444
 6707TIP3    H141684   2.986   3.767   6.492 -0.1725  1.6478  0.0594
 6707TIP3    H241685   2.922   3.701   6.613  1.6205 -1.6670 -0.6837
 6708TIP3   OH241686   3.094   4.420   1.056  0.0117 -0.5723 -0.3830
 6708TIP3    H141687   3.179   4.443   1.092  1.1393 -0.5326 -2.8716
 6708TIP3    H241688   3.066   4.344   1.107  1.1959 -0.1816  0.9205
 6709TIP3   OH241689   2.547   1.229   7.726 -0.2198 -0.2087  0.1709
 6709TIP3    H141690   2.550   1.164   7.795  0.6394  0.6360  0.9597
 6709TIP3    H241691   2.637   1.234   7.694  0.1178  1.7698  1.2843
 6710TIP3   OH241692   2.006   2.560   1.356  0.0670  0.1865 -0.2807
 6710TIP3    H141693   1.991   2.633   1.296 -1.0335  0.0272 -0.2052
 6710TIP3    H241694   2.064   2.596   1.424  0.4748  0.6514 -0.8636
 6711TIP3   OH241695   5.925   3.391   0.142 -0.4031 -0.0018 -0.3732
 6711TIP3    H141696   6.010   3.435   0.139 -1.5362  2.2562 -1.5476
 6711TIP3    H241697   5.917   3.359   0.232  0.9822  1.1953  0.2113
 6712TIP3   OH241698   6.399   4.554   0.118  0.3165  0.1964 -0.5280
 6712TIP3    H141699   6.476   4.606   0.142  0.8851 -0.5572 -0.6812
 6712TIP3    H241700   6.359   4.604   0.047 -1.4254  2.4807  1.8635
 6713TIP3   OH241701   4.579   0.106   7.376  0.5680 -0.0276 -0.3803
 6713TIP3    H141702   4.589   0.071   7.288  2.2870  1.0825 -0.6736
 6713TIP3    H241703   4.551   0.031   7.428 -1.7708 -0.4210 -2.0625
 6714TIP3   OH241704   5.675   3.555   7.759 -0.2905  0.4808  0.2428
 6714TIP3    H141705   5.719   3.514   7.834 -0.0106 -0.0927 -0.2280
 6714TIP3    H241706   5.624   3.484   7.719  0.8278  0.3580 -1.0530
 6715TIP3   OH241707   5.750   6.611   0.688 -0.0020 -0.6850 -0.3704
 6715TIP3    H141708   5.668   6.647   0.721 -0.0608 -0.2115 -1.0169
 6715TIP3    H241709   5.792   6.684   0.642  0.7914 -0.9158 -0.0275
 6716TIP3   OH241710   4.263   2.107   7.104  0.0686  0.6540 -0.4532
 6716TIP3    H141711   4.248   2.202   7.106 -0.4243  0.6205 -1.7804
 6716TIP3    H241712   4.178   2.069   7.124 -0.2185  0.5056 -1.8352
 6717TIP3   OH241713   6.743   3.886   7.742 -0.2404 -0.0234 -0.1094
 6717TIP3    H141714   6.829   3.858   7.712  0.2509 -1.0133  2.0231
 6717TIP3    H241715   6.681   3.846   7.681  0.7422 -0.7368 -0.6573
 6718TIP3   OH241716   1.890   0.291   1.173  0.6777  0.0505  0.4164
 6718TIP3    H141717   1.850   0.250   1.097  1.8017 -0.3278  0.0083
 6718TIP3    H241718   1.919   0.218   1.228 -2.5412  0.2246  2.6391
 6719TIP3   OH241719   1.579   3.941   0.489 -0.0915 -0.1113  0.2540
 6719TIP3    H141720   1.605   3.953   0.581 -0.3231 -2.9214  0.7545
 6719TIP3    H241721   1.647   3.886   0.452 -0.2981  0.5342 -1.1487
 6720TIP3   OH241722   6.661   4.880   7.656  0.4384 -0.3853  0.3995
 6720TIP3    H141723   6.614   4.961   7.635 -0.7238 -0.7615  1.4348
 6720TIP3    H241724   6.647   4.824   7.580 -0.6474 -0.4110  0.6004
 6721TIP3   OH241725   6.681   0.235   1.140 -0.3289 -0.2043  0.2065
 6721TIP3    H141726   6.751   0.298   1.158 -0.7008  0.7582 -1.5013
 6721TIP3    H241727   6.601   0.282   1.158 -0.5908 -0.4838 -0.1955
 6722TIP3   OH241728   5.359   3.296   2.387  0.2212  0.1774 -0.3323
 6722TIP3    H141729   5.400   3.280   2.301 -1.1404 -2.0715 -0.6282
 6722TIP3    H241730   5.339   3.209   2.421 -1.3232  1.0938  1.2721
 6723TIP3   OH241731   1.733   1.973   8.316 -0.0702 -0.3288 -0.2550
 6723TIP3    H141732   1.812   2.005   8.273 -0.5965 -1.5690 -2.2580
 6723TIP3    H241733   1.743   1.878   8.320 -0.7833 -0.3826  0.9132
 6724TIP3   OH241734   2.311   5.066   7.718 -0.0538 -0.4000 -0.2501
 6724TIP3    H141735   2.396   5.033   7.749  0.4947 -0.6598 -1.9155
 6724TIP3    H241736   2.280   5.122   7.789  0.8847 -1.3381  0.9581
 6725TIP3   OH241737   1.546   5.822   7.368 -0.1425 -0.4880  0.3873
 6725TIP3    H141738   1.620   5.869   7.407  1.0965 -0.9121 -1.3747
 6725TIP3    H241739   1.495   5.890   7.323 -1.0812 -0.1401  1.8890
 6726TIP3   OH241740   4.696   1.969   8.123 -0.0229 -0.1191  0.9294
 6726TIP3    H141741   4.765   1.922   8.077 -1.8900 -0.2262 -2.0627
 6726TIP3    H241742   4.686   1.922   8.206  0.9854 -2.4385 -0.1676
 6727TIP3   OH241743   3.782   4.306   1.655  0.4090  0.0995  0.3805
 6727TIP3    H141744   3.813   4.293   1.744  1.3818  0.5849  0.1242
 6727TIP3    H241745   3.751   4.397   1.654  0.1671  0.0168  0.2896
 6728TIP3   OH241746   2.102   2.037   0.637  0.3380  0.2534  0.1725
 6728TIP3    H141747   2.046   2.113   0.625 -0.0226 -0.1308 -0.7077
 6728TIP3    H241748   2.190   2.069   0.622  0.4780  1.0347  2.3160
 6729TIP3   OH241749   0.405   4.747   1.962 -0.4684  0.4955  0.5342
 6729TIP3    H141750   0.481   4.704   2.002  0.0547  2.9577  2.3767
 6729TIP3    H241751   0.337   4.740   2.029 -0.3281  2.5541  0.9407
 6730TIP3   OH241752   1.667   1.991   0.009  0.2671  0.4190 -0.3598
 6730TIP3    H141753   1.631   2.056  -0.050 -0.2870  1.2627  0.8673
 6730TIP3    H241754   1.690   2.040   0.088  0.6151 -0.7289  0.2758
 6731TIP3   OH241755   5.632   1.787   6.568  0.2974 -0.1182 -0.1619
 6731TIP3    H141756   5.625   1.700   6.606 -1.2546 -0.5020 -1.2014
 6731TIP3    H241757   5.565   1.788   6.499 -0.9801  2.4664  0.9723
 6732TIP3   OH241758   6.373   5.284   7.482  0.3116 -0.1341 -0.3187
 6732TIP3    H141759   6.323   5.203   7.489 -0.1483  0.1389 -0.3765
 6732TIP3    H241760   6.422   5.276   7.400  0.3679 -0.4098 -0.2559
 6733TIP3   OH241761   2.138   5.464   1.553 -0.0662 -0.3486  0.3140
 6733TIP3    H141762   2.232   5.453   1.538  0.1546  0.3693  1.0897
 6733TIP3    H241763   2.107   5.377   1.580  0.3700 -0.5778  0.0847
 6734TIP3   OH241764   1.939   6.575   2.415  0.2902 -0.1049 -0.1479
 6734TIP3    H141765   1.860   6.529   2.444  0.0608 -0.0287 -0.6531
 6734TIP3    H241766   2.002   6.559   2.485  0.0361 -0.7236 -0.0501
 6735TIP3   OH241767   1.080   4.339   7.759  0.4529  0.0485 -0.0228
 6735TIP3    H141768   1.067   4.425   7.799 -1.0370 -0.3447  0.4057
 6735TIP3    H241769   1.061   4.352   7.667  3.5483  0.8808 -0.6499
 6736TIP3   OH241770   4.627   3.392   6.733  0.2796  0.6149  0.2925
 6736TIP3    H141771   4.693   3.336   6.774 -0.1021  0.5884  0.8895
 6736TIP3    H241772   4.677   3.451   6.677  0.9737  1.5946  1.8847
 6737TIP3   OH241773   4.844   5.701   8.370  0.3001 -0.0461 -0.6404
 6737TIP3    H141774   4.749   5.690   8.370  0.2482  0.1743  0.7872
 6737TIP3    H241775   4.867   5.711   8.278 -1.1675  0.7207 -0.9592
 6738TIP3   OH241776   5.415   5.770   6.605  0.4175 -0.2344  0.2152
 6738TIP3    H141777   5.508   5.792   6.607  0.1591  1.0632  2.9047
 6738TIP3    H241778   5.396   5.737   6.693 -1.7787  0.1489 -0.0454
 6739TIP3   OH241779   5.229   4.006   8.761  0.2239 -0.1370 -0.1880
 6739TIP3    H141780   5.202   3.992   8.671  0.4821 -1.5415 -0.0657
 6739TIP3    H241781   5.199   4.095   8.782 -2.0130 -0.6707 -0.8576
 6740TIP3   OH241782   5.792   2.293   0.933  0.4056 -0.8696  0.5500
 6740TIP3    H141783   5.819   2.377   0.897  0.6838 -0.8494  0.8011
 6740TIP3    H241784   5.862   2.233   0.910  0.0996 -1.0878  0.1712
 6741TIP3   OH241785   0.386   4.013   0.334 -0.3871  0.5954  0.4939
 6741TIP3    H141786   0.343   3.961   0.266 -0.6571  0.7944  0.5112
 6741TIP3    H241787   0.429   4.085   0.287 -0.1923  0.4784  0.4909
 6742TIP3   OH241788   3.541   0.318   1.585  0.1748  0.2359 -0.4288
 6742TIP3    H141789   3.596   0.301   1.509  2.8879 -2.3569  1.8866
 6742TIP3    H241790   3.601   0.352   1.651 -1.7505  0.7855  1.1315
 6743TIP3   OH241791   2.075   2.872   7.267 -0.4520  0.5073 -0.0558
 6743TIP3    H141792   1.984   2.860   7.293 -1.3094  1.9886 -2.0668
 6743TIP3    H241793   2.080   2.832   7.180  0.4668  1.5659 -0.5122
 6744TIP3   OH241794   4.986   1.040   0.421 -1.0603  0.1383  0.0928
 6744TIP3    H141795   5.043   1.058   0.495 -2.7099  1.5112  1.0928
 6744TIP3    H241796   4.983   0.945   0.416  1.5450 -0.0216 -0.2463
 6745TIP3   OH241797   1.369   5.098   0.336  0.0796  0.2900 -0.1150
 6745TIP3    H141798   1.456   5.058   0.341 -0.1170 -0.1104  0.1920
 6745TIP3    H241799   1.373   5.154   0.259  0.6562  0.3861 -0.0234
 6746TIP3   OH241800   3.153   3.583   7.110  0.1567  0.1644  0.2062
 6746TIP3    H141801   3.202   3.611   7.187  0.7368  0.1259 -0.1404
 6746TIP3    H241802   3.188   3.496   7.090 -0.3938 -0.0711  0.2355
 6747TIP3   OH241803   5.860   5.204   1.603  0.2016  0.6878  0.3108
 6747TIP3    H141804   5.814   5.122   1.625 -0.8778  0.9126 -0.9688
 6747TIP3    H241805   5.944   5.175   1.567  0.0288  0.1527  0.3270
 6748TIP3   OH241806   0.528   5.470   6.740 -0.1302 -0.3939 -0.9015
 6748TIP3    H141807   0.445   5.464   6.692 -0.8378 -0.4684  0.3106
 6748TIP3    H241808   0.561   5.557   6.718 -2.6514  1.4829  1.8599
 6749TIP3   OH241809   6.221   0.895   7.361  0.6727 -0.4195 -0.4968
 6749TIP3    H141810   6.159   0.948   7.311  0.1901 -0.9205 -0.4378
 6749TIP3    H241811   6.257   0.834   7.297 -2.4011 -3.3466  0.2948
 6750TIP3   OH241812   0.459   2.308   7.761  0.2100  0.0183  0.5672
 6750TIP3    H141813   0.411   2.303   7.678 -1.4179  0.5971  1.4383
 6750TIP3    H241814   0.468   2.217   7.789 -0.6734 -0.0921  0.5324
 6751TIP3   OH241815   3.889   6.047   1.673  0.2829  0.9046  0.0644
 6751TIP3    H141816   3.820   6.100   1.712 -1.9548 -2.4092  0.9568
 6751TIP3    H241817   3.865   6.042   1.580  1.1957  2.2999 -0.2908
 6752TIP3   OH241818   4.644   3.993   8.026 -0.7510  0.1764 -0.2715
 6752TIP3    H141819   4.634   4.035   7.940 -1.2339  1.0012  0.1790
 6752TIP3    H241820   4.625   4.062   8.089  0.5897 -0.1583  0.5332
 6753TIP3   OH241821   3.974   1.944   8.690 -0.1346 -0.9044 -0.5384
 6753TIP3    H141822   3.953   2.005   8.760 -0.4477 -2.3875  0.7186
 6753TIP3    H241823   3.908   1.960   8.622  1.4587  2.0522 -1.5446
 6754TIP3   OH241824   6.457   3.716   8.231  0.0857 -0.2322  0.1315
 6754TIP3    H141825   6.501   3.655   8.172 -0.1448 -0.1694 -0.1056
 6754TIP3    H241826   6.365   3.692   8.228  0.1499 -0.5937  0.9128
 6755TIP3   OH241827   1.821   3.090   1.829 -0.7511 -0.1100 -0.6955
 6755TIP3    H141828   1.726   3.105   1.834 -0.6121  0.6290  0.0380
 6755TIP3    H241829   1.830   2.996   1.815 -1.6026 -0.1133 -1.2933
 6756TIP3   OH241830   4.048   5.990   8.154  0.0669  0.0472  0.0419
 6756TIP3    H141831   3.965   5.995   8.106 -1.0844 -3.9713  1.1207
 6756TIP3    H241832   4.027   6.025   8.241 -0.4346 -0.6159  0.1965
 6757TIP3   OH241833   4.900   6.064   7.624  0.1657  0.0554 -0.3100
 6757TIP3    H141834   4.948   6.004   7.567  1.0411  0.1856  0.2746
 6757TIP3    H241835   4.954   6.071   7.703 -1.0140 -0.1144  0.5419
 6758TIP3   OH241836   3.115   1.368   0.770 -0.0325 -0.3571 -0.1967
 6758TIP3    H141837   3.021   1.368   0.787  0.0821  0.9908  0.5673
 6758TIP3    H241838   3.122   1.356   0.675 -0.8997 -2.1836 -0.0667
 6759TIP3   OH241839   1.614   5.838   8.661 -0.4804  0.3219  0.2150
 6759TIP3    H141840   1.619   5.934   8.659 -0.8564  0.4126  1.8058
 6759TIP3    H241841   1.669   5.810   8.588  0.6258  1.7391  0.4466
 6760TIP3   OH241842   2.079   4.120   8.096 -0.0595  0.0106 -0.3847
 6760TIP3    H141843   1.997   4.141   8.050 -0.3615 -1.8471 -0.7908
 6760TIP3    H241844   2.143   4.108   8.026  0.9942  2.8551 -0.0228
 6761TIP3   OH241845   3.149   1.776   6.286  0.3230 -0.3588 -0.0700
 6761TIP3    H141846   3.221   1.811   6.234  0.5806 -1.4739 -0.4829
 6761TIP3    H241847   3.125   1.694   6.242 -2.7665  1.0643 -1.3475
 6762TIP3   OH241848   0.413   6.636   6.518  0.0637  0.1111 -0.0145
 6762TIP3    H141849   0.371   6.556   6.552 -1.7390  0.0461 -2.2060
 6762TIP3    H241850   0.499   6.606   6.488  0.4043 -0.4651  1.4203
 6763TIP3   OH241851   3.230   2.428   8.412 -0.1459  0.3743  0.2146
 6763TIP3    H141852   3.160   2.422   8.477 -0.4398  0.9095 -0.0476
 6763TIP3    H241853   3.270   2.341   8.411 -0.8424  0.0500  0.3270
 6764TIP3   OH241854   6.427   3.279   0.393 -0.4698 -0.0700 -0.1546
 6764TIP3    H141855   6.350   3.263   0.340 -0.5435  1.1000 -0.4300
 6764TIP3    H241856   6.499   3.288   0.330 -0.6581  1.9085 -0.1326
 6765TIP3   OH241857   1.133   1.219   7.642  0.1085  0.3344 -0.5306
 6765TIP3    H141858   1.038   1.208   7.649  0.0554 -0.4210 -1.9927
 6765TIP3    H241859   1.144   1.307   7.606 -0.0755  0.1100 -1.1383
 6766TIP3   OH241860   5.256   6.183   8.033 -0.4374 -0.4161  0.2411
 6766TIP3    H141861   5.211   6.109   7.991 -1.2949  0.8631 -1.2419
 6766TIP3    H241862   5.329   6.203   7.974  1.0265 -1.2981  1.6773
 6767TIP3   OH241863   6.771   3.839   6.372  0.0572 -0.1992  0.1936
 6767TIP3    H141864   6.753   3.894   6.296  1.3110 -1.3726 -1.0115
 6767TIP3    H241865   6.685   3.804   6.397 -0.2750 -0.5754 -1.3278
 6768TIP3   OH241866   4.670   6.829   8.349  0.5384  0.1903 -0.0552
 6768TIP3    H141867   4.714   6.856   8.430  0.2249  0.2450  0.0978
 6768TIP3    H241868   4.577   6.837   8.369  0.4575  1.3081 -0.7915
 6769TIP3   OH241869   2.213   4.918   7.442 -0.2018  0.0126 -0.2598
 6769TIP3    H141870   2.118   4.925   7.448 -0.0911  0.6326  1.0714
 6769TIP3    H241871   2.245   4.959   7.522  1.4070  4.2433 -2.7647
 6770TIP3   OH241872   0.923   3.827   6.698 -0.2721  0.5031 -0.1272
 6770TIP3    H141873   0.902   3.918   6.720  1.4350  1.4205 -1.9304
 6770TIP3    H241874   0.839   3.787   6.676 -1.0497  1.6274  0.6956
 6771TIP3   OH241875   5.194   3.147   7.209 -0.4540 -0.7726 -0.1202
 6771TIP3    H141876   5.214   3.239   7.223  1.9783 -1.2416 -0.0871
 6771TIP3    H241877   5.111   3.147   7.163 -0.1934  1.4563 -0.6867
 6772TIP3   OH241878   1.686   4.663   7.301  0.4559 -0.0569  0.4142
 6772TIP3    H141879   1.617   4.709   7.252  0.0139 -1.3918 -0.2629
 6772TIP3    H241880   1.767   4.685   7.255  0.3625  0.6415  0.5596
 6773TIP3   OH241881   2.956   2.472   2.453 -0.1247  0.3542  0.0322
 6773TIP3    H141882   2.913   2.471   2.538 -0.3606  0.6036 -0.0828
 6773TIP3    H241883   2.888   2.445   2.392  0.6707 -2.2387  0.1953
 6774TIP3   OH241884   0.866   1.826   1.007 -0.2103 -0.9653  0.2912
 6774TIP3    H141885   0.773   1.849   1.004  0.0240 -0.0407 -0.3543
 6774TIP3    H241886   0.911   1.905   0.979  0.8494 -1.0103  1.7685
 6775TIP3   OH241887   3.138   5.449   7.089  0.4007 -0.3647 -0.1053
 6775TIP3    H141888   3.185   5.489   7.016  0.8701 -0.7760 -0.0359
 6775TIP3    H241889   3.159   5.356   7.084  1.0853 -0.2923  1.0032
 6776TIP3   OH241890   2.421   5.407   0.682 -0.4470 -0.8287  0.3271
 6776TIP3    H141891   2.426   5.432   0.590  0.7458 -2.1006  0.0185
 6776TIP3    H241892   2.385   5.318   0.681 -0.6218 -0.7770  1.1034
 6777TIP3   OH241893   6.759   6.035   1.856  0.6428  0.3652  0.1984
 6777TIP3    H141894   6.835   6.078   1.816  0.5256  0.8846  0.5249
 6777TIP3    H241895   6.710   6.107   1.897 -0.2422  0.0953 -0.3625
 6778TIP3   OH241896   0.094   6.524   8.728  0.3169  0.5327 -0.8548
 6778TIP3    H141897   0.112   6.470   8.651  0.5510 -0.2334 -0.2762
 6778TIP3    H241898   0.009   6.564   8.709  0.7706  1.0540 -1.8819
 6779TIP3   OH241899   5.420   6.757   8.455 -0.5711  0.2660 -0.3163
 6779TIP3    H141900   5.364   6.834   8.463 -2.3829 -1.1229  1.0561
 6779TIP3    H241901   5.392   6.715   8.373 -0.8841  0.0728 -0.1104
 6780TIP3   OH241902   0.042   4.306   6.591  0.2202 -0.4966 -0.1380
 6780TIP3    H141903   0.120   4.354   6.618 -0.2253  0.3594 -0.3319
 6780TIP3    H241904   0.043   4.226   6.645  2.2751 -1.4832 -1.5199
 6781TIP3   OH241905   0.790   2.136   8.095 -0.2867  0.6985 -0.2339
 6781TIP3    H141906   0.794   2.126   8.000 -0.6477 -0.0443 -0.1778
 6781TIP3    H241907   0.710   2.187   8.110 -0.6663  0.1300 -0.2883
 6782TIP3   OH241908   1.829   2.410   2.093  0.2384 -0.4667  0.6773
 6782TIP3    H141909   1.771   2.337   2.115 -0.9919  0.0105 -0.8078
 6782TIP3    H241910   1.859   2.390   2.005 -1.5965  1.6576 -0.5269
 6783TIP3   OH241911   2.040   6.487   6.601  0.4491 -0.2972  0.4971
 6783TIP3    H141912   2.130   6.473   6.630  1.0713  0.5460 -0.9202
 6783TIP3    H241913   2.008   6.400   6.578  0.8079 -0.6327  1.2409
 6784TIP3   OH241914   4.571   3.171   8.707 -0.4077  0.0126 -0.2876
 6784TIP3    H141915   4.526   3.129   8.780 -2.0585  2.0445 -0.0296
 6784TIP3    H241916   4.612   3.248   8.745 -1.6039  1.3097 -1.4858
 6785TIP3   OH241917   5.544   3.786   7.686  0.3125  0.1554 -0.2863
 6785TIP3    H141918   5.597   3.711   7.712  0.7674 -0.3088 -2.4029
 6785TIP3    H241919   5.455   3.762   7.713  0.1797 -1.8833 -2.2301
 6786TIP3   OH241920   5.539   3.783   6.874  0.1417 -0.3015  0.5850
 6786TIP3    H141921   5.620   3.735   6.860 -0.6538 -0.9462 -2.6925
 6786TIP3    H241922   5.484   3.723   6.926  1.1424 -0.5222  1.4168
 6787TIP3   OH241923   2.774   4.695   0.176  0.1579  0.6199 -0.5959
 6787TIP3    H141924   2.740   4.757   0.241  0.7545 -0.2372  0.5678
 6787TIP3    H241925   2.845   4.743   0.133 -0.5432  1.3582 -0.9623
 6788TIP3   OH241926   0.466   3.064   8.725  0.1146 -0.5174  0.6511
 6788TIP3    H141927   0.498   3.151   8.701 -2.2024  0.8455  2.0921
 6788TIP3    H241928   0.505   3.006   8.660  1.6916  1.5830 -0.4324
 6789TIP3   OH241929   4.492   5.264   6.750 -0.0503 -0.4217 -0.3035
 6789TIP3    H141930   4.472   5.229   6.663  1.5900 -1.0100 -0.4818
 6789TIP3    H241931   4.519   5.354   6.734  0.9689 -0.7538 -0.5129
 6790TIP3   OH241932   2.576   3.511   7.520  0.5204 -0.6631  0.2535
 6790TIP3    H141933   2.555   3.582   7.580  0.2891 -0.3493 -0.1977
 6790TIP3    H241934   2.653   3.541   7.472  1.2117 -1.2603  0.9722
 6791TIP3   OH241935   5.522   2.566   1.795  0.8870  0.1930  0.1396
 6791TIP3    H141936   5.500   2.527   1.879 -1.2783  1.2225  0.1076
 6791TIP3    H241937   5.585   2.635   1.816  0.4135  0.3984  0.9132
 6792TIP3   OH241938   5.957   0.883   1.591  0.1806  0.5265  0.0322
 6792TIP3    H141939   5.995   0.812   1.642 -0.3923  0.3039  0.1517
 6792TIP3    H241940   6.012   0.888   1.512 -0.8122 -1.2253 -0.8202
 6793TIP3   OH241941   2.564   5.685   8.041  0.2334  0.3707  0.3392
 6793TIP3    H141942   2.619   5.718   8.112 -0.4971 -0.2013  1.1867
 6793TIP3    H241943   2.525   5.605   8.076  0.1332 -0.1145 -0.8384
 6794TIP3   OH241944   4.694   0.641   8.540  0.4998 -0.3181  0.3331
 6794TIP3    H141945   4.764   0.586   8.505 -0.1828 -1.4078  0.6290
 6794TIP3    H241946   4.700   0.630   8.635 -0.5215 -1.0185  0.3335
 6795TIP3   OH241947   4.601   0.396   7.206  0.1817 -0.3524  0.5420
 6795TIP3    H141948   4.528   0.419   7.148  0.0219  2.5464  1.7693
 6795TIP3    H241949   4.567   0.323   7.258 -0.4674 -1.5074 -1.3883
 6796TIP3   OH241950   3.455   3.482   8.512 -0.1779 -0.0038  0.3707
 6796TIP3    H141951   3.427   3.404   8.464 -0.1181  0.7842 -1.0278
 6796TIP3    H241952   3.467   3.453   8.602 -1.4473 -1.3019  0.1560
 6797TIP3   OH241953   4.627   3.183   7.490  0.3343  0.6520  1.0716
 6797TIP3    H141954   4.667   3.244   7.553  0.7393  0.6063  0.8636
 6797TIP3    H241955   4.681   3.104   7.497  0.6401  0.7926  0.3660
 6798TIP3   OH241956   3.113   2.151   8.134  0.2314  0.5886 -0.0879
 6798TIP3    H141957   3.019   2.163   8.145  0.3395  1.3989  0.0813
 6798TIP3    H241958   3.134   2.075   8.187 -0.3136  0.4668 -0.0410
 6799TIP3   OH241959   5.318   2.240   1.897  0.3077  0.2319 -0.1459
 6799TIP3    H141960   5.239   2.222   1.846  0.9991 -1.5186 -0.6906
 6799TIP3    H241961   5.337   2.157   1.941  1.7451  0.6619  0.0941
 6800TIP3   OH241962   5.862   5.504   8.225  0.3053 -0.8972 -0.0048
 6800TIP3    H141963   5.853   5.476   8.134  0.7726 -1.4334  0.1056
 6800TIP3    H241964   5.874   5.599   8.219 -1.3432 -0.6839 -0.3799
 6801TIP3   OH241965   0.107   5.556   8.779  0.5765 -0.5563 -0.2665
 6801TIP3    H141966   0.197   5.529   8.799  0.5231 -1.6956 -1.4520
 6801TIP3    H241967   0.108   5.651   8.790  1.7285 -0.6290  0.4462
 6802TIP3   OH241968   5.721   1.719   6.988 -0.5058  0.6578 -0.0818
 6802TIP3    H141969   5.635   1.689   6.959  0.5500 -2.2149 -0.5641
 6802TIP3    H241970   5.768   1.737   6.907 -0.3807  1.4889  0.1661
 6803TIP3   OH241971   4.733   4.419   0.787 -0.2427 -0.2691 -0.3069
 6803TIP3    H141972   4.715   4.491   0.727 -1.0187  0.4226  0.7061
 6803TIP3    H241973   4.772   4.351   0.733  1.3594  1.2391 -1.1309
 6804TIP3   OH241974   1.744   2.906   0.153  0.2487  0.4070 -0.2946
 6804TIP3    H141975   1.782   2.992   0.173  0.4297  0.5235 -1.0806
 6804TIP3    H241976   1.697   2.920   0.071  0.9527 -0.4242 -0.8606
 6805TIP3   OH241977   0.541   2.700   7.464  0.4225  0.2351  0.5394
 6805TIP3    H141978   0.530   2.787   7.502 -0.9649  0.3437 -0.0264
 6805TIP3    H241979   0.585   2.716   7.380  0.1350  0.4140  0.4181
 6806TIP3   OH241980   4.094   6.053   7.660 -0.5241  0.2906  0.1639
 6806TIP3    H141981   4.104   6.145   7.637  0.6897  0.5374  1.5293
 6806TIP3    H241982   4.169   6.010   7.620 -0.1685  0.1823  0.9436
 6807TIP3   OH241983   0.372   5.551   8.091 -0.0793 -0.6739  0.6664
 6807TIP3    H141984   0.279   5.561   8.073  0.3860  0.4869 -1.3966
 6807TIP3    H241985   0.410   5.636   8.071  1.6773 -1.6175 -0.3018
 6808TIP3   OH241986   0.790   0.347   1.427 -0.3292 -0.1608  0.3658
 6808TIP3    H141987   0.723   0.411   1.448  0.9932  2.1069 -1.7608
 6808TIP3    H241988   0.872   0.385   1.460  0.5118 -0.5922 -1.0982
 6809TIP3   OH241989   4.830   4.265   0.328  0.7808 -0.2088  0.5871
 6809TIP3    H141990   4.795   4.338   0.277 -1.7623 -0.8848  1.2227
 6809TIP3    H241991   4.869   4.207   0.264  0.3321  0.3925 -0.2468
 6810TIP3   OH241992   5.502   2.811   0.894 -0.3247  0.4237  0.6621
 6810TIP3    H141993   5.420   2.853   0.867 -1.5334 -1.0998  1.7525
 6810TIP3    H241994   5.524   2.853   0.978 -0.1852  0.5780  0.5487
 6811TIP3   OH241995   4.488   1.225   7.429  0.4687 -0.2429  0.3073
 6811TIP3    H141996   4.422   1.161   7.457  0.2861 -0.6509 -0.9633
 6811TIP3    H241997   4.557   1.220   7.495  0.1697 -1.3296  0.5510
 6812TIP3   OH241998   5.869   2.591   6.369  0.1382  0.0273 -0.5233
 6812TIP3    H141999   5.885   2.600   6.463  0.4954 -2.5798 -0.2444
 6812TIP3    H242000   5.948   2.547   6.336 -0.4739 -0.1284 -1.8216
 6813TIP3   OH242001   6.167   1.693   6.477 -0.0738 -0.1760  0.1805
 6813TIP3    H142002   6.257   1.701   6.508 -0.6705 -0.6720  2.1242
 6813TIP3    H242003   6.151   1.599   6.472  0.1888 -0.1557 -2.3447
 6814TIP3   OH242004   6.133   0.331   8.511  0.5292 -0.2203  0.1148
 6814TIP3    H142005   6.080   0.406   8.540 -0.5770 -0.5336 -1.0121
 6814TIP3    H242006   6.163   0.356   8.423 -0.7190 -1.4896 -0.7121
 6815TIP3   OH242007   3.749   1.016   0.957  0.4045 -0.0166  0.7484
 6815TIP3    H142008   3.731   0.980   1.044 -1.6512  0.7405  0.6790
 6815TIP3    H242009   3.755   0.939   0.900  0.5682 -0.4518  1.3386
 6816TIP3   OH242010   1.520   2.198   8.190  0.1758 -0.1570  0.1690
 6816TIP3    H142011   1.441   2.180   8.241 -0.1166 -0.3228 -0.3387
 6816TIP3    H242012   1.517   2.136   8.118  1.9002 -1.6577  1.3140
 6817TIP3   OH242013   3.583   6.750   0.358 -0.6883  0.1133 -0.3043
 6817TIP3    H142014   3.557   6.681   0.419 -1.0901 -1.2378 -1.9382
 6817TIP3    H242015   3.519   6.820   0.373 -0.7413 -0.1610  0.8418
 6818TIP3   OH242016   3.891   4.474   0.466  0.3022 -0.1989 -0.2085
 6818TIP3    H142017   3.956   4.404   0.477 -0.6542 -1.2816 -1.2683
 6818TIP3    H242018   3.929   4.548   0.514  0.4058 -1.9840  2.7308
 6819TIP3   OH242019   4.104   3.722   0.139  0.0507 -0.0177  0.5972
 6819TIP3    H142020   4.037   3.665   0.101 -1.1099  0.9913  1.0518
 6819TIP3    H242021   4.156   3.664   0.196 -0.1980 -0.8852 -0.0387
 6820TIP3   OH242022   6.760   2.781   8.050 -0.1055  0.1006  0.0724
 6820TIP3    H142023   6.778   2.712   7.987 -1.7357  0.6790 -1.1044
 6820TIP3    H242024   6.769   2.862   7.999  1.4984  0.7666  1.3504
 6821TIP3   OH242025   0.861   0.134   0.949  0.6622  0.1317 -0.3214
 6821TIP3    H142026   0.830   0.208   1.003  1.8970  1.2749 -1.1099
 6821TIP3    H242027   0.789   0.117   0.888 -0.5303 -0.8173  1.2748
 6822TIP3   OH242028   1.330   4.902   1.096  0.0484 -0.2045 -0.4882
 6822TIP3    H142029   1.274   4.968   1.054  0.1207  0.9441  1.1276
 6822TIP3    H242030   1.344   4.935   1.185  0.5334 -2.1481  0.2181
 6823TIP3   OH242031   6.023   3.462   2.054  0.1436 -0.4792  0.1689
 6823TIP3    H142032   6.071   3.476   2.136  2.9042 -1.6603 -1.0947
 6823TIP3    H242033   6.032   3.545   2.006  0.2953 -0.4445  0.2558
 6824TIP3   OH242034   4.428   1.400   8.524  0.6932 -0.8530 -0.3610
 6824TIP3    H142035   4.429   1.306   8.508 -0.1873 -1.2647  1.7927
 6824TIP3    H242036   4.377   1.436   8.451  0.5769 -2.0843 -0.9095
 6825TIP3   OH242037   1.524   1.964   7.394  0.0951  0.2047 -0.0492
 6825TIP3    H142038   1.560   1.971   7.483  0.0640 -0.4710  0.0199
 6825TIP3    H242039   1.569   1.889   7.355 -0.5763 -0.0894 -0.2755
 6826TIP3   OH242040   2.394   5.962   7.495  0.2669  0.3970 -0.2993
 6826TIP3    H142041   2.339   5.891   7.463 -1.1732  1.2221  0.2816
 6826TIP3    H242042   2.434   5.999   7.416 -0.4365  0.1262 -0.7933
 6827TIP3   OH242043   0.197   5.778   7.350 -0.0342  0.1457  0.5841
 6827TIP3    H142044   0.126   5.715   7.345 -0.1923  0.3389  0.3556
 6827TIP3    H242045   0.276   5.728   7.329 -0.2555  0.1867 -0.3878
 6828TIP3   OH242046   6.473   5.932   0.042  0.1121 -0.7559 -0.0860
 6828TIP3    H142047   6.408   5.974   0.098  0.4770 -0.6927  0.2904
 6828TIP3    H242048   6.421   5.887  -0.025 -0.2892 -0.0136 -0.2791
 6829TIP3   OH242049   6.244   0.594   8.004  0.9847  0.4157  0.0793
 6829TIP3    H142050   6.291   0.600   7.920  2.2324 -2.0705  0.5024
 6829TIP3    H242051   6.163   0.547   7.983  0.8171  0.6903  0.1070
 6830TIP3   OH242052   2.870   0.129   6.884 -0.7390 -0.5154 -0.6108
 6830TIP3    H142053   2.925   0.053   6.902  0.0235  0.1766  0.0304
 6830TIP3    H242054   2.790   0.092   6.846 -0.6684 -1.6819  0.3391
 6831TIP3   OH242055   2.140   2.460   2.361  0.1607  0.2549  0.1044
 6831TIP3    H142056   2.051   2.491   2.339 -0.4747 -1.2634  0.4341
 6831TIP3    H242057   2.197   2.531   2.332 -1.1631  1.3004 -0.0691
 6832TIP3   OH242058   3.271   2.356   0.232 -0.0542  0.3386  0.1051
 6832TIP3    H142059   3.345   2.296   0.240  0.2514  0.5607 -0.8688
 6832TIP3    H242060   3.207   2.307   0.181 -0.5745  0.1615  0.9122
 6833TIP3   OH242061   3.693   2.501   0.881  0.1687  0.2469  0.5718
 6833TIP3    H142062   3.772   2.465   0.841  0.8536 -0.1524  2.2021
 6833TIP3    H242063   3.684   2.453   0.963 -0.1901  2.2123  1.7325
 6834TIP3   OH242064   3.364   1.220   0.392  0.7458  0.3663  0.0635
 6834TIP3    H142065   3.277   1.225   0.432  0.6275 -0.6725 -0.0389
 6834TIP3    H242066   3.347   1.221   0.297  0.8604  0.3308  0.0426
 6835TIP3   OH242067   1.612   6.132   1.675 -0.4549  0.9722  0.3064
 6835TIP3    H142068   1.595   6.038   1.664  0.6227  0.5770  1.6420
 6835TIP3    H242069   1.538   6.175   1.632 -0.7360 -0.4757 -0.7365
 6836TIP3   OH242070   4.644   3.763   7.451 -0.3057 -0.1320  0.5418
 6836TIP3    H142071   4.656   3.827   7.522 -1.7738 -0.5313  1.1889
 6836TIP3    H242072   4.715   3.701   7.463 -0.6614 -0.3269  1.8421
 6837TIP3   OH242073   6.513   6.369   8.592  0.6197 -0.0783  0.5523
 6837TIP3    H142074   6.453   6.302   8.560  1.1276 -0.1288 -0.3374
 6837TIP3    H242075   6.520   6.352   8.686 -1.7075  0.7007  0.9291
 6838TIP3   OH242076   5.448   5.560   8.539 -0.0715 -0.2003 -0.6334
 6838TIP3    H142077   5.476   5.470   8.520  0.1794 -0.1419 -0.5444
 6838TIP3    H242078   5.425   5.559   8.632  1.2773  0.1616 -0.2748
 6839TIP3   OH242079   5.762   0.446   7.143 -0.3565 -0.1455  0.5264
 6839TIP3    H142080   5.698   0.508   7.108 -1.3683 -0.4637  1.7131
 6839TIP3    H242081   5.830   0.441   7.077 -0.0844  2.4518  0.4978
 6840TIP3   OH242082   3.440   1.563   8.173  0.1537  0.4327 -0.1104
 6840TIP3    H142083   3.427   1.640   8.118  0.8329 -0.3225 -1.3980
 6840TIP3    H242084   3.440   1.596   8.262  0.9168  1.9972 -0.6516
 6841TIP3   OH242085   3.039   2.140   7.772 -0.5786 -0.3847  0.1412
 6841TIP3    H142086   3.096   2.088   7.829  2.1579  1.0131 -1.0966
 6841TIP3    H242087   3.064   2.113   7.683 -0.8316  1.2994 -0.4691
 6842TIP3   OH242088   3.524   0.029   8.518  0.8499 -0.1638  0.2277
 6842TIP3    H142089   3.607   0.057   8.480  0.7171 -0.8338 -0.5882
 6842TIP3    H242090   3.471   0.108   8.524  1.5499  0.2764  0.7876
 6843TIP3   OH242091   3.161   0.938   0.039 -0.1190 -0.4173  0.1557
 6843TIP3    H142092   3.239   0.913   0.089 -1.0220  0.5356  2.1081
 6843TIP3    H242093   3.114   0.855   0.026 -0.2929 -0.5802  1.6677
 6844TIP3   OH242094   1.501   6.654   0.380 -0.2130  0.5632  0.3305
 6844TIP3    H142095   1.406   6.651   0.392 -0.1981  1.2528  0.6806
 6844TIP3    H242096   1.521   6.578   0.325 -1.1880  1.3964 -1.2456
 6845TIP3   OH242097   2.413   6.781   7.634 -0.2340  0.1977 -0.5446
 6845TIP3    H142098   2.483   6.846   7.646  0.0208 -0.4001  1.6943
 6845TIP3    H242099   2.460   6.700   7.612  0.4146 -1.1660  4.4111
 6846TIP3   OH242100   6.041   4.069   1.510 -0.0996 -0.0841  0.8714
 6846TIP3    H142101   5.998   4.153   1.498 -0.9538 -0.7968 -1.7330
 6846TIP3    H242102   5.990   4.025   1.578 -0.4255  0.9965  1.3367
 6847TIP3   OH242103   3.699   5.502   1.225 -0.1412 -0.3711  0.0049
 6847TIP3    H142104   3.778   5.487   1.277 -0.2063 -0.0344  0.2038
 6847TIP3    H242105   3.671   5.415   1.198  0.3741 -0.4806 -0.1782
 6848TIP3   OH242106   3.526   0.468   2.571 -0.3087  0.0182  0.8419
 6848TIP3    H142107   3.452   0.504   2.619 -0.4874 -0.2627  0.7824
 6848TIP3    H242108   3.492   0.387   2.532 -0.3093  0.4736 -0.1464
 6849TIP3   OH242109   5.547   0.585   8.679  0.5186 -0.4142 -0.1836
 6849TIP3    H142110   5.479   0.588   8.612 -0.1973  0.4583  0.5447
 6849TIP3    H242111   5.536   0.499   8.720  1.9448 -1.6035 -2.1114
 6850TIP3   OH242112   1.029   0.721   0.977  0.0054  0.5417 -0.7996
 6850TIP3    H142113   1.043   0.708   0.883 -1.1919  2.1295 -1.2421
 6850TIP3    H242114   1.047   0.814   0.991 -0.1471  0.3987  0.5026
 6851TIP3   OH242115   5.273   1.876   6.689 -0.2270  0.1249 -0.1119
 6851TIP3    H142116   5.303   1.815   6.622  0.9433  1.3802 -0.7706
 6851TIP3    H242117   5.189   1.909   6.656 -0.7399 -0.9037  0.1279
 6852TIP3   OH242118   5.074   2.115   1.832  0.1670  0.0165 -0.1335
 6852TIP3    H142119   5.104   2.024   1.821  0.9817  0.3542 -0.7683
 6852TIP3    H242120   5.037   2.117   1.920  0.8216 -0.7510  0.1715
 6853TIP3   OH242121   2.262   4.961   1.077 -0.0258  0.4349  0.4937
 6853TIP3    H142122   2.294   4.882   1.032 -0.2259  1.0594 -0.8031
 6853TIP3    H242123   2.282   4.946   1.169  0.4321 -0.8954  0.2021
 6854TIP3   OH242124   4.951   6.254   1.436 -0.6580  0.4895 -0.1987
 6854TIP3    H142125   4.943   6.282   1.527  1.2441 -0.8096  0.4418
 6854TIP3    H242126   5.010   6.179   1.439 -1.5724 -0.4112 -2.3828
 6855TIP3   OH242127   2.044   2.234   7.520 -0.0106  0.3300  0.3141
 6855TIP3    H142128   2.016   2.250   7.430  2.6958  0.9965 -0.5117
 6855TIP3    H242129   1.982   2.168   7.553 -2.3768  1.6104 -1.2533
 6856TIP3   OH242130   4.456   5.558   0.221  0.6218  0.5000 -0.2259
 6856TIP3    H142131   4.504   5.544   0.140 -0.3961  1.0368 -0.9481
 6856TIP3    H242132   4.413   5.642   0.209 -0.1476  0.2353  0.5656
 6857TIP3   OH242133   5.319   3.048   1.881  0.2048  0.3813  0.3643
 6857TIP3    H142134   5.328   3.028   1.975 -1.2016  0.9752  0.6477
 6857TIP3    H242135   5.363   3.132   1.870 -0.1166  0.5870  0.6156
 6858TIP3   OH242136   5.993   0.299   1.964  0.0833 -0.5086 -0.1577
 6858TIP3    H142137   6.036   0.378   1.998 -1.7736  0.8729 -0.8950
 6858TIP3    H242138   6.065   0.248   1.926  1.0849  1.8836 -1.6739
 6859TIP3   OH242139   0.512   4.258   0.913  0.5785 -0.0607  0.0201
 6859TIP3    H142140   0.557   4.330   0.958 -0.6674  1.4611 -1.0837
 6859TIP3    H242141   0.424   4.291   0.896 -0.1982 -2.0611 -0.0775
 6860TIP3   OH242142   2.724   1.211   8.044 -0.5155  0.4685 -0.4804
 6860TIP3    H142143   2.762   1.290   8.082 -1.5212  0.9245 -0.3838
 6860TIP3    H242144   2.799   1.163   8.009 -0.0102  2.2673 -2.0418
 6861TIP3   OH242145   3.240   5.121   1.164  0.1971  0.0594  0.1722
 6861TIP3    H142146   3.240   5.217   1.153  0.4943  0.4318  2.8782
 6861TIP3    H242147   3.316   5.104   1.219 -0.1972 -1.7065  0.1975
 6862TIP3   OH242148   5.585   4.065   6.867  0.3435  0.0525 -0.2867
 6862TIP3    H142149   5.676   4.072   6.836  1.0141 -0.0172  1.5306
 6862TIP3    H242150   5.565   3.972   6.860  0.6493 -0.0300 -0.0932
 6863TIP3   OH242151   1.053   0.937   7.839 -0.9271  0.2226 -0.0676
 6863TIP3    H142152   1.120   1.001   7.862 -1.2151  1.0918 -1.5292
 6863TIP3    H242153   1.024   0.901   7.923  0.5627  0.6317  0.6537
 6864TIP3   OH242154   4.164   0.960   1.165  0.4187  0.2815 -0.3172
 6864TIP3    H142155   4.185   0.900   1.236 -1.5259 -0.1314 -0.0547
 6864TIP3    H242156   4.195   0.915   1.086  0.8196 -0.1326  0.0713
 6865TIP3   OH242157   5.354   5.594   1.049 -0.8328 -0.2204 -0.7108
 6865TIP3    H142158   5.355   5.521   0.986  0.6323  0.0844 -1.0778
 6865TIP3    H242159   5.441   5.631   1.043 -0.5781 -0.3009  1.6660
 6866TIP3   OH242160   6.541   4.259   7.022 -0.8514 -0.0890 -0.3834
 6866TIP3    H142161   6.469   4.284   7.080 -0.6118 -0.9784  0.3313
 6866TIP3    H242162   6.536   4.320   6.948 -1.9385  0.2567 -0.0338
 6867TIP3   OH242163   4.956   6.668   1.714 -0.1036 -0.5502 -0.3778
 6867TIP3    H142164   4.893   6.637   1.649  1.4335 -1.0437 -1.6834
 6867TIP3    H242165   5.004   6.737   1.669 -0.0953  0.2520  0.8104
 6868TIP3   OH242166   6.795   5.772   1.939  0.4108 -0.0514 -0.2503
 6868TIP3    H142167   6.786   5.862   1.908  1.8659  0.4812  0.7860
 6868TIP3    H242168   6.767   5.719   1.865  0.8103  1.2360 -1.3695
 6869TIP3   OH242169   1.574   1.203   7.496 -0.1806 -0.1593 -0.2877
 6869TIP3    H142170   1.661   1.243   7.500 -1.1843  2.1237  1.9977
 6869TIP3    H242171   1.586   1.114   7.530  1.2271  0.2491  0.3530
 6870TIP3   OH242172   0.052   6.151   0.633 -0.0115 -0.0762  0.0808
 6870TIP3    H142173  -0.003   6.100   0.575  0.7149 -2.3675  1.2841
 6870TIP3    H242174   0.130   6.171   0.581  0.4185 -1.6659  0.0891
 6871TIP3   OH242175   6.514   1.203   0.116  0.4638  0.0344 -0.4755
 6871TIP3    H142176   6.419   1.204   0.124  0.4475 -1.1094 -0.2739
 6871TIP3    H242177   6.530   1.192   0.022  0.4284  1.4697 -0.6591
 6872TIP3   OH242178   0.143   6.698   2.236  0.2470 -0.2230 -0.0148
 6872TIP3    H142179   0.228   6.724   2.271 -0.1016  0.0911  0.6222
 6872TIP3    H242180   0.098   6.781   2.218  0.0281 -0.3859 -0.2287
 6873TIP3   OH242181   2.139   2.680   8.575  0.8611 -0.2020 -0.2066
 6873TIP3    H142182   2.235   2.680   8.574  1.0014 -3.6864  0.8860
 6873TIP3    H242183   2.116   2.707   8.664  0.6520  2.5082 -0.9971
 6874TIP3   OH242184   4.737   0.277   8.544 -0.0297 -0.2182  0.0540
 6874TIP3    H142185   4.646   0.294   8.521 -0.3611 -0.8112  0.8665
 6874TIP3    H242186   4.785   0.353   8.511 -1.0145  0.7721  0.8402
 6875TIP3   OH242187   3.699   2.106   8.100  0.3272  0.6254 -0.4377
 6875TIP3    H142188   3.758   2.135   8.169 -0.8196  1.1548  0.3458
 6875TIP3    H242189   3.617   2.153   8.116 -0.7721 -1.1018 -0.6537
 6876TIP3   OH242190   4.125   4.221   0.488  0.6538  0.4614 -0.3760
 6876TIP3    H142191   4.047   4.167   0.471 -0.0179  1.7520 -1.5491
 6876TIP3    H242192   4.125   4.234   0.583 -0.1461 -0.1536 -0.2824
 6877TIP3   OH242193   0.444   6.580   7.849 -0.1372  0.6497  0.4582
 6877TIP3    H142194   0.526   6.564   7.802  0.0064  1.1550  0.5392
 6877TIP3    H242195   0.379   6.598   7.780 -0.6200 -1.5491  0.2569
 6878TIP3   OH242196   6.595   0.245   0.465 -0.2997 -0.2239  0.3864
 6878TIP3    H142197   6.677   0.214   0.503  0.2645 -0.5423 -1.0356
 6878TIP3    H242198   6.535   0.253   0.540  1.2881  0.9732  1.5918
 6879TIP3   OH242199   1.139   0.958   1.062 -0.2723 -0.4368 -0.1382
 6879TIP3    H142200   1.179   0.978   1.147 -1.6378 -0.2351  0.4831
 6879TIP3    H242201   1.096   1.040   1.037 -0.8040 -0.8189 -0.4888
 6880TIP3   OH242202   6.137   6.588   7.357 -0.1185 -0.1867  0.5341
 6880TIP3    H142203   6.182   6.671   7.367  0.2281 -0.5280  2.1736
 6880TIP3    H242204   6.124   6.578   7.263 -0.2408  1.7422  0.3068
 6881TIP3   OH242205   2.257   2.436   6.949  0.3907  0.3217 -0.4309
 6881TIP3    H142206   2.267   2.401   7.037  1.2880 -0.1434 -0.7020
 6881TIP3    H242207   2.214   2.365   6.900 -3.0328  1.6851  0.3151
 6882TIP3   OH242208   0.363   2.224   1.166  0.0296 -0.0812 -0.2157
 6882TIP3    H142209   0.428   2.204   1.098  0.4708  0.3832  0.0670
 6882TIP3    H242210   0.389   2.171   1.241  0.6853  0.8643  0.2393
 6883TIP3   OH242211   3.325   0.812   8.207 -0.3053  0.3395 -0.3426
 6883TIP3    H142212   3.402   0.863   8.232  0.5203 -0.6151 -0.8358
 6883TIP3    H242213   3.357   0.722   8.205 -0.9471  0.1125 -2.3956
 6884TIP3   OH242214   6.381   0.394   7.745 -0.3241 -0.2732 -0.3224
 6884TIP3    H142215   6.377   0.489   7.731 -0.1430 -0.5183 -2.3544
 6884TIP3    H242216   6.296   0.362   7.714 -0.6146 -0.7522  0.8932
 6885TIP3   OH242217   0.085   0.569   0.409  0.1389  0.5743 -0.1822
 6885TIP3    H142218   0.086   0.625   0.487  1.5816  1.2870 -0.6680
 6885TIP3    H242219   0.117   0.484   0.439  3.4358  1.5837 -0.4160
 6886TIP3   OH242220   6.277   1.141   0.612 -0.1159  0.0960 -0.1695
 6886TIP3    H142221   6.285   1.156   0.706  0.5988  2.1603 -0.5041
 6886TIP3    H242222   6.354   1.089   0.589 -0.6892 -1.0724  0.4802
 6887TIP3   OH242223   0.290   3.094   6.643 -0.1036 -0.4265 -0.5021
 6887TIP3    H142224   0.347   3.154   6.596  1.3212 -2.3162 -1.3314
 6887TIP3    H242225   0.205   3.137   6.645  0.9210  1.7146 -0.7747
 6888TIP3   OH242226   1.697   1.113   1.052  0.1666  0.5162  0.2628
 6888TIP3    H142227   1.732   1.044   0.997 -0.5384  1.5019 -1.5026
 6888TIP3    H242228   1.766   1.130   1.116 -0.3205 -3.0215  2.0001
 6889TIP3   OH242229   5.548   1.581   8.009  0.7084 -0.0416  0.7250
 6889TIP3    H142230   5.623   1.522   8.019  0.8793 -0.6277 -2.8333
 6889TIP3    H242231   5.586   1.664   7.980  0.1627  0.7908  2.2369
 6890TIP3   OH242232   0.801   5.697   0.362 -0.5068 -0.7183  0.5704
 6890TIP3    H142233   0.810   5.652   0.446 -3.5028 -1.7339  0.4817
 6890TIP3    H242234   0.791   5.789   0.385 -0.2261 -0.8521  1.2545
 6891TIP3   OH242235   1.120   0.299   8.244 -0.3169  0.3230  0.0431
 6891TIP3    H142236   1.120   0.394   8.249  0.7822  0.3182  0.3767
 6891TIP3    H242237   1.110   0.279   8.150  3.1934  0.8565 -0.5500
 6892TIP3   OH242238   3.109   0.103   8.403  0.1019  0.0798  0.5287
 6892TIP3    H142239   3.151   0.058   8.476  0.8961 -0.8123 -0.4433
 6892TIP3    H242240   3.179   0.154   8.362  0.7783 -2.6432 -2.0594
 6893TIP3   OH242241   5.748   0.268   6.823  0.1029 -0.2516 -0.4051
 6893TIP3    H142242   5.782   0.219   6.748  0.7294 -1.8236  0.8487
 6893TIP3    H242243   5.821   0.324   6.850  0.5076 -0.9738  0.0613
 6894TIP3   OH242244   3.160   5.426   8.451  0.6360  0.3893  0.5378
 6894TIP3    H142245   3.086   5.382   8.408 -0.6385  2.2090  0.7181
 6894TIP3    H242246   3.234   5.413   8.391 -0.3422  0.2462 -0.6841
 6895TIP3   OH242247   5.463   5.571   7.502  0.0921 -0.0405 -0.1684
 6895TIP3    H142248   5.492   5.487   7.536 -0.8250  0.0924  0.9771
 6895TIP3    H242249   5.450   5.626   7.579  0.3081  1.0460 -0.8729
 6896TIP3   OH242250   4.837   0.827   8.044  0.6294  0.7712 -0.4610
 6896TIP3    H142251   4.885   0.823   8.127 -0.3731 -0.3074  0.0960
 6896TIP3    H242252   4.848   0.740   8.005  0.8897  1.1914 -1.3634
 6897TIP3   OH242253   5.250   1.295   8.812 -0.0098 -0.8922  0.5366
 6897TIP3    H142254   5.197   1.320   8.736  1.2590 -0.3181 -0.1969
 6897TIP3    H242255   5.215   1.210   8.839  1.3895 -2.6482 -2.5797
 6898TIP3   OH242256   3.211   0.919   0.368  0.1692 -0.1317 -0.0190
 6898TIP3    H142257   3.161   0.858   0.315  0.5676  0.8693 -1.6229
 6898TIP3    H242258   3.202   0.887   0.458 -0.9922 -1.5555 -0.6156
 6899TIP3   OH242259   5.892   1.855   1.235 -0.0056 -0.4549 -0.0246
 6899TIP3    H142260   5.865   1.944   1.212  0.0499  0.0048  1.5754
 6899TIP3    H242261   5.884   1.851   1.330  2.6198 -1.2773  0.2418
 6900TIP3   OH242262   3.412   1.490   0.526  0.0568  0.3436  0.2028
 6900TIP3    H142263   3.424   1.483   0.620  0.1636  0.4446  0.1983
 6900TIP3    H242264   3.412   1.400   0.494  0.3573  0.3219  0.2599
 6901TIP3   OH242265   4.787   6.611   1.163  0.1104  0.6129 -0.6522
 6901TIP3    H142266   4.772   6.560   1.242  0.3513  0.6781 -0.5641
 6901TIP3    H242267   4.747   6.696   1.181  1.0075  0.9635 -0.2176
 6902TIP3   OH242268   6.622   4.438   0.372 -0.0072 -0.1152  0.2668
 6902TIP3    H142269   6.619   4.506   0.305 -1.7190 -0.1910  0.2057
 6902TIP3    H242270   6.668   4.365   0.331  1.0928  0.6771  0.0391
 6903TIP3   OH242271   4.790   4.903   7.351 -0.0790  0.2557 -0.0680
 6903TIP3    H142272   4.706   4.904   7.396  0.6708 -0.7270  1.4181
 6903TIP3    H242273   4.825   4.992   7.364 -0.6330  0.4964 -0.2108
 6904TIP3   OH242274   5.899   1.562   7.115  0.3386 -0.0786 -0.3187
 6904TIP3    H142275   5.811   1.584   7.085  0.0655  0.0373  0.5410
 6904TIP3    H242276   5.945   1.645   7.118  0.3765 -0.0949 -0.4579
 6905TIP3   OH242277   3.061   4.117   1.303  0.1257 -0.7762 -0.0791
 6905TIP3    H142278   3.016   4.201   1.293  1.4477 -0.2252 -1.8589
 6905TIP3    H242279   3.116   4.128   1.381 -0.3109 -0.3076  0.1688
 6906TIP3   OH242280   1.278   1.021   1.297 -0.1536 -0.3138  0.4634
 6906TIP3    H142281   1.310   1.058   1.379 -0.5661 -1.7626  1.2930
 6906TIP3    H242282   1.320   0.935   1.291 -0.1815 -0.2597 -0.8132
 6907TIP3   OH242283   6.083   3.512   8.222 -0.0429 -0.3636  0.5195
 6907TIP3    H142284   6.080   3.587   8.163  0.9602 -0.8460 -0.1700
 6907TIP3    H242285   5.992   3.502   8.252 -0.2999  0.7630  0.1875
 6908TIP3   OH242286   0.038   2.271   8.553 -0.1439 -0.0617  0.1671
 6908TIP3    H142287   0.008   2.199   8.498  1.3766 -0.4351 -0.2041
 6908TIP3    H242288   0.094   2.229   8.619  3.0268  0.9748 -1.6639
 6909TIP3   OH242289   0.679   1.770   0.094 -0.1883  0.0933  0.0618
 6909TIP3    H142290   0.637   1.746   0.012  0.7759 -0.6450 -0.2424
 6909TIP3    H242291   0.766   1.729   0.089 -0.2233 -0.2387  1.5697
 6910TIP3   OH242292   2.368   2.711   0.536  0.4684 -0.4117 -0.2087
 6910TIP3    H142293   2.455   2.698   0.573  0.8881  1.1521 -0.5587
 6910TIP3    H242294   2.334   2.788   0.582  0.2732  0.4636 -1.7305
 6911TIP3   OH242295   4.465   2.500   2.133  0.1570  0.1224 -0.1470
 6911TIP3    H142296   4.540   2.471   2.185  0.1539 -1.2665 -0.8738
 6911TIP3    H242297   4.393   2.444   2.163 -1.2779  2.9392  2.2232
 6912TIP3   OH242298   5.518   1.498   0.520  0.1343  0.7466 -0.5094
 6912TIP3    H142299   5.463   1.564   0.479  0.2598  0.6413 -0.8478
 6912TIP3    H242300   5.459   1.425   0.538 -0.1136  1.1384  0.3218
 6913TIP3   OH242301   2.788   1.920   7.860 -0.5493 -0.0413 -0.3650
 6913TIP3    H142302   2.784   2.005   7.818  0.4918 -1.2158 -3.0497
 6913TIP3    H242303   2.876   1.916   7.898 -1.1454  0.6249  1.1941
 6914TIP3   OH242304   2.120   4.283   7.837  0.0796  0.1384 -0.5020
 6914TIP3    H142305   2.121   4.377   7.819  0.0307  0.0715 -0.8767
 6914TIP3    H242306   2.034   4.254   7.806 -0.5852  0.2554  1.1434
 6915TIP3   OH242307   4.723   5.860   2.155 -0.2417 -0.9795 -0.4438
 6915TIP3    H142308   4.792   5.922   2.176 -0.4264 -0.6201 -0.8725
 6915TIP3    H242309   4.760   5.807   2.084  0.4275 -2.2683  0.8078
 6916TIP3   OH242310   6.532   2.156   0.738 -0.2158  0.3437  0.5097
 6916TIP3    H142311   6.589   2.218   0.784 -0.0164 -0.1599  0.9547
 6916TIP3    H242312   6.573   2.070   0.753 -0.6941  0.0613  0.2194
 6917TIP3   OH242313   5.552   6.464   8.793  0.1425 -0.4769  0.0067
 6917TIP3    H142314   5.470   6.462   8.742  1.5029 -2.5264 -2.3384
 6917TIP3    H242315   5.592   6.548   8.771 -0.8713  0.1215  0.4057
 6918TIP3   OH242316   5.959   2.843   7.963 -0.0229 -0.4805  0.7276
 6918TIP3    H142317   6.038   2.847   7.909 -0.9613 -0.2688 -0.6724
 6918TIP3    H242318   5.892   2.809   7.904 -1.5827  1.7029  1.1551
 6919TIP3   OH242319   1.620   3.291   8.811 -0.5578 -0.3052  0.3805
 6919TIP3    H142320   1.548   3.293   8.749  0.8277 -2.3965 -1.4565
 6919TIP3    H242321   1.694   3.330   8.764  0.4944 -1.8142  0.6819
 6920TIP3   OH242322   0.798   2.847   0.341  0.6744 -0.4184 -0.1013
 6920TIP3    H142323   0.723   2.902   0.320  0.4088 -0.8541 -0.3134
 6920TIP3    H242324   0.835   2.885   0.421  0.7115  0.2767 -0.4489
 6921TIP3   OH242325   1.555   2.726   7.908  0.4369  0.0682 -0.7620
 6921TIP3    H142326   1.515   2.656   7.857  2.5284 -0.9183 -1.1486
 6921TIP3    H242327   1.648   2.703   7.912  0.3599 -0.4900  4.2978
 6922TIP3   OH242328   4.434   5.537   7.616  0.2723  0.2641 -0.2864
 6922TIP3    H142329   4.489   5.538   7.538 -0.1306  2.3766 -0.5976
 6922TIP3    H242330   4.485   5.583   7.682 -0.3731  0.6630 -0.0499
 6923TIP3   OH242331   0.340   3.675   7.200 -0.4550 -0.2240  0.0967
 6923TIP3    H142332   0.410   3.653   7.262 -0.2168 -0.3842 -0.2304
 6923TIP3    H242333   0.285   3.737   7.248  0.2308  0.3485  0.1495
 6924TIP3   OH242334   5.379   5.757   0.425 -0.2707 -0.3316  0.2038
 6924TIP3    H142335   5.425   5.673   0.418  1.6767  0.8014 -2.5338
 6924TIP3    H242336   5.287   5.733   0.434  0.2079 -2.7885 -0.6085
 6925TIP3   OH242337   4.414   0.621   8.649 -0.4179  0.0666 -0.1531
 6925TIP3    H142338   4.503   0.636   8.620 -0.7682 -0.6734 -1.6616
 6925TIP3    H242339   4.378   0.709   8.661  0.0410  0.3835 -1.0343
 6926TIP3   OH242340   6.512   0.418   0.246 -0.3573  0.0032 -0.2658
 6926TIP3    H142341   6.562   0.428   0.165 -0.0297  0.4720 -0.0169
 6926TIP3    H242342   6.575   0.381   0.309 -0.0193  1.4599  0.3111
 6927TIP3   OH242343   3.812   1.607   7.139  0.3628 -0.2761  0.3386
 6927TIP3    H142344   3.826   1.569   7.053 -0.0994  0.0654  0.1093
 6927TIP3    H242345   3.742   1.671   7.127  0.9687  0.4904  0.7618
 6928TIP3   OH242346   1.031   3.157   0.109 -0.2151  0.4567 -0.3498
 6928TIP3    H142347   0.945   3.127   0.081 -0.1958  1.3595 -1.4577
 6928TIP3    H242348   1.090   3.086   0.083 -0.3340  0.8443 -1.7528
 6929TIP3   OH242349   4.228   0.090   0.348  0.0241 -0.4031 -0.7012
 6929TIP3    H142350   4.197   0.002   0.324 -0.9010 -0.1942 -0.3223
 6929TIP3    H242351   4.155   0.148   0.324  0.5379  0.2408 -0.7375
 6930TIP3   OH242352   2.464   0.226   0.438  0.0714 -0.0651  0.4886
 6930TIP3    H142353   2.414   0.296   0.396  1.1595  1.0481  1.0000
 6930TIP3    H242354   2.418   0.210   0.520  0.2422  0.5882  0.7168
 6931TIP3   OH242355   4.602   1.009   8.124  0.6470  0.0695 -0.2073
 6931TIP3    H142356   4.696   1.003   8.106  0.3805 -1.4989 -1.2665
 6931TIP3    H242357   4.591   0.964   8.208  0.6647 -1.1777 -0.8492
 6932TIP3   OH242358   5.294   2.482   8.704  0.0456  0.3055 -0.4631
 6932TIP3    H142359   5.227   2.427   8.744  0.8459 -0.0690  0.3949
 6932TIP3    H242360   5.347   2.513   8.777  1.7577 -0.6777 -1.2315
 6933TIP3   OH242361   0.964   3.687   7.376 -0.4172 -0.5055  0.0703
 6933TIP3    H142362   0.923   3.770   7.352 -2.5563 -1.4610  0.1639
 6933TIP3    H242363   0.974   3.692   7.471  0.0658 -0.1274  0.0071
 6934TIP3   OH242364   5.264   0.660   7.140 -0.1702 -0.3119 -0.2115
 6934TIP3    H142365   5.206   0.598   7.184  0.9625 -0.2353  1.4674
 6934TIP3    H242366   5.257   0.740   7.192 -3.8208  2.1714 -3.8708
 6935TIP3   OH242367   6.300   5.332   1.023  0.6410  0.7294 -0.0269
 6935TIP3    H142368   6.301   5.297   0.935  0.6027  1.0296 -0.1491
 6935TIP3    H242369   6.324   5.259   1.079  1.0080  0.6296 -0.3172
 6936TIP3   OH242370   5.442   0.928   7.016  0.1286 -0.1833  0.3154
 6936TIP3    H142371   5.392   0.862   6.968 -2.7311  2.1527 -0.1910
 6936TIP3    H242372   5.429   1.009   6.966  2.6081  1.0301  1.4821
 6937TIP3   OH242373   5.265   3.155   0.608 -0.0665 -0.1378  1.0185
 6937TIP3    H142374   5.203   3.109   0.551  3.0730 -3.1020 -0.3823
 6937TIP3    H242375   5.250   3.248   0.591 -2.3831 -0.8079 -1.1373
 6938TIP3   OH242376   4.895   5.677   8.645 -0.5481 -0.5290  0.0828
 6938TIP3    H142377   4.818   5.724   8.678  0.8251  1.4585  0.6825
 6938TIP3    H242378   4.884   5.677   8.550 -0.6198  1.0802  0.0552
 6939TIP3   OH242379   3.520   0.932   7.319  0.1033  0.2593  0.0803
 6939TIP3    H142380   3.455   0.953   7.252  0.4975 -0.4242 -0.5203
 6939TIP3    H242381   3.592   0.890   7.271 -0.4611 -2.0987  1.1763
 6940TIP3   OH242382   3.422   2.588   1.190  0.3238 -0.2825  0.2738
 6940TIP3    H142383   3.330   2.564   1.187 -0.2366  1.7896 -1.7208
 6940TIP3    H242384   3.469   2.504   1.184 -1.4483 -1.2276 -1.2088
 6941TIP3   OH242385   4.026   2.784   6.976  0.0939 -0.7502  0.0642
 6941TIP3    H142386   4.114   2.777   7.012  1.0723  2.2516 -1.3446
 6941TIP3    H242387   4.030   2.735   6.893  1.0241  0.6684 -0.7809
 6942TIP3   OH242388   3.224   1.750   1.823  0.1151  0.0682 -0.1599
 6942TIP3    H142389   3.269   1.692   1.762 -1.1016 -0.8224 -0.2306
 6942TIP3    H242390   3.231   1.706   1.908 -0.5397 -0.0316 -0.1559
 6943TIP3   OH242391   5.622   3.353   0.943 -0.0529  0.0678 -0.6327
 6943TIP3    H142392   5.706   3.345   0.898 -0.0045 -0.9582 -0.3809
 6943TIP3    H242393   5.643   3.398   1.025  0.4708 -1.2301 -0.0304
 6944TIP3   OH242394   5.388   0.614   1.196  0.2136 -0.0582 -0.0590
 6944TIP3    H142395   5.344   0.593   1.114 -1.3602 -1.4508  1.0646
 6944TIP3    H242396   5.431   0.532   1.222  0.9240  0.4378  0.3914
 6945TIP3   OH242397   4.727   4.572   0.307  0.0654 -0.0929  0.4492
 6945TIP3    H142398   4.767   4.601   0.225  0.9309 -0.0938  0.8611
 6945TIP3    H242399   4.644   4.532   0.280  0.1760  0.2159 -0.3900
 6946TIP3   OH242400   0.411   1.395   7.041 -0.0788 -0.8859  0.4884
 6946TIP3    H142401   0.383   1.478   7.080  0.3427 -0.8469  0.7127
 6946TIP3    H242402   0.390   1.404   6.948 -1.1544 -1.0026  0.6956
 6947TIP3   OH242403   6.155   4.505   0.230 -0.2586 -0.2511 -0.1568
 6947TIP3    H142404   6.235   4.523   0.180 -0.8191  1.9690 -0.3580
 6947TIP3    H242405   6.166   4.555   0.311 -0.5048 -1.7169  0.8224
 6948TIP3   OH242406   0.484   5.444   0.734  0.6408 -0.0914 -0.1623
 6948TIP3    H142407   0.546   5.517   0.744  1.1858 -0.5902  0.2482
 6948TIP3    H242408   0.531   5.369   0.772  0.8197 -1.0563 -2.1803
 6949TIP3   OH242409   1.969   6.634   0.997  0.1311  0.0097  0.4551
 6949TIP3    H142410   1.988   6.726   1.013  0.5762 -0.1918  1.1061
 6949TIP3    H242411   1.953   6.597   1.084  0.5354 -0.6568  0.2538
 6950TIP3   OH242412   4.557   4.754   1.015  0.1795 -0.1787 -0.2900
 6950TIP3    H142413   4.557   4.776   1.108 -1.3958  1.1662 -0.5621
 6950TIP3    H242414   4.560   4.658   1.013  2.7065 -0.2193  1.0482
 6951TIP3   OH242415   1.327   6.625   7.793 -0.0591  0.2812 -0.7964
 6951TIP3    H142416   1.305   6.543   7.749 -4.3714  0.2281  0.9738
 6951TIP3    H242417   1.370   6.599   7.874  0.3150 -0.1120 -1.1221
 6952TIP3   OH242418   3.457   3.919   0.108  0.5065 -0.1129 -0.4539
 6952TIP3    H142419   3.485   3.850   0.048 -1.0955 -1.1387 -0.0760
 6952TIP3    H242420   3.367   3.897   0.130  0.4023  1.3565  0.7675
 6953TIP3   OH242421   4.228   0.250   8.771 -0.1920 -0.5255 -0.2694
 6953TIP3    H142422   4.244   0.191   8.698 -0.6447  0.4391 -1.1780
 6953TIP3    H242423   4.138   0.231   8.798 -0.6263  0.2834 -1.0952
 6954TIP3   OH242424   3.248   4.269   6.733  0.1866 -0.1029  0.4630
 6954TIP3    H142425   3.238   4.276   6.639 -0.1146 -0.1793  0.4883
 6954TIP3    H242426   3.323   4.324   6.754  0.3843 -0.2507  0.1531
 6955TIP3   OH242427   5.300   2.870   1.326  0.0419  0.4002 -0.1713
 6955TIP3    H142428   5.284   2.831   1.240  0.3652  0.3135 -0.1934
 6955TIP3    H242429   5.303   2.964   1.309 -2.2617  0.5893  0.1127
 6956TIP3   OH242430   1.511   4.539   6.930  0.3854  0.4942 -0.2896
 6956TIP3    H142431   1.472   4.574   7.010 -0.5521 -2.2383  0.5377
 6956TIP3    H242432   1.604   4.528   6.951  0.3078  0.5947  0.1124
 6957TIP3   OH242433   1.331   1.128   1.790  0.4322  0.5189  0.4769
 6957TIP3    H142434   1.275   1.200   1.819  0.1851  0.6718 -0.3571
 6957TIP3    H242435   1.367   1.091   1.871 -0.1132  1.0343  0.9598
 6958TIP3   OH242436   3.518   3.801   7.674 -0.0461 -0.3823 -0.0249
 6958TIP3    H142437   3.434   3.808   7.629 -0.0500 -0.4895 -0.0338
 6958TIP3    H242438   3.511   3.723   7.728  0.0065 -0.3278  0.0625
 6959TIP3   OH242439   5.622   1.938   8.789 -0.5241  0.9149 -0.1910
 6959TIP3    H142440   5.533   1.905   8.792 -1.0539  2.2536 -0.3136
 6959TIP3    H242441   5.676   1.862   8.769 -1.6782  0.1644 -0.5006
 6960TIP3   OH242442   5.295   5.041   0.126 -0.1181  0.0242 -0.2028
 6960TIP3    H142443   5.260   4.983   0.193 -0.0607  0.5392  0.2823
 6960TIP3    H242444   5.231   5.111   0.118 -0.5199 -0.4467 -1.2758
 6961TIP3   OH242445   4.889   5.184   0.316 -0.2362 -0.3165 -0.0792
 6961TIP3    H142446   4.923   5.197   0.405 -1.5149 -1.1923  0.5761
 6961TIP3    H242447   4.818   5.248   0.308 -1.9201 -2.0104  0.5781
 6962TIP3   OH242448   3.891   5.934   7.785 -0.0180 -0.1649  0.0354
 6962TIP3    H142449   3.839   5.909   7.709  1.9556 -1.2002 -1.0566
 6962TIP3    H242450   3.980   5.944   7.751  0.9338 -0.6832  2.2021
 6963TIP3   OH242451   0.766   2.116   0.440  0.4999 -0.0247 -0.3262
 6963TIP3    H142452   0.702   2.076   0.381 -0.4609  0.4049  0.3917
 6963TIP3    H242453   0.816   2.042   0.475 -0.6453 -0.5398  0.2913
 6964TIP3   OH242454   0.922   0.034   8.417 -0.3237  0.1324 -0.1111
 6964TIP3    H142455   0.973  -0.032   8.463  2.2660  2.8955  1.3096
 6964TIP3    H242456   0.870   0.077   8.486  0.9798  2.0417 -0.2386
 6965TIP3   OH242457   5.995   0.700   6.194  0.0698 -0.3884  0.1572
 6965TIP3    H142458   6.078   0.655   6.210 -0.1648 -1.1271 -0.6025
 6965TIP3    H242459   5.969   0.672   6.106 -0.5651  0.5042  0.0421
 6966TIP3   OH242460   4.929   6.425   0.994 -0.1829 -0.0448  0.1341
 6966TIP3    H142461   4.975   6.356   1.041  0.2288  0.3097  0.2551
 6966TIP3    H242462   4.885   6.475   1.061 -0.2298 -0.0064  0.0749
 6967TIP3   OH242463   0.497   5.182   2.170 -0.4175  0.1477 -0.5152
 6967TIP3    H142464   0.451   5.115   2.221  0.2416 -0.8115 -1.1281
 6967TIP3    H242465   0.449   5.262   2.186 -1.6321 -0.6062 -0.2625
 6968TIP3   OH242466   5.120   3.942   2.106  0.2543  0.1848  0.0240
 6968TIP3    H142467   5.157   3.996   2.036  3.4635 -0.1670  1.2699
 6968TIP3    H242468   5.164   3.972   2.185 -0.5152 -1.8687  1.3175
 6969TIP3   OH242469   4.937   4.107   6.912 -0.0400 -0.0732 -0.0455
 6969TIP3    H142470   4.995   4.080   6.983  0.4307  0.2424 -0.3036
 6969TIP3    H242471   4.961   4.199   6.895 -1.5585  0.5137  0.7872
 6970TIP3   OH242472   0.159   0.475   0.972 -0.2369 -0.0245 -0.1617
 6970TIP3    H142473   0.214   0.515   0.905 -0.9470 -0.4865 -1.0561
 6970TIP3    H242474   0.220   0.433   1.033  0.4051 -1.5654 -1.7796
 6971TIP3   OH242475   0.247   6.687   7.318 -0.2082  0.6015  0.2835
 6971TIP3    H142476   0.281   6.756   7.261  0.3481 -0.9165 -1.3038
 6971TIP3    H242477   0.235   6.730   7.403  0.0455  2.6483 -0.6609
 6972TIP3   OH242478   3.114   5.312   2.461  0.2755  0.6170  0.0117
 6972TIP3    H142479   3.146   5.395   2.496 -0.3300  0.5936  0.6386
 6972TIP3    H242480   3.118   5.251   2.535  0.9884 -0.0001 -0.5147
 6973TIP3   OH242481   1.570   2.971   0.435  0.0371  0.4046  0.2860
 6973TIP3    H142482   1.570   3.040   0.368 -1.1024 -1.7815 -2.1088
 6973TIP3    H242483   1.662   2.947   0.444  0.4061  1.9281  0.8748
 6974TIP3   OH242484   3.491   3.687   6.005  0.2034  0.2901 -0.5768
 6974TIP3    H142485   3.560   3.753   6.006  1.0911 -0.6301  0.1645
 6974TIP3    H242486   3.413   3.734   6.036  0.8725  0.9506  0.1454
 6975TIP3   OH242487   3.622   2.136   1.837  0.3177  0.0722 -0.2810
 6975TIP3    H142488   3.608   2.214   1.784 -0.1250  0.7568  0.8115
 6975TIP3    H242489   3.717   2.120   1.831  0.7660  1.8945  1.0641
 6976TIP3   OH242490   1.425   1.132   1.056  0.4147 -0.3298  0.3850
 6976TIP3    H142491   1.519   1.115   1.065  0.3022 -1.2269  0.0298
 6976TIP3    H242492   1.388   1.101   1.139  0.6069  1.6018  1.2308
 6977TIP3   OH242493   5.919   0.435   6.629  0.5075 -0.6963 -0.3778
 6977TIP3    H142494   5.981   0.460   6.561  1.8367 -1.2996  0.5640
 6977TIP3    H242495   5.918   0.511   6.688  0.2096 -0.6236 -0.4731
 6978TIP3   OH242496   2.250   2.707   7.497  1.0103 -0.0837 -0.2021
 6978TIP3    H142497   2.213   2.619   7.490  0.0478  0.1551  1.4279
 6978TIP3    H242498   2.199   2.760   7.435 -0.1824 -0.1359  0.7196
 6979TIP3   OH242499   6.598   3.890   7.240  0.6844 -0.1209 -0.1351
 6979TIP3    H142500   6.558   3.933   7.316  0.5280  0.0061 -0.2896
 6979TIP3    H242501   6.553   3.805   7.234 -1.4885  1.0621 -1.9056
 6980TIP3   OH242502   3.857   3.069   7.463  0.1165  0.0825 -0.8294
 6980TIP3    H142503   3.934   3.116   7.431  0.8256 -0.7880 -0.4630
 6980TIP3    H242504   3.792   3.077   7.393  1.1703 -0.6811 -1.9389
 6981TIP3   OH242505   4.151   4.529   8.747 -0.4594 -0.3726  0.2014
 6981TIP3    H142506   4.135   4.442   8.710  2.7351 -1.0838  0.1911
 6981TIP3    H242507   4.226   4.517   8.805  1.9087  2.7743 -1.8492
 6982TIP3   OH242508   3.657   0.013   0.003  0.2814  0.3938 -0.1421
 6982TIP3    H142509   3.658  -0.060   0.065  3.0341  1.0101  0.6837
 6982TIP3    H242510   3.665  -0.028  -0.083  1.4550 -0.3489  0.2931
 6983TIP3   OH242511   5.837   2.293   0.626  0.1773  0.1410 -0.4992
 6983TIP3    H142512   5.874   2.218   0.580  0.0897  0.1600 -0.6004
 6983TIP3    H242513   5.769   2.256   0.682  0.1970  0.1331 -0.4810
 6984TIP3   OH242514   4.663   4.165   6.072 -0.4665  0.3622 -0.1785
 6984TIP3    H142515   4.672   4.260   6.065 -0.2663  0.3066 -0.7035
 6984TIP3    H242516   4.646   4.136   5.983  2.7411 -0.4344 -0.6699
 6985TIP3   OH242517   5.810   2.129   5.810 -0.4697 -0.2356 -0.1202
 6985TIP3    H142518   5.754   2.052   5.814  0.7761 -1.2610 -1.6275
 6985TIP3    H242519   5.758   2.194   5.762 -0.2894 -1.2945 -1.8290
 6986TIP3   OH242520   5.071   3.830   7.277 -0.0411 -0.0432  0.5351
 6986TIP3    H142521   5.108   3.819   7.364 -0.4455 -2.0907  0.5041
 6986TIP3    H242522   5.145   3.854   7.222  0.9825 -2.3341  0.8013
 6987TIP3   OH242523   3.775   2.022   0.305 -0.4082 -0.0136 -0.2719
 6987TIP3    H142524   3.770   1.927   0.295  1.3204 -0.1451 -0.1391
 6987TIP3    H242525   3.801   2.053   0.219  1.1818  0.1206  0.2398
 6988TIP3   OH242526   5.610   5.693   0.941  0.1175 -0.3497 -0.5649
 6988TIP3    H142527   5.555   5.732   0.874  1.3481 -1.2482 -2.1568
 6988TIP3    H242528   5.668   5.763   0.969 -0.2356 -0.0380 -0.6002
 6989TIP3   OH242529   1.272   1.355   7.924  0.0292 -0.0778 -0.5453
 6989TIP3    H142530   1.179   1.354   7.903  0.2382  1.9418 -1.9148
 6989TIP3    H242531   1.286   1.440   7.965  1.1205 -0.7571  0.5480
 6990TIP3   OH242532   3.693   3.285   1.424  0.1724 -0.5071  0.5435
 6990TIP3    H142533   3.697   3.379   1.443  2.1366 -0.0702 -1.6105
 6990TIP3    H242534   3.766   3.248   1.473  2.9119  0.0630 -2.7388
 6991TIP3   OH242535   1.922   3.954   0.113  0.0518  0.6093 -0.1788
 6991TIP3    H142536   1.884   3.882   0.064  0.7879  2.0959 -3.1366
 6991TIP3    H242537   1.847   4.009   0.137 -0.2940 -0.0316  0.2433
 6992TIP3   OH242538   4.795   2.989   7.596 -0.5246  0.0499  0.3178
 6992TIP3    H142539   4.854   2.916   7.615 -1.3317 -1.0279 -1.0721
 6992TIP3    H242540   4.786   3.035   7.679  1.9947  0.0889  0.6519
 6993TIP3   OH242541   6.150   0.629   0.302 -0.3820 -0.1528 -0.0902
 6993TIP3    H142542   6.233   0.609   0.346 -0.7470  0.7048  1.0060
 6993TIP3    H242543   6.133   0.720   0.323 -1.2922 -0.1331 -0.8526
 6994TIP3   OH242544   0.122   1.330   0.610 -0.2063  0.0545  0.0325
 6994TIP3    H142545   0.129   1.297   0.520 -2.7158  0.1168 -0.2497
 6994TIP3    H242546   0.129   1.252   0.665  0.2053 -0.1206 -0.2585
 6995TIP3   OH242547   4.321   4.886   6.967  0.2601 -0.3384 -0.5881
 6995TIP3    H142548   4.385   4.827   7.006 -0.3573 -1.3374 -1.0568
 6995TIP3    H242549   4.294   4.943   7.039  3.4411  1.8041 -0.8548
 6996TIP3   OH242550   5.804   0.279   8.592 -0.0704 -0.4296 -0.0296
 6996TIP3    H142551   5.815   0.263   8.686  2.2215  0.9945  0.0394
 6996TIP3    H242552   5.736   0.218   8.564 -0.1980 -1.4836  2.3825
 6997TIP3   OH242553   3.903   1.150   0.023 -0.0910  0.0310 -0.2027
 6997TIP3    H142554   3.848   1.149   0.101 -0.7780  1.5114 -0.6204
 6997TIP3    H242555   3.871   1.224  -0.028  2.0062  0.6805 -0.6938
 6998TIP3   OH242556   1.117   5.309   7.156 -0.2096  0.0053 -0.6572
 6998TIP3    H142557   1.142   5.394   7.120  1.0681 -0.4145 -0.8255
 6998TIP3    H242558   1.109   5.251   7.080  0.1466 -0.3125 -0.4597
 6999TIP3   OH242559   6.657   4.695   1.042 -0.0501 -0.3405 -0.2817
 6999TIP3    H142560   6.726   4.733   1.097 -1.4344  0.9216  0.6720
 6999TIP3    H242561   6.576   4.734   1.076 -1.3972 -2.8213 -0.4278
 7000TIP3   OH242562   3.518   2.514   6.808 -0.1360  0.7246 -0.7117
 7000TIP3    H142563   3.613   2.500   6.808 -0.2555 -0.4062  1.2472
 7000TIP3    H242564   3.481   2.428   6.787 -0.7311  0.5220  1.0098
 7001TIP3   OH242565   4.059   1.759   7.472 -0.3265  0.3614 -0.5876
 7001TIP3    H142566   4.097   1.772   7.385 -2.0592  0.4641 -1.3865
 7001TIP3    H242567   3.983   1.703   7.457 -0.6477  0.3520  0.8781
 7002TIP3   OH242568   4.439   5.742   8.509  0.0836 -0.2950 -0.8538
 7002TIP3    H142569   4.349   5.732   8.478 -0.2746 -0.6433  0.2451
 7002TIP3    H242570   4.474   5.653   8.508 -0.4305 -0.5665  1.1239
 7003TIP3   OH242571   1.186   1.477   7.536 -0.2091 -0.0179  0.4545
 7003TIP3    H142572   1.183   1.520   7.450  1.5004 -0.1580  0.2899
 7003TIP3    H242573   1.279   1.456   7.548 -0.7770 -2.2095  1.2673
 7004TIP3   OH242574   4.438   6.316   1.961  0.4369 -0.1551  1.1394
 7004TIP3    H142575   4.531   6.302   1.978  0.2878 -0.6801  1.5390
 7004TIP3    H242576   4.393   6.255   2.020 -0.1787  0.6939  1.5752
 7005TIP3   OH242577   4.271   2.693   6.860  0.4248 -0.0950  0.4132
 7005TIP3    H142578   4.265   2.694   6.764  0.1543  1.0870  0.4294
 7005TIP3    H242579   4.313   2.776   6.882 -0.2000 -0.0170  1.3616
 7006TIP3   OH242580   2.408   1.602   0.051 -0.7025  0.2154  0.0577
 7006TIP3    H142581   2.338   1.635  -0.005 -1.4116 -2.6915 -0.9812
 7006TIP3    H242582   2.365   1.580   0.134 -0.3024  1.4906  0.6276
 7007TIP3   OH242583   6.091   3.978   6.715  0.3369  0.3907  0.1024
 7007TIP3    H142584   6.018   3.928   6.751  0.3751  0.5500  0.4067
 7007TIP3    H242585   6.091   3.957   6.621 -1.3883  1.9687 -0.3044
 7008TIP3   OH242586   2.746   4.641   7.811  0.6214 -0.8490  0.6789
 7008TIP3    H142587   2.668   4.622   7.862  0.0707 -0.0309  0.1722
 7008TIP3    H242588   2.718   4.706   7.746  2.2357  1.4174  2.0677
 7009TIP3   OH242589   5.547   1.319   8.265  0.1711  0.2981  0.2144
 7009TIP3    H142590   5.631   1.344   8.304 -0.8238  2.0410  1.3570
 7009TIP3    H242591   5.484   1.381   8.301 -1.7317 -1.2951 -0.1784
 7010TIP3   OH242592   1.310   4.865   7.502 -0.1858 -0.3002 -0.3588
 7010TIP3    H142593   1.276   4.868   7.412  1.8299  1.0087 -1.1456
 7010TIP3    H242594   1.287   4.950   7.539  0.2396 -0.2859 -0.1251
 7011TIP3   OH242595   6.136   1.722   1.521 -0.3039 -0.3576 -0.0236
 7011TIP3    H142596   6.051   1.761   1.540  0.0433 -0.4071  1.7724
 7011TIP3    H242597   6.122   1.628   1.530  0.0656 -0.3332  0.8766
 7012TIP3   OH242598   6.521   1.967   1.706  0.5369  0.0113 -0.2515
 7012TIP3    H142599   6.445   1.932   1.660  1.0455 -2.9409  0.9073
 7012TIP3    H242600   6.595   1.950   1.648  0.7468 -0.6665  0.1891
 7013TIP3   OH242601   1.802   6.671   0.375 -0.0612 -0.3947  0.0540
 7013TIP3    H142602   1.859   6.601   0.407  0.3175  0.2511  0.8379
 7013TIP3    H242603   1.714   6.646   0.405 -0.0095 -0.7958 -0.1275
 7014TIP3   OH242604   6.026   2.679   1.225 -0.9478 -0.1767 -0.6776
 7014TIP3    H142605   6.039   2.741   1.296 -2.2159  0.7750 -1.2464
 7014TIP3    H242606   6.010   2.733   1.148  1.4931 -1.1409 -1.9781
 7015TIP3   OH242607   2.170   2.260   8.561  0.1172  0.1346 -0.3262
 7015TIP3    H142608   2.117   2.335   8.587 -0.3072 -0.5951  1.0161
 7015TIP3    H242609   2.148   2.192   8.624  1.8062 -0.5568 -0.4213
 7016TIP3   OH242610   3.284   3.333   6.647 -0.3970  0.3619 -0.1433
 7016TIP3    H142611   3.219   3.375   6.590 -0.7551  0.5024  0.3694
 7016TIP3    H242612   3.244   3.250   6.673 -0.1375  0.1914 -0.2707
 7017TIP3   OH242613   3.457   4.358   8.499 -0.2618 -0.5597 -0.1318
 7017TIP3    H142614   3.409   4.438   8.480  2.8147  1.6673  0.7619
 7017TIP3    H242615   3.431   4.336   8.589  0.5549  0.7786  0.4512
 7018TIP3   OH242616   3.753   2.802   0.673  0.2974 -0.2786  0.1236
 7018TIP3    H142617   3.685   2.866   0.691  0.5936 -0.0856  0.5693
 7018TIP3    H242618   3.734   2.772   0.584 -0.1975 -0.0192  0.1352
 7019TIP3   OH242619   3.596   1.726   6.669  1.1463  0.4429  0.0139
 7019TIP3    H142620   3.633   1.804   6.709  2.5074 -0.9937  1.7149
 7019TIP3    H242621   3.654   1.706   6.596  0.8303  0.9761 -0.3864
 7020TIP3   OH242622   4.396   3.176   6.184  0.2497  0.3079 -0.2462
 7020TIP3    H142623   4.446   3.108   6.230 -0.0388  0.5492  0.4283
 7020TIP3    H242624   4.440   3.258   6.207 -0.0046  0.4496 -0.2648
 7021TIP3   OH242625   4.834   5.845   0.259  0.4872  0.2841  0.0095
 7021TIP3    H142626   4.813   5.752   0.252 -1.5321  0.2703  3.7905
 7021TIP3    H242627   4.902   5.850   0.327 -0.1063  1.6028  0.5397
 7022TIP3   OH242628   3.920   0.627   0.590 -0.1981  0.0334  0.0190
 7022TIP3    H142629   3.962   0.641   0.506  0.4091 -0.6334  0.1967
 7022TIP3    H242630   3.940   0.536   0.612 -3.5719 -1.0747 -0.9142
 7023TIP3   OH242631   6.319   4.685   1.819  0.1121 -0.1992  0.4611
 7023TIP3    H142632   6.286   4.750   1.881  0.9232  0.6716  0.0102
 7023TIP3    H242633   6.306   4.601   1.863 -0.1345  0.3324  1.4320
 7024TIP3   OH242634   3.689   2.289   1.355  0.3329  0.4188  0.2163
 7024TIP3    H142635   3.762   2.259   1.302 -0.0469 -1.1077  0.5196
 7024TIP3    H242636   3.715   2.271   1.446 -0.2106  0.3388  0.3620
 7025TIP3   OH242637   2.035   2.293   0.578  0.0625 -0.0036 -0.4040
 7025TIP3    H142638   2.070   2.365   0.631  0.1225  1.0318 -1.8067
 7025TIP3    H242639   1.944   2.284   0.607 -0.9792  2.8445 -2.3554
 7026TIP3   OH242640   2.798   3.719   8.096 -0.5886  0.0767 -0.2386
 7026TIP3    H142641   2.884   3.690   8.125 -0.6877  1.6208  1.7511
 7026TIP3    H242642   2.799   3.703   8.001  1.9980  0.3480 -0.3337
 7027TIP3   OH242643   4.762   4.543   2.357 -0.2840 -0.3891  0.3188
 7027TIP3    H142644   4.821   4.606   2.314  0.5635 -0.6791  1.0175
 7027TIP3    H242645   4.788   4.546   2.450 -1.3768 -0.5320  0.6394
 7028TIP3   OH242646   0.739   3.199   1.515  0.8530  0.1899  0.3156
 7028TIP3    H142647   0.697   3.235   1.593 -0.4550 -1.3961  0.4150
 7028TIP3    H242648   0.803   3.136   1.549  0.3940 -0.3872  0.1433
 7029TIP3   OH242649   3.345   4.209   7.842 -0.4564  0.2615  0.4031
 7029TIP3    H142650   3.346   4.302   7.865  0.6692  0.5496 -0.6757
 7029TIP3    H242651   3.324   4.164   7.923 -0.8998  1.4493  0.9714
 7030TIP3   OH242652   0.243   4.443   7.165 -0.2193  0.5116 -0.3991
 7030TIP3    H142653   0.249   4.348   7.172 -0.6823  0.4507 -0.7743
 7030TIP3    H242654   0.247   4.474   7.256 -1.7423  0.0213 -0.1269
 7031TIP3   OH242655   2.079   4.592   1.070  0.5106  0.1512  0.2146
 7031TIP3    H142656   1.996   4.638   1.082  0.4603  0.4636 -1.2574
 7031TIP3    H242657   2.060   4.502   1.099 -0.5168  0.0744 -0.6485
 7032TIP3   OH242658   2.580   6.520   0.968  0.1693 -0.0391  0.2912
 7032TIP3    H142659   2.543   6.530   1.056  1.0710  0.3291  0.6437
 7032TIP3    H242660   2.669   6.554   0.976  0.8350 -1.5266 -0.3411
 7033TIP3   OH242661   5.471   0.499   7.480 -0.2730  0.7411  0.1521
 7033TIP3    H142662   5.466   0.429   7.415  0.7680 -1.0210  1.8455
 7033TIP3    H242663   5.398   0.482   7.540  2.2966 -1.5860  2.9422
 7034TIP3   OH242664   5.339   3.678   0.564 -0.6005  0.2820  0.2909
 7034TIP3    H142665   5.429   3.671   0.533 -1.1829  1.1543 -1.7161
 7034TIP3    H242666   5.346   3.727   0.646  0.9432 -1.7897  1.5200
 7035TIP3   OH242667   3.611   4.195   7.817 -0.4466 -0.0870 -0.7173
 7035TIP3    H142668   3.519   4.221   7.816 -0.6105 -0.6265 -0.2703
 7035TIP3    H242669   3.654   4.258   7.760 -0.8269  1.1886  0.3328
 7036TIP3   OH242670   4.783   4.511   1.231 -0.2309  0.2450  0.1807
 7036TIP3    H142671   4.767   4.604   1.248  1.7247  0.5341  0.7452
 7036TIP3    H242672   4.718   4.487   1.165 -0.4624  2.1591 -0.3561
 7037TIP3   OH242673   4.695   2.597   6.678 -0.1194 -0.3075  0.0173
 7037TIP3    H142674   4.782   2.592   6.640 -0.1628 -0.4070 -0.0699
 7037TIP3    H242675   4.643   2.534   6.628 -0.5427  0.6189 -0.7463
 7038TIP3   OH242676   1.322   0.544   0.809  0.3529 -0.2794 -0.4248
 7038TIP3    H142677   1.262   0.520   0.739  0.2669 -0.7790 -0.1828
 7038TIP3    H242678   1.275   0.523   0.890 -0.1016  1.5517 -0.1622
 7039TIP3   OH242679   2.602   0.256   8.109  0.2617  0.0319  0.0418
 7039TIP3    H142680   2.601   0.175   8.159  2.4740  0.2085  0.5092
 7039TIP3    H242681   2.688   0.256   8.067  0.2032  2.0058 -0.1532
 7040TIP3   OH242682   5.357   3.441   6.566  0.4785  0.7125  0.2486
 7040TIP3    H142683   5.307   3.420   6.486  2.0604  1.8901 -1.1138
 7040TIP3    H242684   5.444   3.405   6.549  0.1140 -1.7250  2.7730
 7041TIP3   OH242685   3.746   4.452   0.765  0.0633 -0.2508  0.2000
 7041TIP3    H142686   3.653   4.433   0.758 -0.1209  0.2240  1.1691
 7041TIP3    H242687   3.788   4.387   0.709 -0.7648 -1.2791  0.7262
 7042TIP3   OH242688   2.877   5.047   1.860  0.2829  0.3729  0.6771
 7042TIP3    H142689   2.941   5.020   1.794 -1.9871 -2.3593 -0.6383
 7042TIP3    H242690   2.917   5.020   1.943  1.0119 -0.9337 -0.0588
 7043TIP3   OH242691   1.920   2.849   8.507  0.2006  0.0526  0.7044
 7043TIP3    H142692   1.988   2.790   8.477  0.6385  0.8142  0.1366
 7043TIP3    H242693   1.848   2.792   8.533  1.3885 -0.8008  2.2364
 7044TIP3   OH242694   3.907   5.166   1.956 -0.0487  0.0328 -0.4391
 7044TIP3    H142695   3.997   5.176   1.927 -0.4034 -0.2232 -1.6798
 7044TIP3    H242696   3.898   5.227   2.029  0.2667  2.3550 -2.2370
 7045TIP3   OH242697   2.616   4.225   1.045  0.2806 -0.2082  0.7648
 7045TIP3    H142698   2.590   4.312   1.076  0.8502 -0.6079  2.4887
 7045TIP3    H242699   2.709   4.220   1.063  0.3740 -0.9628  0.1150
 7046TIP3   OH242700   3.163   6.534   2.058  0.5666 -0.4421 -0.0584
 7046TIP3    H142701   3.202   6.581   1.984  2.7122 -0.7607  0.7771
 7046TIP3    H242702   3.192   6.443   2.046 -0.5123 -0.8433  0.2706
 7047TIP3   OH242703   3.685   1.079   8.551 -0.1082 -0.2733  0.4315
 7047TIP3    H142704   3.683   1.028   8.632 -1.4550 -1.0429 -0.0575
 7047TIP3    H242705   3.764   1.132   8.559 -0.0476 -0.5393  2.1172
 7048TIP3   OH242706   2.942   2.043   7.051  0.0399 -0.4062 -0.0306
 7048TIP3    H142707   2.876   1.977   7.029 -0.3346 -0.7498  1.9732
 7048TIP3    H242708   2.963   2.027   7.143  1.9246  0.5868 -0.2397
 7049TIP3   OH242709   6.358   2.683   7.626 -0.7484 -0.2384  0.0503
 7049TIP3    H142710   6.447   2.708   7.649 -1.1569  0.3595  1.0032
 7049TIP3    H242711   6.337   2.610   7.685 -0.4437 -1.2664 -1.0562
 7050TIP3   OH242712   5.499   1.876   1.318  0.1418  0.1605  0.0594
 7050TIP3    H142713   5.516   1.891   1.225  1.4566  0.7010  0.3655
 7050TIP3    H242714   5.410   1.909   1.332  0.1808  0.6779 -0.8623
 7051TIP3   OH242715   3.364   5.441   8.275  0.5521  0.1951 -0.1614
 7051TIP3    H142716   3.455   5.430   8.248  0.1270  1.8590 -2.6000
 7051TIP3    H242717   3.322   5.487   8.202 -2.2798 -0.5458  0.8496
 7052TIP3   OH242718   2.343   0.209   0.051 -0.2240 -0.5061 -0.0820
 7052TIP3    H142719   2.386   0.143   0.105 -1.1174 -0.5698  0.5710
 7052TIP3    H242720   2.249   0.196   0.066 -0.4446  0.3057 -0.6573
 7053TIP3   OH242721   3.092   0.679   0.260 -0.1759 -0.4634  0.0074
 7053TIP3    H142722   3.161   0.618   0.284  0.1244 -0.6203 -1.2237
 7053TIP3    H242723   3.014   0.625   0.250  0.1208 -0.6911 -1.2231
 7054TIP3   OH242724   3.160   2.818   8.189 -0.1619 -0.0577 -0.2760
 7054TIP3    H142725   3.105   2.741   8.203 -1.3088  0.9426  0.9801
 7054TIP3    H242726   3.243   2.797   8.233 -0.3736 -0.6558 -0.1551
 7055TIP3   OH242727   4.037   6.462   7.628  0.3390 -0.0269 -0.7621
 7055TIP3    H142728   4.037   6.550   7.667  0.1553 -0.0841 -0.6293
 7055TIP3    H242729   4.125   6.451   7.595  0.7629 -0.3025  0.3965
 7056TIP3   OH242730   2.095   3.337   1.387  0.1495 -0.0039 -0.0712
 7056TIP3    H142731   2.139   3.252   1.389 -0.5641 -0.3912 -0.4276
 7056TIP3    H242732   2.041   3.339   1.466 -0.5910 -0.3115 -0.5516
 7057TIP3   OH242733   0.107   1.065   6.000  0.9951  0.1584 -1.1109
 7057TIP3    H142734   0.033   1.120   6.026  3.1692  3.6368 -1.6373
 7057TIP3    H242735   0.081   1.027   5.917 -0.5862  0.4872 -0.7980
 7058TIP3   OH242736   3.330   1.253   8.201 -0.1299  0.6861 -0.4631
 7058TIP3    H142737   3.305   1.333   8.247 -2.3036 -1.1305  1.8146
 7058TIP3    H242738   3.423   1.243   8.219 -0.9101 -0.2187  4.4386
 7059TIP3   OH242739   2.803   1.344   1.911  0.8257 -0.1220  0.1561
 7059TIP3    H142740   2.740   1.348   1.982  0.8808 -1.1469  0.2823
 7059TIP3    H242741   2.888   1.358   1.952  0.7384  0.6334  0.0821
 7060TIP3   OH242742   0.205   2.934   7.851  0.4773  0.0884 -0.2980
 7060TIP3    H142743   0.248   2.852   7.829 -1.4990 -1.2066  0.3832
 7060TIP3    H242744   0.226   2.949   7.943  1.4213  0.7666 -0.6055
 7061TIP3   OH242745   1.630   1.226   8.345  0.1000  0.0067 -0.0586
 7061TIP3    H142746   1.588   1.192   8.265 -0.0420 -0.1142  0.0661
 7061TIP3    H242747   1.624   1.321   8.337  0.6083  0.0075 -0.4692
 7062TIP3   OH242748   0.076   3.869   6.952 -0.0212 -0.1243  0.1251
 7062TIP3    H142749   0.112   3.787   6.919 -0.7202 -0.5896  0.4871
 7062TIP3    H242750  -0.006   3.880   6.903 -0.2945 -0.0250  0.5956
 7063TIP3   OH242751   1.740   2.383   8.282  0.4951 -0.2668 -0.3213
 7063TIP3    H142752   1.694   2.397   8.365 -0.0473 -1.2586 -0.4441
 7063TIP3    H242753   1.681   2.329   8.230  0.1713  1.5467 -1.9532
 7064TIP3   OH242754   6.269   0.741   6.321  0.5522 -0.4334  0.1406
 7064TIP3    H142755   6.194   0.801   6.326  0.7352 -0.2126  0.2287
 7064TIP3    H242756   6.337   0.783   6.373  0.3488 -1.2110  1.0610
 7065TIP3   OH242757   3.775   5.048   0.388 -0.4002 -0.0056  0.7884
 7065TIP3    H142758   3.748   5.082   0.474  2.7760  1.9418  1.2023
 7065TIP3    H242759   3.765   5.123   0.329 -1.2998 -0.9455 -0.2731
 7066TIP3   OH242760   4.131   2.726   1.651  0.2204 -0.0377 -0.0071
 7066TIP3    H142761   4.161   2.642   1.685  1.1312  0.2287 -0.1522
 7066TIP3    H242762   4.047   2.706   1.609  1.6904 -1.4192 -2.5330
 7067TIP3   OH242763   5.363   5.547   7.075  0.0188  0.1740  0.6993
 7067TIP3    H142764   5.291   5.499   7.115  0.0985 -0.5207  0.0386
 7067TIP3    H242765   5.382   5.618   7.136 -1.5872  0.7155  0.6242
 7068TIP3   OH242766   2.009   4.711   6.799  0.4557  0.1017 -0.2019
 7068TIP3    H142767   2.089   4.667   6.825  0.3521  1.0274  1.8239
 7068TIP3    H242768   2.037   4.778   6.736  1.0963 -0.3641 -0.4146
 7069TIP3   OH242769   6.485   1.508   0.315  0.0583 -0.5458  0.2312
 7069TIP3    H142770   6.495   1.584   0.372 -1.9269 -0.9125  1.1692
 7069TIP3    H242771   6.418   1.455   0.358  1.6373 -3.0590 -0.1802
 7070TIP3   OH242772   3.799   5.479   6.571 -0.3217 -0.3772  0.1156
 7070TIP3    H142773   3.713   5.488   6.612 -0.0359  1.5419  0.3892
 7070TIP3    H242774   3.797   5.392   6.530 -2.1663 -0.5992  0.5783
 7071TIP3   OH242775   0.469   4.695   6.205 -0.0520 -0.7121  0.8992
 7071TIP3    H142776   0.512   4.639   6.269 -0.1831 -1.1624  0.5977
 7071TIP3    H242777   0.524   4.773   6.201  1.7912 -2.0105 -0.8006
 7072TIP3   OH242778   1.122   0.834   8.486  0.5000 -0.6658 -0.1536
 7072TIP3    H142779   1.150   0.749   8.520 -2.8498 -2.0747 -0.6082
 7072TIP3    H242780   1.116   0.890   8.564  1.7623 -1.1009  0.2822
 7073TIP3   OH242781   5.720   6.432   2.061  0.4927 -0.7931  0.5566
 7073TIP3    H142782   5.780   6.463   2.128 -0.6254 -1.0854  1.7309
 7073TIP3    H242783   5.765   6.358   2.020  1.6362  0.0525  0.2195
 7074TIP3   OH242784   3.504   4.951   6.991  0.4294 -0.3088 -0.0212
 7074TIP3    H142785   3.521   5.024   6.931 -1.0131 -0.2493 -0.3905
 7074TIP3    H242786   3.414   4.965   7.021  0.7193 -1.0013  1.2431
 7075TIP3   OH242787   5.941   2.872   0.960 -0.7541 -0.0735 -0.5029
 7075TIP3    H142788   5.990   2.833   0.888 -1.9762 -2.1604 -0.2875
 7075TIP3    H242789   5.856   2.896   0.922  0.2334  3.4371 -0.8597
 7076TIP3   OH242790   0.203   3.905   1.721  0.2355 -0.7775 -0.3508
 7076TIP3    H142791   0.198   3.984   1.776  2.3753 -1.4038  0.8653
 7076TIP3    H242792   0.145   3.842   1.764  2.0253 -1.3248  1.4498
 7077TIP3   OH242793   0.348   0.724   8.215 -0.1428 -0.2818  0.1630
 7077TIP3    H142794   0.380   0.788   8.278  0.7378  0.4555 -1.0250
 7077TIP3    H242795   0.272   0.766   8.174  1.4275  0.7450 -1.8178
 7078TIP3   OH242796   5.341   1.306   0.542 -0.2980  1.1514 -0.3224
 7078TIP3    H142797   5.299   1.249   0.607  1.7839  0.6850  0.7233
 7078TIP3    H242798   5.293   1.290   0.461 -0.4934 -1.3259  0.1921
 7079TIP3   OH242799   4.744   6.340   1.823  0.5599 -0.3081  0.3034
 7079TIP3    H142800   4.670   6.374   1.773  0.8926  0.0100  0.0219
 7079TIP3    H242801   4.819   6.347   1.764  0.7194 -1.1381  0.3932
 7080TIP3   OH242802   5.891   0.080   7.165  0.1602 -0.3005 -0.1349
 7080TIP3    H142803   5.887   0.104   7.072 -0.1164  2.1363  0.4320
 7080TIP3    H242804   5.832   0.005   7.173  0.1208 -0.5167 -1.8816
 7081TIP3   OH242805   5.848   5.199   2.101  0.0414 -0.0079  0.0362
 7081TIP3    H142806   5.781   5.133   2.085 -0.1756  0.5077 -1.3001
 7081TIP3    H242807   5.930   5.149   2.101 -0.2077 -0.4287  0.1037
 7082TIP3   OH242808   1.260   0.277   2.316  0.5629 -0.4467 -0.1085
 7082TIP3    H142809   1.239   0.370   2.308  0.7446 -0.4242 -0.3206
 7082TIP3    H242810   1.210   0.235   2.246  2.5966 -0.1816 -1.8011
 7083TIP3   OH242811   0.992   1.223   1.981  0.2265 -0.3512 -0.5072
 7083TIP3    H142812   1.059   1.286   2.007  0.2016 -0.2403 -0.7131
 7083TIP3    H242813   0.989   1.161   2.054  1.0174 -0.7362 -0.7886
 7084TIP3   OH242814   0.131   5.342   2.422 -0.4225 -0.2353  0.1897
 7084TIP3    H142815   0.157   5.430   2.394 -0.2641 -0.1519  0.5860
 7084TIP3    H242816   0.212   5.302   2.454 -0.4189 -0.6710 -0.3666
 7085TIP3   OH242817   6.311   5.913   7.680  0.2118  0.2126  0.1070
 7085TIP3    H142818   6.298   5.873   7.594  1.1912 -0.6730  0.3449
 7085TIP3    H242819   6.238   5.974   7.689 -0.3187 -0.2081 -1.0382
 7086TIP3   OH242820   0.496   2.264   8.755  0.4787  0.1594  0.8961
 7086TIP3    H142821   0.504   2.264   8.659 -0.3637 -2.1679  0.7637
 7086TIP3    H242822   0.586   2.252   8.786  1.1327  3.2617  0.5806
 7087TIP3   OH242823   2.608   1.707   0.290 -0.2943  0.0860  0.2855
 7087TIP3    H142824   2.607   1.785   0.345 -0.2627 -1.3202  2.3784
 7087TIP3    H242825   2.521   1.706   0.248 -0.0460  1.5616 -0.3133
 7088TIP3   OH242826   6.375   4.529   1.521 -0.2994 -0.9379  0.4060
 7088TIP3    H142827   6.407   4.598   1.462 -0.2689 -1.5777 -0.3476
 7088TIP3    H242828   6.282   4.521   1.499 -0.7928  0.2160  1.8823
 7089TIP3   OH242829   2.831   2.167   8.143  0.3594  0.1346  0.4389
 7089TIP3    H142830   2.786   2.246   8.173  0.9998 -0.0582  2.0244
 7089TIP3    H242831   2.763   2.100   8.144 -0.4760  0.8533 -2.0574
 7090LIG     C142832   6.606   1.561   8.324 -0.2949 -0.0793  0.5310
 7090LIG     C242833   6.613   1.409   8.342  0.0022  0.3953 -0.5613
 7090LIG     C342834   6.712   1.375   8.448 -0.3987 -0.6992  0.2622
 7090LIG      O42835   6.656   1.339   8.224  0.0752 -0.4998 -0.3489
 7090LIG     H142836   6.536   1.606   8.250 -0.5404  1.3591  1.5946
 7090LIG     H242837   6.708   1.594   8.296 -1.1123 -0.8389 -4.3701
 7090LIG     H342838   6.563   1.589   8.422 -1.6357 -0.8865  0.2039
 7090LIG     H442839   6.510   1.370   8.359  0.3021  0.4014  1.4761
 7090LIG     H542840   6.711   1.264   8.459 -2.6360 -0.7533 -0.1005
 7090LIG     H642841   6.698   1.421   8.548  1.2170  1.2340 -0.3393
 7090LIG     H742842   6.810   1.421   8.421 -2.0250  2.5987 -0.5066
 7090LIG     H842843   6.645   1.246   8.248  0.0831 -0.5164 -0.4096
   6.82911   6.82911   8.82567
