;;
;; Generated by CHARMM-GUI FF-Converter
;;
;; Correspondance:
;; jul316@lehigh.edu or wonpil@lehigh.edu
;;
;; The main GROMACS topology file
;;

; Include forcefield parameters
#include "toppar/forcefield.itp"
#include "toppar/CHL1.itp"
#include "toppar/OSM.itp"
#include "toppar/SLPC.itp"
#include "toppar/SAPC.itp"
#include "toppar/SOPE.itp"
#include "toppar/POPC.itp"
#include "toppar/SAPS.itp"
#include "toppar/SAPE.itp"
#include "toppar/SAPI.itp"
#include "toppar/POT.itp"
#include "toppar/CLA.itp"
#include "toppar/TIP3.itp"

[ system ]
; Name
Title

[ molecules ]
; Compound	#mols
CHL1  	          56
OSM   	          44
SLPC  	          12
SAPC  	          12
SOPE  	          12
POPC  	           4
SAPS  	          20
SAPE  	          28
SAPI  	           4
POT   	          40
CLA   	          16
TIP3  	        6846
DRUG               1
