Title
42846
    1CHL1    C3    1   3.418   3.498   5.801  0.9021  0.7458 -0.2755
    1CHL1    H3    2   3.421   3.389   5.777 -0.6884  0.7213 -0.5041
    1CHL1    O3    3   3.401   3.497   5.942  0.0959  0.0371 -0.8382
    1CHL1   H3'    4   3.475   3.443   5.973 -0.5662 -1.4284 -1.6936
    1CHL1    C4    5   3.540   3.569   5.758  0.1365 -0.3741 -0.3173
    1CHL1   H4A    6   3.517   3.673   5.791  0.4721  0.0820 -1.4697
    1CHL1   H4B    7   3.631   3.538   5.812 -1.0089  2.5934  3.8160
    1CHL1    C5    8   3.559   3.577   5.609 -0.8268 -0.3382 -0.6047
    1CHL1    C6    9   3.671   3.532   5.555 -0.4995  0.2963  0.4451
    1CHL1    H6   10   3.757   3.497   5.612 -0.3472  2.3306  1.5578
    1CHL1    C7   11   3.685   3.529   5.401  0.0482 -0.0392 -0.1163
    1CHL1   H7A   12   3.781   3.573   5.367  0.4772 -0.8413  0.0428
    1CHL1   H7B   13   3.674   3.421   5.376  1.2780 -1.0908  3.3767
    1CHL1    C8   14   3.574   3.608   5.324 -0.0492  0.0930 -0.1191
    1CHL1    H8   15   3.592   3.717   5.338 -1.0580  0.1261  1.0676
    1CHL1   C14   16   3.582   3.576   5.176 -0.0380  0.4328 -0.6566
    1CHL1   H14   17   3.555   3.468   5.169 -1.4155  0.5582  1.7221
    1CHL1   C15   18   3.726   3.593   5.105  0.3542  0.1182  0.0096
    1CHL1  H15A   19   3.762   3.688   5.151 -1.0257  1.4137 -1.4392
    1CHL1  H15B   20   3.806   3.518   5.120  0.4405 -0.3630 -2.5118
    1CHL1   C16   21   3.689   3.608   4.959  0.2325  0.6505  0.2854
    1CHL1  H16A   22   3.717   3.707   4.919 -2.3645  1.6324  0.7025
    1CHL1  H16B   23   3.748   3.535   4.899  1.1463  1.8510 -0.3154
    1CHL1   C17   24   3.533   3.605   4.947  0.3512  0.1333  0.9437
    1CHL1   H17   25   3.503   3.499   4.936 -0.6911  0.6589 -2.9960
    1CHL1   C13   26   3.480   3.648   5.083  0.0473 -1.1269 -0.2920
    1CHL1   C18   27   3.499   3.801   5.090 -0.1037 -0.6905 -0.3164
    1CHL1  H18A   28   3.417   3.851   5.034 -0.7221  0.4659  1.5620
    1CHL1  H18B   29   3.487   3.829   5.197  1.3157 -1.1078 -0.0170
    1CHL1  H18C   30   3.598   3.845   5.064 -0.1319  1.0361  2.1836
    1CHL1   C12   31   3.338   3.615   5.134 -0.3339 -0.0470  0.4541
    1CHL1  H12A   32   3.261   3.678   5.086  0.7103  1.1600  0.3000
    1CHL1  H12B   33   3.320   3.510   5.104 -0.2633 -0.6260  2.2737
    1CHL1   C11   34   3.318   3.633   5.281 -0.1047  0.4924 -0.4735
    1CHL1  H11A   35   3.297   3.742   5.285 -3.2007  0.0676 -1.7369
    1CHL1  H11B   36   3.223   3.582   5.310 -0.0249 -0.0136 -1.0734
    1CHL1    C9   37   3.433   3.575   5.375 -0.1392  0.6179  0.3980
    1CHL1    H9   38   3.433   3.465   5.364  2.0623  0.7130 -1.4088
    1CHL1   C10   39   3.430   3.610   5.530 -0.5773  0.5611 -0.3614
    1CHL1   C19   40   3.429   3.766   5.550  0.1456 -0.4323  0.5318
    1CHL1  H19A   41   3.360   3.810   5.475  0.3935 -0.9958 -0.0403
    1CHL1  H19B   42   3.402   3.793   5.655  1.2905 -0.6245  0.8947
    1CHL1  H19C   43   3.527   3.815   5.532  0.6090 -0.4554  2.6397
    1CHL1    C1   44   3.301   3.537   5.587  0.6368 -1.1741  1.1686
    1CHL1   H1A   45   3.209   3.569   5.533  1.2504  3.5876  2.4771
    1CHL1   H1B   46   3.318   3.428   5.573 -1.4174 -1.2140 -1.7687
    1CHL1    C2   47   3.295   3.564   5.735 -1.1440  0.0703 -0.0926
    1CHL1   H2A   48   3.208   3.521   5.790 -0.2207  1.5575  2.7398
    1CHL1   H2B   49   3.281   3.669   5.768 -2.3116 -0.3886  0.9173
    1CHL1   C20   50   3.477   3.692   4.827  0.2650 -0.0176  0.5810
    1CHL1   H20   51   3.475   3.802   4.844 -0.5480 -0.2131  1.9454
    1CHL1   C21   52   3.329   3.638   4.804 -0.4957 -0.4551 -0.0194
    1CHL1  H21A   53   3.329   3.541   4.752  0.9715  0.6260 -2.1626
    1CHL1  H21B   54   3.282   3.714   4.738  3.6076  0.5452 -2.1038
    1CHL1  H21C   55   3.271   3.624   4.898 -0.0408 -1.1820  0.1598
    1CHL1   C22   56   3.563   3.667   4.703 -0.1153  0.0522  0.6672
    1CHL1  H22A   57   3.649   3.737   4.712 -0.1974  0.1435  0.7457
    1CHL1  H22B   58   3.604   3.564   4.705  1.5055  0.6713  2.9779
    1CHL1   C23   59   3.511   3.686   4.556 -0.1992  0.2112 -0.4187
    1CHL1  H23A   60   3.599   3.674   4.489 -0.0992 -0.4631 -0.1772
    1CHL1  H23B   61   3.443   3.600   4.536  0.6700 -0.2371 -1.6012
    1CHL1   C24   62   3.471   3.834   4.530  0.4811  0.2864 -0.2392
    1CHL1  H24A   63   3.376   3.857   4.584  0.8017  0.8568  0.0890
    1CHL1  H24B   64   3.549   3.903   4.568  0.7929 -1.1272  1.8460
    1CHL1   C25   65   3.453   3.868   4.383 -0.0759 -0.5265 -0.2286
    1CHL1   H25   66   3.392   3.781   4.351 -1.0146  0.3133 -0.8042
    1CHL1   C26   67   3.362   3.996   4.372 -0.0278  0.1774 -0.6737
    1CHL1  H26A   68   3.388   4.085   4.434 -1.6016  1.1566 -1.3670
    1CHL1  H26B   69   3.347   4.033   4.268 -0.1929 -0.4266 -0.8719
    1CHL1  H26C   70   3.261   3.968   4.410 -0.4186 -0.1280 -1.9025
    1CHL1   C27   71   3.591   3.876   4.320  0.3254 -1.1275  0.5039
    1CHL1  H27A   72   3.669   3.805   4.355  2.2120 -0.2186 -1.5653
    1CHL1  H27B   73   3.595   3.857   4.210 -1.0037 -0.6098  0.3485
    1CHL1  H27C   74   3.634   3.976   4.340  0.2184 -0.8249 -0.6764
    2CHL1    C3   75   3.897   3.293   5.772 -0.5218  0.2319 -0.6569
    2CHL1    H3   76   3.794   3.301   5.730 -1.0178 -0.5261  0.3929
    2CHL1    O3   77   3.898   3.323   5.907  0.2385 -0.0667 -0.4029
    2CHL1   H3'   78   3.987   3.359   5.914 -0.5453  1.7657  0.8906
    2CHL1    C4   79   3.962   3.157   5.750 -0.3163 -0.4196  0.4674
    2CHL1   H4A   80   4.064   3.157   5.794 -1.0731 -1.2717  2.3502
    2CHL1   H4B   81   3.912   3.078   5.811  0.3288 -1.9737 -0.9422
    2CHL1    C5   82   3.974   3.125   5.598 -0.1590 -0.0041  0.1718
    2CHL1    C6   83   3.913   3.011   5.553  0.6960  0.3041  0.6354
    2CHL1    H6   84   3.871   2.934   5.618 -1.2154  0.6319 -0.1382
    2CHL1    C7   85   3.910   2.978   5.404  0.1502 -0.1525 -0.0336
    2CHL1   H7A   86   3.942   2.873   5.385 -0.2845 -0.1782 -0.6473
    2CHL1   H7B   87   3.807   2.979   5.362  0.2158 -1.6633 -0.2993
    2CHL1    C8   88   4.005   3.065   5.314  0.3596  0.5220 -0.5621
    2CHL1    H8   89   4.098   3.004   5.323 -1.1806 -1.9498 -0.4935
    2CHL1   C14   90   3.954   3.071   5.165  0.3548 -0.8365 -0.4981
    2CHL1   H14   91   3.856   3.122   5.173 -1.2878 -3.4371 -2.2717
    2CHL1   C15   92   3.925   2.933   5.104  0.2414  0.2552 -0.0207
    2CHL1  H15A   93   4.018   2.873   5.104  1.3801  1.9109 -1.6892
    2CHL1  H15B   94   3.827   2.893   5.139 -1.0800  1.1488 -2.4115
    2CHL1   C16   95   3.917   2.965   4.955 -0.3220 -0.8460  0.8714
    2CHL1  H16A   96   3.991   2.895   4.912 -0.1179 -0.3647  0.4320
    2CHL1  H16B   97   3.817   2.951   4.909  0.1272 -0.9351 -0.0924
    2CHL1   C17   98   3.973   3.113   4.938  0.0954  0.1831  0.4168
    2CHL1   H17   99   3.879   3.172   4.952 -1.0611 -2.0631  3.1628
    2CHL1   C13  100   4.054   3.143   5.074  0.5804 -0.4231  0.3864
    2CHL1   C18  101   4.195   3.086   5.074 -0.0031 -0.2859  0.1940
    2CHL1  H18A  102   4.247   3.137   4.989 -3.0249  1.9034 -0.4956
    2CHL1  H18B  103   4.259   3.094   5.164 -1.1730 -0.9589  1.1156
    2CHL1  H18C  104   4.189   2.978   5.049 -1.2063 -0.5632  1.5454
    2CHL1   C12  105   4.048   3.291   5.113  0.4120 -0.6078 -0.3597
    2CHL1  H12A  106   4.117   3.357   5.056  1.3598 -0.6166  0.7331
    2CHL1  H12B  107   3.945   3.330   5.108  1.6503  3.1210  0.1791
    2CHL1   C11  108   4.093   3.307   5.258  0.0856  0.1674  0.7110
    2CHL1  H11A  109   4.201   3.279   5.267  0.0207  0.1867  1.6637
    2CHL1  H11B  110   4.080   3.412   5.292 -0.9524 -0.2830  1.7791
    2CHL1    C9  111   4.013   3.211   5.363 -0.0605  0.5602 -0.0706
    2CHL1    H9  112   3.911   3.250   5.344 -0.8026  0.1369  2.6562
    2CHL1   C10  113   4.043   3.236   5.512 -0.4277  0.9569 -0.4122
    2CHL1   C19  114   4.198   3.234   5.540  0.9208  0.4866 -0.3922
    2CHL1  H19A  115   4.218   3.234   5.649 -0.5618  1.3231 -0.0914
    2CHL1  H19B  116   4.248   3.144   5.498  0.5648 -0.6977  1.5505
    2CHL1  H19C  117   4.243   3.324   5.494  1.2534  0.0389 -0.9615
    2CHL1    C1  118   3.997   3.373   5.551  0.0168  0.2480 -0.5729
    2CHL1   H1A  119   4.046   3.462   5.506  0.0998  0.6165  0.2334
    2CHL1   H1B  120   3.892   3.377   5.515 -0.2547  1.5627  0.2937
    2CHL1    C2  121   3.985   3.402   5.701 -0.8756 -0.5710  0.0523
    2CHL1   H2A  122   3.940   3.501   5.723 -0.8449 -0.3784 -0.7491
    2CHL1   H2B  123   4.082   3.394   5.754 -0.7354  1.1674  0.0899
    2CHL1   C20  124   4.043   3.133   4.803 -0.1467 -0.2448 -0.4345
    2CHL1   H20  125   4.128   3.061   4.806 -0.1415 -0.2093  0.6559
    2CHL1   C21  126   4.100   3.280   4.780  0.1346 -0.8766 -0.3824
    2CHL1  H21A  127   4.196   3.297   4.833 -0.4947  1.4287  0.1238
    2CHL1  H21B  128   4.022   3.356   4.801  1.4187  0.8999 -1.8368
    2CHL1  H21C  129   4.134   3.302   4.677  3.1021  1.2783  0.9220
    2CHL1   C22  130   3.951   3.099   4.683  0.0407  0.5807 -0.5677
    2CHL1  H22A  131   4.009   3.094   4.589 -2.2237  0.6236 -2.0447
    2CHL1  H22B  132   3.911   2.996   4.687  0.8325  0.2265 -1.5561
    2CHL1   C23  133   3.834   3.194   4.652 -0.1370 -0.0105  0.3764
    2CHL1  H23A  134   3.745   3.170   4.714 -0.7103  1.3196  0.0950
    2CHL1  H23B  135   3.862   3.300   4.669  4.9269 -0.9814 -0.2353
    2CHL1   C24  136   3.790   3.190   4.501 -0.7286 -0.1492 -0.4672
    2CHL1  H24A  137   3.880   3.232   4.450  0.9678 -2.3726  0.5250
    2CHL1  H24B  138   3.781   3.090   4.453  0.5462  0.1578 -1.4160
    2CHL1   C25  139   3.674   3.286   4.463 -0.0785 -0.5252  0.3563
    2CHL1   H25  140   3.712   3.390   4.476 -1.5236  0.0016  0.5128
    2CHL1   C26  141   3.636   3.273   4.308 -0.1767 -0.3304 -0.2820
    2CHL1  H26A  142   3.734   3.270   4.255 -0.0898  1.3843 -0.2559
    2CHL1  H26B  143   3.584   3.179   4.280  0.4524 -1.7053  2.7196
    2CHL1  H26C  144   3.590   3.367   4.272  2.1072  1.1057  0.3506
    2CHL1   C27  145   3.537   3.267   4.531 -0.1266 -0.1642  0.4680
    2CHL1  H27A  146   3.502   3.162   4.522  2.4712 -1.0652  0.1929
    2CHL1  H27B  147   3.544   3.291   4.639  1.2546 -1.8009  0.7749
    2CHL1  H27C  148   3.477   3.339   4.470  0.7444  0.2517  0.0871
    3CHL1    C3  149   2.498   3.552   6.025 -1.0115 -0.1726  0.4402
    3CHL1    H3  150   2.486   3.661   6.006 -0.7846 -0.3959 -1.1209
    3CHL1    O3  151   2.506   3.510   6.158 -0.0089 -0.2318  0.5079
    3CHL1   H3'  152   2.529   3.418   6.142  1.5082  0.3720 -1.1769
    3CHL1    C4  153   2.381   3.473   5.967  0.8096 -0.1936  1.3755
    3CHL1   H4A  154   2.381   3.367   6.001  1.0703 -0.9781 -0.8786
    3CHL1   H4B  155   2.290   3.518   6.011  0.9794  0.5217  1.0124
    3CHL1    C5  156   2.374   3.467   5.817 -0.6147 -0.3151 -0.2333
    3CHL1    C6  157   2.261   3.505   5.752  0.5734 -0.1852 -0.4308
    3CHL1    H6  158   2.182   3.541   5.820  2.1621  0.8812  0.9073
    3CHL1    C7  159   2.241   3.521   5.599  0.0255 -0.4812 -0.4294
    3CHL1   H7A  160   2.150   3.466   5.567 -0.8178  1.1650 -0.9459
    3CHL1   H7B  161   2.234   3.629   5.576  1.7530  0.5427  3.0947
    3CHL1    C8  162   2.361   3.452   5.524  0.8474 -0.0722  0.2919
    3CHL1    H8  163   2.341   3.343   5.533 -1.2657  0.0871 -1.5785
    3CHL1   C14  164   2.352   3.505   5.385 -0.4719 -0.4248  0.1370
    3CHL1   H14  165   2.354   3.615   5.394  0.5918 -0.3380 -0.9123
    3CHL1   C15  166   2.231   3.475   5.293 -0.4233 -0.0438 -0.8087
    3CHL1  H15A  167   2.203   3.367   5.289  0.6432 -0.3478 -0.2675
    3CHL1  H15B  168   2.142   3.531   5.332  0.0376 -0.7199  1.3694
    3CHL1   C16  169   2.274   3.525   5.158 -0.0985 -0.6560  0.2519
    3CHL1  H16A  170   2.245   3.452   5.079 -1.0714 -0.5660  0.5147
    3CHL1  H16B  171   2.234   3.623   5.127  4.0787  0.6476 -1.8109
    3CHL1   C17  172   2.429   3.543   5.167 -0.3060  0.6517  0.3102
    3CHL1   H17  173   2.432   3.653   5.181 -1.6425  0.5224  1.8732
    3CHL1   C13  174   2.473   3.470   5.295 -0.2866 -0.3702  0.0439
    3CHL1   C18  175   2.482   3.313   5.260 -0.4396  0.0008  0.7874
    3CHL1  H18A  176   2.572   3.300   5.196  0.5839  0.1832  2.1603
    3CHL1  H18B  177   2.486   3.250   5.351  0.3827  0.6056  1.1747
    3CHL1  H18C  178   2.391   3.276   5.207  1.9239 -1.9963 -2.1641
    3CHL1   C12  179   2.605   3.511   5.363 -0.1913 -0.0998 -0.4012
    3CHL1  H12A  180   2.696   3.485   5.305  0.2499  1.5019 -0.4862
    3CHL1  H12B  181   2.608   3.622   5.366  1.4476  0.0699 -3.4752
    3CHL1   C11  182   2.617   3.451   5.511  1.0641 -0.1200 -0.4054
    3CHL1  H11A  183   2.619   3.340   5.503  0.2873 -0.0194 -2.6043
    3CHL1  H11B  184   2.709   3.490   5.559  1.0973  0.4708 -0.9353
    3CHL1    C9  185   2.489   3.484   5.594 -0.9743 -0.4309 -0.5536
    3CHL1    H9  186   2.481   3.594   5.603  0.0719 -0.3095 -0.9403
    3CHL1   C10  187   2.502   3.438   5.741  0.3186 -0.2190 -0.2383
    3CHL1   C19  188   2.529   3.284   5.742  0.2489  0.3661  0.0499
    3CHL1  H19A  189   2.438   3.235   5.702  1.1494  0.4088 -2.1625
    3CHL1  H19B  190   2.614   3.247   5.681  0.2036  0.6400 -0.1821
    3CHL1  H19C  191   2.535   3.250   5.848 -1.9442 -0.8715 -0.1571
    3CHL1    C1  192   2.624   3.522   5.804 -0.5607  0.0880  0.6777
    3CHL1   H1A  193   2.723   3.486   5.769 -0.5041  0.1091  0.8167
    3CHL1   H1B  194   2.626   3.631   5.783  1.2568 -0.1087 -0.3453
    3CHL1    C2  195   2.625   3.504   5.958 -0.4387 -0.2529 -0.1041
    3CHL1   H2A  196   2.717   3.562   5.982  0.4837 -1.3047 -0.9589
    3CHL1   H2B  197   2.656   3.397   5.967  0.7176  0.0422 -0.4251
    3CHL1   C20  198   2.500   3.505   5.037  0.0282  0.3439 -0.5725
    3CHL1   H20  199   2.518   3.398   5.013  1.8158  0.5922 -0.4556
    3CHL1   C21  200   2.634   3.559   5.037  0.0909 -0.2136  0.4058
    3CHL1  H21A  201   2.697   3.492   5.099 -0.2020 -2.2162 -1.3467
    3CHL1  H21B  202   2.652   3.662   5.074  4.5731 -0.4906 -0.4926
    3CHL1  H21C  203   2.675   3.567   4.934 -1.1504 -0.5823 -0.1360
    3CHL1   C22  204   2.421   3.556   4.910  0.2316 -0.4085 -0.2893
    3CHL1  H22A  205   2.479   3.513   4.825  1.4805  1.7526 -0.6255
    3CHL1  H22B  206   2.323   3.510   4.890 -0.2911  1.6998 -3.3491
    3CHL1   C23  207   2.403   3.707   4.893 -0.2635 -0.5393 -0.0186
    3CHL1  H23A  208   2.313   3.733   4.953 -0.7071 -0.4707 -0.6947
    3CHL1  H23B  209   2.489   3.767   4.929  0.9704 -1.8606 -0.6570
    3CHL1   C24  210   2.376   3.750   4.746 -0.9474 -0.4898 -0.4056
    3CHL1  H24A  211   2.289   3.696   4.704 -1.1372 -0.8749  0.4603
    3CHL1  H24B  212   2.353   3.859   4.745  1.5756  0.1608  1.2595
    3CHL1   C25  213   2.498   3.738   4.650 -0.7513  0.5091 -0.2424
    3CHL1   H25  214   2.533   3.633   4.638 -1.1802  0.2638  0.6355
    3CHL1   C26  215   2.450   3.779   4.508 -0.5051 -0.4480  0.0010
    3CHL1  H26A  216   2.364   3.710   4.495 -0.9225 -0.2491  1.5073
    3CHL1  H26B  217   2.427   3.887   4.523 -1.0765 -0.5371 -0.2023
    3CHL1  H26C  218   2.531   3.767   4.433 -0.1479  1.0568  0.1120
    3CHL1   C27  219   2.606   3.831   4.701 -0.2775 -0.5589  0.6892
    3CHL1  H27A  220   2.646   3.784   4.793  1.0130 -0.2781  0.2995
    3CHL1  H27B  221   2.683   3.846   4.622 -0.3268 -0.0551  0.7341
    3CHL1  H27C  222   2.561   3.929   4.725 -3.2640 -1.5960 -0.2716
    4CHL1    C3  223   2.360   3.976   5.938  0.3433  0.3508 -1.0077
    4CHL1    H3  224   2.300   4.069   5.952  3.2026  2.3407 -1.0448
    4CHL1    O3  225   2.366   3.910   6.063  0.2775 -0.5413 -0.0115
    4CHL1   H3'  226   2.431   3.963   6.110  1.1289 -0.6341 -1.0602
    4CHL1    C4  227   2.297   3.881   5.829 -0.3567  0.0579  0.4928
    4CHL1   H4A  228   2.326   3.774   5.831 -1.8336 -0.3686  1.6761
    4CHL1   H4B  229   2.192   3.884   5.867 -1.6287  3.1677 -2.6719
    4CHL1    C5  230   2.302   3.935   5.682  0.1476  0.3273  0.4711
    4CHL1    C6  231   2.196   3.937   5.596 -0.1686 -0.1015  0.3095
    4CHL1    H6  232   2.103   3.895   5.638  0.3226  0.3345  1.9227
    4CHL1    C7  233   2.192   3.976   5.451 -0.6306  0.2461 -0.2494
    4CHL1   H7A  234   2.157   3.882   5.402  1.0959  0.4624 -2.0575
    4CHL1   H7B  235   2.119   4.046   5.406  1.3690  0.6950 -3.0760
    4CHL1    C8  236   2.332   4.015   5.402 -0.3426  0.2986 -0.8803
    4CHL1    H8  237   2.383   3.920   5.373 -0.4902  0.0628 -0.3783
    4CHL1   C14  238   2.327   4.107   5.284  1.0497  0.6902  0.4255
    4CHL1   H14  239   2.300   4.210   5.316 -1.3668  0.3890 -0.4425
    4CHL1   C15  240   2.238   4.075   5.167  0.3707  0.0220 -0.3395
    4CHL1  H15A  241   2.253   3.971   5.132 -1.2686  0.3139 -2.0394
    4CHL1  H15B  242   2.135   4.101   5.198  1.8324  1.7745  3.7205
    4CHL1   C16  243   2.275   4.182   5.054 -0.0870 -0.6051  0.0610
    4CHL1  H16A  244   2.299   4.126   4.961  0.9600  0.0725 -0.0874
    4CHL1  H16B  245   2.199   4.259   5.028  1.0114  0.6711  0.5528
    4CHL1   C17  246   2.414   4.243   5.103 -0.2682  0.4260 -0.3410
    4CHL1   H17  247   2.393   4.334   5.164  1.8478 -1.3029  3.2952
    4CHL1   C13  248   2.467   4.142   5.217  0.4159 -0.4554  0.0823
    4CHL1   C18  249   2.543   4.030   5.149  0.3748 -0.0266 -0.2728
    4CHL1  H18A  250   2.635   4.076   5.106  0.0258 -0.8498 -1.9905
    4CHL1  H18B  251   2.566   3.948   5.220 -0.6115 -0.0227  0.0568
    4CHL1  H18C  252   2.482   3.992   5.065 -0.2754 -0.4149  0.3750
    4CHL1   C12  253   2.551   4.215   5.323 -0.1875  0.1190 -0.1689
    4CHL1  H12A  254   2.654   4.233   5.285 -0.3004  3.0012  0.6541
    4CHL1  H12B  255   2.513   4.315   5.352  0.3811  0.8525 -1.8826
    4CHL1   C11  256   2.557   4.113   5.445  0.8735 -0.1619 -0.1927
    4CHL1  H11A  257   2.603   4.016   5.419  1.9837  0.3316 -0.1120
    4CHL1  H11B  258   2.629   4.155   5.518 -0.5987 -1.2198  1.9712
    4CHL1    C9  259   2.417   4.081   5.513 -0.7391 -0.0796 -0.5976
    4CHL1    H9  260   2.377   4.180   5.545 -2.4188 -1.2420  1.1488
    4CHL1   C10  261   2.438   3.995   5.639  0.3759 -0.2202 -0.5051
    4CHL1   C19  262   2.545   3.888   5.612  0.7659  0.0381 -0.3042
    4CHL1  H19A  263   2.638   3.948   5.604  0.8595 -0.0384  0.1491
    4CHL1  H19B  264   2.564   3.820   5.698  2.2033  1.4587  0.5689
    4CHL1  H19C  265   2.533   3.838   5.514  0.0236  0.0860 -0.2440
    4CHL1    C1  266   2.489   4.093   5.749 -0.1011 -0.3048 -0.2526
    4CHL1   H1A  267   2.583   4.140   5.713  2.3367  0.1154  5.5568
    4CHL1   H1B  268   2.411   4.172   5.752 -0.0187 -0.1732 -1.2222
    4CHL1    C2  269   2.501   4.022   5.893 -1.0977  0.4909  0.3333
    4CHL1   H2A  270   2.555   4.092   5.961  0.1372  2.0565 -2.1152
    4CHL1   H2B  271   2.566   3.933   5.889 -0.9942  0.4208  2.6395
    4CHL1   C20  272   2.507   4.303   4.993  0.2097  0.2799  0.7905
    4CHL1   H20  273   2.552   4.216   4.940 -0.4331 -1.0842  2.3989
    4CHL1   C21  274   2.624   4.391   5.056  0.5172  0.0147 -0.0829
    4CHL1  H21A  275   2.688   4.451   4.988 -0.7621  1.5592  0.0355
    4CHL1  H21B  276   2.686   4.307   5.094 -1.5109 -1.2851  0.5501
    4CHL1  H21C  277   2.589   4.452   5.142  0.1761 -0.9335  0.4664
    4CHL1   C22  278   2.424   4.379   4.891 -0.4928 -0.3313  0.5187
    4CHL1  H22A  279   2.340   4.322   4.845 -0.5635 -1.1957  1.6888
    4CHL1  H22B  280   2.397   4.478   4.932 -0.7635  0.3960 -1.3042
    4CHL1   C23  281   2.510   4.414   4.763  0.1714 -0.2618  0.9579
    4CHL1  H23A  282   2.593   4.482   4.793  1.7931 -2.0906  0.7973
    4CHL1  H23B  283   2.556   4.322   4.721 -0.3836 -0.5569  0.9888
    4CHL1   C24  284   2.418   4.470   4.647  0.3010  0.0574  0.2183
    4CHL1  H24A  285   2.327   4.407   4.643  0.5479 -0.3036  0.2606
    4CHL1  H24B  286   2.394   4.575   4.674  3.0796  0.8423 -0.0553
    4CHL1   C25  287   2.493   4.487   4.509  1.0701  0.2702 -0.3950
    4CHL1   H25  288   2.584   4.551   4.519  1.0304  0.2110  0.4177
    4CHL1   C26  289   2.515   4.353   4.436  0.1524  0.5845 -0.8676
    4CHL1  H26A  290   2.554   4.280   4.509 -0.5536  1.1299  0.0732
    4CHL1  H26B  291   2.420   4.305   4.402 -2.1244  4.8265 -1.2663
    4CHL1  H26C  292   2.572   4.362   4.341  0.5725 -0.4948 -0.7235
    4CHL1   C27  293   2.394   4.558   4.416 -0.0901 -0.2745  0.3151
    4CHL1  H27A  294   2.337   4.629   4.479 -2.4281 -0.3779 -1.5473
    4CHL1  H27B  295   2.442   4.625   4.342 -1.2631  1.6509  1.1938
    4CHL1  H27C  296   2.322   4.489   4.367 -0.5850  1.1928 -1.0781
    5CHL1    C3  297   2.854   3.842   5.927 -1.1314  0.1346 -0.5068
    5CHL1    H3  298   2.744   3.838   5.911 -0.9305 -2.7548 -1.8005
    5CHL1    O3  299   2.870   3.808   6.061  0.4482 -0.1991  0.2832
    5CHL1   H3'  300   2.887   3.889   6.110  0.7281  0.0805 -0.2646
    5CHL1    C4  301   2.948   3.745   5.845  0.4933 -0.7292  0.2677
    5CHL1   H4A  302   3.054   3.755   5.876  0.2462  1.7405  0.5033
    5CHL1   H4B  303   2.925   3.637   5.857  0.9399 -0.9197 -0.4660
    5CHL1    C5  304   2.941   3.783   5.697 -0.5340 -0.6142  0.0109
    5CHL1    C6  305   2.913   3.696   5.600  0.2058 -0.0457  0.9833
    5CHL1    H6  306   2.907   3.591   5.632  2.7291 -1.1007 -1.5557
    5CHL1    C7  307   2.915   3.731   5.447  0.9051 -0.6454 -0.5883
    5CHL1   H7A  308   2.967   3.661   5.379 -0.1985  1.4562 -3.7915
    5CHL1   H7B  309   2.812   3.747   5.408  0.4984  2.2217  1.3043
    5CHL1    C8  310   2.979   3.869   5.422  0.2362 -0.2393  0.2921
    5CHL1    H8  311   3.090   3.856   5.423  0.1221 -1.3027  0.2510
    5CHL1   C14  312   2.939   3.920   5.287  0.0893 -0.9510 -0.4869
    5CHL1   H14  313   2.834   3.952   5.302  0.9034  1.9752 -0.3926
    5CHL1   C15  314   2.955   3.829   5.167  0.1498  0.1830  0.2681
    5CHL1  H15A  315   3.045   3.765   5.179  0.7228  1.4150  3.5466
    5CHL1  H15B  316   2.864   3.766   5.166  0.9932 -1.0679 -0.0023
    5CHL1   C16  317   2.970   3.923   5.047 -0.0798 -0.9297 -0.0995
    5CHL1  H16A  318   3.065   3.909   4.992  0.4179  1.5961  0.0247
    5CHL1  H16B  319   2.888   3.907   4.974 -1.1328 -0.5523  0.9651
    5CHL1   C17  320   2.958   4.070   5.104 -0.0422  0.3440  0.2597
    5CHL1   H17  321   2.852   4.100   5.095  0.4010  1.8519 -0.3037
    5CHL1   C13  322   3.002   4.056   5.251 -0.1208  0.0417  0.1637
    5CHL1   C18  323   3.161   4.046   5.249 -0.3412  0.4777  0.5655
    5CHL1  H18A  324   3.211   3.979   5.176 -0.5217 -0.5783  1.3763
    5CHL1  H18B  325   3.190   4.151   5.231  1.1428  0.1921  1.1531
    5CHL1  H18C  326   3.211   4.018   5.344  0.4919  0.9138  0.2684
    5CHL1   C12  327   2.966   4.162   5.350  0.1485 -0.3615 -0.7077
    5CHL1  H12A  328   3.012   4.261   5.326  0.1390 -0.0890  0.3694
    5CHL1  H12B  329   2.856   4.177   5.343 -0.3263 -2.4045  1.2215
    5CHL1   C11  330   3.004   4.117   5.493  0.9006 -0.1039  0.2333
    5CHL1  H11A  331   3.114   4.101   5.495  0.8879 -0.2676 -0.2811
    5CHL1  H11B  332   2.972   4.200   5.561 -0.2820 -0.7462  0.4793
    5CHL1    C9  333   2.946   3.976   5.532 -0.0010 -0.2547  0.5571
    5CHL1    H9  334   2.836   3.990   5.529  0.1331  1.7071  2.2190
    5CHL1   C10  335   2.977   3.932   5.672 -0.4545  0.1849 -0.1386
    5CHL1   C19  336   3.133   3.937   5.689 -0.1753  0.2544 -0.1641
    5CHL1  H19A  337   3.169   3.906   5.790 -0.8832  0.2116  0.0829
    5CHL1  H19B  338   3.191   3.874   5.618  0.2536 -1.1158  1.3326
    5CHL1  H19C  339   3.159   4.044   5.695 -2.0183  0.7927 -1.0964
    5CHL1    C1  340   2.898   4.026   5.771 -0.8280  0.7761 -0.7333
    5CHL1   H1A  341   2.927   4.133   5.765 -2.2891  1.3056  0.8662
    5CHL1   H1B  342   2.790   4.027   5.745 -0.4372  1.3336 -2.4559
    5CHL1    C2  343   2.906   3.983   5.916 -0.6251 -0.0906  0.0463
    5CHL1   H2A  344   2.860   4.052   5.990  3.2289  2.5264  0.3179
    5CHL1   H2B  345   3.011   3.988   5.951 -0.2978 -0.2651 -0.8884
    5CHL1   C20  346   3.031   4.163   5.007  0.5856 -0.2181 -0.0577
    5CHL1   H20  347   3.140   4.141   5.000  0.3951 -1.2281  0.0627
    5CHL1   C21  348   3.037   4.309   5.062 -0.1899 -0.3776  0.1343
    5CHL1  H21A  349   3.126   4.334   5.124  0.5318 -0.4793 -0.8483
    5CHL1  H21B  350   2.945   4.320   5.124  0.3105  0.3038  0.7810
    5CHL1  H21C  351   3.037   4.383   4.979 -0.0271 -1.5131 -0.9056
    5CHL1   C22  352   2.978   4.170   4.862 -0.2114  0.0752 -0.5726
    5CHL1  H22A  353   2.957   4.065   4.834  1.4687  0.0700 -1.9775
    5CHL1  H22B  354   2.876   4.213   4.861 -1.0134 -1.7172  0.1207
    5CHL1   C23  355   3.084   4.221   4.760 -0.0767  0.8373 -0.1567
    5CHL1  H23A  356   3.076   4.332   4.752  0.6185  1.2676  3.3662
    5CHL1  H23B  357   3.186   4.190   4.793  0.3570  0.3339 -1.8646
    5CHL1   C24  358   3.051   4.152   4.620 -0.0504 -0.2885  0.2375
    5CHL1  H24A  359   3.135   4.177   4.552 -0.8213 -2.7269 -1.7841
    5CHL1  H24B  360   3.044   4.043   4.642  0.6068 -0.2382  0.7146
    5CHL1   C25  361   2.926   4.198   4.549 -0.9474  1.0629 -0.1036
    5CHL1   H25  362   2.843   4.176   4.619 -0.8039  0.6185 -0.0710
    5CHL1   C26  363   2.937   4.345   4.516  0.5050 -0.4341  0.0279
    5CHL1  H26A  364   2.933   4.402   4.611  0.5240 -0.7885  0.2432
    5CHL1  H26B  365   3.039   4.360   4.474  0.9954 -0.8640  1.0421
    5CHL1  H26C  366   2.857   4.385   4.451 -0.2185 -1.4395  0.2700
    5CHL1   C27  367   2.897   4.115   4.428 -0.1056  0.3838  0.3207
    5CHL1  H27A  368   2.809   4.164   4.380  0.5462  0.5696 -0.7102
    5CHL1  H27B  369   2.987   4.117   4.363 -0.1829  0.2691  0.2079
    5CHL1  H27C  370   2.871   4.011   4.455 -0.1046 -0.2346 -1.8639
    6CHL1    C3  371   3.629   2.626   5.760  0.0060  0.1261 -0.6265
    6CHL1    H3  372   3.687   2.721   5.752  2.3540 -1.2163 -0.5137
    6CHL1    O3  373   3.576   2.616   5.888  0.8983 -0.6460 -0.2526
    6CHL1   H3'  374   3.651   2.651   5.938  2.4676  0.9136 -3.3763
    6CHL1    C4  375   3.514   2.626   5.659  0.1347  0.6186 -0.7102
    6CHL1   H4A  376   3.457   2.532   5.672  0.9348  0.4164  1.9163
    6CHL1   H4B  377   3.452   2.713   5.689 -1.9689 -1.3420  0.9338
    6CHL1    C5  378   3.568   2.629   5.513  0.2402  0.3946  0.8377
    6CHL1    C6  379   3.529   2.731   5.434  0.5399  0.4716  0.5419
    6CHL1    H6  380   3.466   2.808   5.482 -0.3689  0.8795 -1.2149
    6CHL1    C7  381   3.566   2.740   5.287  1.2809  0.4920  0.7268
    6CHL1   H7A  382   3.468   2.755   5.236 -0.1802  0.0191  3.2376
    6CHL1   H7B  383   3.627   2.829   5.260 -0.4433  1.3812 -0.4014
    6CHL1    C8  384   3.621   2.599   5.233  0.5492 -0.0114 -0.7502
    6CHL1    H8  385   3.537   2.526   5.222  0.1119  0.6044 -1.5591
    6CHL1   C14  386   3.683   2.618   5.100  0.1593 -0.3654  0.5746
    6CHL1   H14  387   3.769   2.688   5.109  0.1456 -0.2208 -0.2706
    6CHL1   C15  388   3.605   2.682   4.988 -0.3265 -0.4077 -0.3072
    6CHL1  H15A  389   3.505   2.633   4.981  0.1172 -1.5845  1.1665
    6CHL1  H15B  390   3.587   2.791   5.000 -0.9385 -0.4314 -0.9072
    6CHL1   C16  391   3.688   2.656   4.866 -0.6370  0.5739 -0.0475
    6CHL1  H16A  392   3.626   2.602   4.792 -0.0279  0.2084 -0.3046
    6CHL1  H16B  393   3.731   2.750   4.826 -1.4978  0.8407 -0.3675
    6CHL1   C17  394   3.797   2.554   4.906  0.1895  0.4375 -0.1343
    6CHL1   H17  395   3.891   2.612   4.922  0.6400 -0.1586 -0.5470
    6CHL1   C13  396   3.755   2.495   5.041  0.4678 -0.1150 -0.1787
    6CHL1   C18  397   3.645   2.383   5.021 -0.1445  0.3614  0.4117
    6CHL1  H18A  398   3.679   2.299   4.957 -3.0148 -0.3516 -0.3198
    6CHL1  H18B  399   3.607   2.338   5.115 -0.5062 -0.4904 -0.1305
    6CHL1  H18C  400   3.558   2.419   4.962  0.4497  1.9626  0.4593
    6CHL1   C12  401   3.870   2.464   5.135  0.8164  0.5019 -0.4290
    6CHL1  H12A  402   3.914   2.367   5.104 -0.9993 -0.0462 -1.4561
    6CHL1  H12B  403   3.941   2.549   5.132  0.3582  0.9708  1.1705
    6CHL1   C11  404   3.818   2.439   5.287  0.6264  0.3182 -0.0824
    6CHL1  H11A  405   3.760   2.345   5.282  0.1479  0.3963  2.3967
    6CHL1  H11B  406   3.906   2.420   5.353  0.1461 -3.8257 -0.3918
    6CHL1    C9  407   3.724   2.553   5.337  0.4717 -1.3730 -0.3683
    6CHL1    H9  408   3.779   2.649   5.339 -3.8024  1.4253 -2.9440
    6CHL1   C10  409   3.671   2.527   5.478 -0.7169 -0.6350 -0.2210
    6CHL1   C19  410   3.616   2.378   5.488 -0.2426 -0.0305 -0.5164
    6CHL1  H19A  411   3.576   2.356   5.589  3.0466  0.1595  0.9478
    6CHL1  H19B  412   3.535   2.364   5.412  0.5574  1.4583 -1.6909
    6CHL1  H19C  413   3.688   2.295   5.471 -2.0150 -1.5880 -0.8025
    6CHL1    C1  414   3.774   2.540   5.586  0.1239 -0.2520 -0.4473
    6CHL1   H1A  415   3.855   2.465   5.575 -1.4699 -2.4295  1.6329
    6CHL1   H1B  416   3.819   2.642   5.578 -2.4090  0.9850  0.1738
    6CHL1    C2  417   3.732   2.525   5.734 -0.0617 -0.0510 -0.1500
    6CHL1   H2A  418   3.822   2.524   5.799 -1.2631 -1.1164  1.5937
    6CHL1   H2B  419   3.688   2.424   5.750 -0.9462  0.4350  0.6282
    6CHL1   C20  420   3.835   2.448   4.794  0.1809 -1.1234 -0.2727
    6CHL1   H20  421   3.745   2.390   4.766 -1.0274 -0.8646  2.7238
    6CHL1   C21  422   3.952   2.367   4.844  0.0710 -0.0323 -0.2379
    6CHL1  H21A  423   3.984   2.294   4.766 -0.0236  1.1411 -1.4021
    6CHL1  H21B  424   3.912   2.303   4.926 -0.6228  0.7542  0.0608
    6CHL1  H21C  425   4.045   2.424   4.862 -0.2679  0.2485  0.7031
    6CHL1   C22  426   3.885   2.499   4.659  0.5448 -0.4868  0.1008
    6CHL1  H22A  427   3.811   2.572   4.619  2.6412  2.6757  1.6035
    6CHL1  H22B  428   3.981   2.553   4.674  1.2041 -2.0118  1.8554
    6CHL1   C23  429   3.898   2.392   4.551  0.1011  0.1575  1.2536
    6CHL1  H23A  430   3.983   2.325   4.576  0.5686  0.1127 -0.3366
    6CHL1  H23B  431   3.802   2.336   4.539 -1.1682  2.2981  1.0032
    6CHL1   C24  432   3.912   2.456   4.411  0.3289 -0.3852 -0.5146
    6CHL1  H24A  433   3.817   2.514   4.407  0.3472 -0.2893  0.2009
    6CHL1  H24B  434   4.002   2.520   4.406 -0.8575  1.6333  1.8147
    6CHL1   C25  435   3.921   2.358   4.294 -0.0373 -0.7348 -0.4222
    6CHL1   H25  436   4.002   2.283   4.309  0.8817  0.3126 -0.0974
    6CHL1   C26  437   3.783   2.282   4.274  0.3030 -0.2628 -0.8777
    6CHL1  H26A  438   3.760   2.225   4.366  1.3144  2.2249  1.0495
    6CHL1  H26B  439   3.699   2.349   4.244  1.1511  0.8071 -0.9423
    6CHL1  H26C  440   3.795   2.207   4.194 -2.1302 -1.0931 -0.5364
    6CHL1   C27  441   3.968   2.427   4.157  0.3293  0.0403 -0.1994
    6CHL1  H27A  442   3.886   2.499   4.134 -1.2570 -0.8095  2.3159
    6CHL1  H27B  443   4.059   2.484   4.184 -1.4508  2.1471  1.8859
    6CHL1  H27C  444   3.978   2.352   4.075 -0.3184  1.5677 -1.7481
    7CHL1    C3  445   1.789   2.148   5.738  0.3693 -0.2763  0.1090
    7CHL1    H3  446   1.804   2.039   5.720 -2.7740 -0.9697  1.1238
    7CHL1    O3  447   1.794   2.178   5.879  0.6751  0.2150  0.3943
    7CHL1   H3'  448   1.792   2.274   5.890  0.0840  0.4426 -1.3397
    7CHL1    C4  449   1.907   2.223   5.655  0.4278  0.0055  1.0037
    7CHL1   H4A  450   1.907   2.332   5.676  2.2267  0.4675 -1.1026
    7CHL1   H4B  451   1.994   2.173   5.703  1.2688 -0.4339 -0.8782
    7CHL1    C5  452   1.890   2.191   5.512  0.4006 -0.0837 -0.2136
    7CHL1    C6  453   1.983   2.129   5.442 -0.6884  0.2309 -0.4680
    7CHL1    H6  454   2.079   2.101   5.486 -0.2251  1.3689 -0.7284
    7CHL1    C7  455   1.978   2.115   5.288 -0.7190  0.7445  0.0055
    7CHL1   H7A  456   2.076   2.140   5.241 -0.6208  2.5829  1.0781
    7CHL1   H7B  457   1.964   2.010   5.258 -0.4635  0.3491  1.2066
    7CHL1    C8  458   1.875   2.198   5.219  0.6495  0.0266 -0.8351
    7CHL1    H8  459   1.903   2.305   5.211 -1.3469  0.6581 -0.1133
    7CHL1   C14  460   1.842   2.141   5.081  0.0449 -0.9186 -0.0442
    7CHL1   H14  461   1.794   2.043   5.101 -2.2965 -0.0977 -1.1701
    7CHL1   C15  462   1.965   2.124   4.989  0.1117 -0.1118 -0.3398
    7CHL1  H15A  463   2.030   2.213   5.003 -1.7538  0.8207  5.3306
    7CHL1  H15B  464   2.018   2.027   5.004 -0.1480 -0.0511  1.1198
    7CHL1   C16  465   1.901   2.130   4.845  0.6429  0.0540 -0.6587
    7CHL1  H16A  466   1.951   2.205   4.780  1.7426  0.9544  1.1663
    7CHL1  H16B  467   1.912   2.032   4.792 -1.8401 -0.3612 -0.5543
    7CHL1   C17  468   1.748   2.144   4.869  1.1434 -0.2993 -0.3465
    7CHL1   H17  469   1.723   2.037   4.883 -0.2752  0.1630  0.8992
    7CHL1   C13  470   1.736   2.214   5.011  0.5164  0.2984 -0.4887
    7CHL1   C18  471   1.772   2.363   4.989  0.8211 -1.0745  0.1971
    7CHL1  H18A  472   1.688   2.414   4.938  1.7575  0.7077  0.3612
    7CHL1  H18B  473   1.790   2.420   5.083 -0.5555  0.4784 -0.4347
    7CHL1  H18C  474   1.857   2.391   4.924  1.7860  2.8801  2.8035
    7CHL1   C12  475   1.606   2.194   5.093 -0.4357  0.0147 -0.4881
    7CHL1  H12A  476   1.518   2.245   5.049  0.0612  1.4528  0.1359
    7CHL1  H12B  477   1.594   2.084   5.110  0.2969  0.1795  1.3408
    7CHL1   C11  478   1.614   2.250   5.233  0.0243 -0.1344  0.4452
    7CHL1  H11A  479   1.617   2.361   5.232 -2.0540 -0.0004  1.6845
    7CHL1  H11B  480   1.517   2.237   5.286  0.2442  0.5232  1.0212
    7CHL1    C9  481   1.738   2.198   5.307  0.8509  0.3087 -0.0974
    7CHL1    H9  482   1.702   2.093   5.320 -0.7652  1.1815  3.7142
    7CHL1   C10  483   1.758   2.241   5.455  0.2864  0.3439 -0.7408
    7CHL1   C19  484   1.766   2.395   5.459  0.6156 -0.1073  0.7211
    7CHL1  H19A  485   1.661   2.427   5.443  0.3755 -1.8458 -1.8172
    7CHL1  H19B  486   1.801   2.445   5.551 -0.0272  1.1842  0.2954
    7CHL1  H19C  487   1.838   2.432   5.383 -0.0823 -0.5049 -0.1518
    7CHL1    C1  488   1.638   2.174   5.537  0.0775 -0.1332 -0.0981
    7CHL1   H1A  489   1.540   2.223   5.514 -1.0926 -1.8520  0.9743
    7CHL1   H1B  490   1.623   2.070   5.502 -0.7020 -0.2170  0.4482
    7CHL1    C2  491   1.656   2.190   5.690  0.2982 -1.0945 -0.0972
    7CHL1   H2A  492   1.576   2.132   5.740 -0.7015  1.0498  0.9194
    7CHL1   H2B  493   1.629   2.296   5.706 -1.0339 -1.8883  3.9123
    7CHL1   C20  494   1.673   2.203   4.750 -0.3514  0.3278  1.0171
    7CHL1   H20  495   1.712   2.303   4.722  1.3276 -0.5954 -0.0881
    7CHL1   C21  496   1.522   2.208   4.767 -0.2800 -0.0178 -0.5846
    7CHL1  H21A  497   1.488   2.120   4.827 -0.4013  0.1289 -0.4361
    7CHL1  H21B  498   1.467   2.208   4.671 -0.2728 -0.0342 -0.5889
    7CHL1  H21C  499   1.503   2.301   4.824 -0.5781 -0.7622  0.5846
    7CHL1   C22  500   1.700   2.117   4.613 -0.7443 -0.5425  0.1634
    7CHL1  H22A  501   1.637   2.172   4.539 -0.3845  0.1418  0.3532
    7CHL1  H22B  502   1.804   2.136   4.581 -0.4360  0.1311  1.5252
    7CHL1   C23  503   1.664   1.971   4.628 -0.3689 -0.9832 -0.1767
    7CHL1  H23A  504   1.749   1.925   4.683  1.9401  1.5259 -1.3852
    7CHL1  H23B  505   1.567   1.960   4.681  0.1847  1.1254  1.4264
    7CHL1   C24  506   1.647   1.899   4.491  0.0406 -0.1125 -0.1533
    7CHL1  H24A  507   1.629   1.790   4.500  0.4816 -0.2473 -0.8285
    7CHL1  H24B  508   1.560   1.946   4.441 -0.8627 -1.0300  0.5225
    7CHL1   C25  509   1.774   1.913   4.397  0.1642 -0.2928  0.0343
    7CHL1   H25  510   1.797   2.020   4.376  0.7686 -0.5415 -0.6188
    7CHL1   C26  511   1.897   1.850   4.468 -0.2866  0.1811  0.3259
    7CHL1  H26A  512   1.956   1.933   4.512 -0.9244 -0.3025  2.1902
    7CHL1  H26B  513   1.870   1.792   4.559 -1.7886  2.1600  1.2296
    7CHL1  H26C  514   1.958   1.797   4.392 -0.3405  1.7933 -0.9134
    7CHL1   C27  515   1.729   1.843   4.269 -0.0369  0.2786 -1.0334
    7CHL1  H27A  516   1.811   1.857   4.195 -1.1126 -1.3693 -2.6471
    7CHL1  H27B  517   1.714   1.733   4.278 -1.1188  0.5362  0.6686
    7CHL1  H27C  518   1.639   1.889   4.224 -2.0118  0.5122  2.7579
    8CHL1    C3  519   3.534   4.210   6.030 -1.2985  0.0976  0.2087
    8CHL1    H3  520   3.539   4.319   6.048 -0.3384 -0.1012  1.2517
    8CHL1    O3  521   3.550   4.148   6.153 -0.0559  0.7053 -0.4307
    8CHL1   H3'  522   3.645   4.137   6.167 -0.0726  0.0274 -0.8241
    8CHL1    C4  523   3.409   4.168   5.963 -0.0737  0.9951 -0.0477
    8CHL1   H4A  524   3.401   4.058   5.951  0.6437  0.9551 -0.1659
    8CHL1   H4B  525   3.326   4.195   6.032 -1.3623 -1.0673 -0.6845
    8CHL1    C5  526   3.386   4.231   5.828  0.4805  0.3567 -0.1406
    8CHL1    C6  527   3.280   4.305   5.801  0.6477  0.3105  0.0655
    8CHL1    H6  528   3.202   4.318   5.878  1.2755 -1.1004  0.9789
    8CHL1    C7  529   3.262   4.375   5.670 -0.2402  0.4531  0.6769
    8CHL1   H7A  530   3.155   4.373   5.641 -0.9403  1.8094  2.8886
    8CHL1   H7B  531   3.274   4.484   5.690  2.7835 -0.1086  2.6825
    8CHL1    C8  532   3.356   4.339   5.555  0.1435 -0.0364  0.2062
    8CHL1    H8  533   3.312   4.257   5.494  0.5604 -0.8310  0.9407
    8CHL1   C14  534   3.371   4.464   5.461 -0.2604 -0.3835 -0.0196
    8CHL1   H14  535   3.424   4.540   5.523  2.0849 -2.8948  1.2902
    8CHL1   C15  536   3.239   4.523   5.406  0.2973 -0.8773 -0.4518
    8CHL1  H15A  537   3.169   4.438   5.386 -4.0254  1.8059  1.7512
    8CHL1  H15B  538   3.189   4.592   5.476 -0.4257 -1.2267 -0.6085
    8CHL1   C16  539   3.288   4.597   5.276  0.0722 -0.1346  0.2341
    8CHL1  H16A  540   3.236   4.554   5.187  0.8511 -0.2969 -0.1619
    8CHL1  H16B  541   3.279   4.707   5.277  0.0192 -0.1232 -0.5607
    8CHL1   C17  542   3.440   4.568   5.267  0.8091 -0.1647 -0.3784
    8CHL1   H17  543   3.487   4.654   5.319  0.7177 -0.4679  0.2063
    8CHL1   C13  544   3.459   4.440   5.338  0.2202  0.9591  0.7064
    8CHL1   C18  545   3.406   4.325   5.247  0.3702  0.3351  0.1870
    8CHL1  H18A  546   3.483   4.313   5.168  0.5165  0.8736  0.2474
    8CHL1  H18B  547   3.399   4.227   5.298  0.2968  0.5083  0.5146
    8CHL1  H18C  548   3.311   4.356   5.198  0.2543  3.2485  2.0397
    8CHL1   C12  549   3.598   4.398   5.385  0.1273  0.0220  0.0822
    8CHL1  H12A  550   3.662   4.372   5.298 -0.3518  0.6871 -0.4802
    8CHL1  H12B  551   3.658   4.480   5.430  0.8955 -0.5248  0.0790
    8CHL1   C11  552   3.598   4.276   5.481  0.0676 -0.6221 -0.0937
    8CHL1  H11A  553   3.572   4.190   5.416 -0.6367 -1.0292  0.7073
    8CHL1  H11B  554   3.704   4.259   5.511  0.9131  3.1928 -0.3927
    8CHL1    C9  555   3.496   4.298   5.598 -0.0300 -1.0990  0.2735
    8CHL1    H9  556   3.528   4.395   5.640 -0.2319 -0.8793 -0.0690
    8CHL1   C10  557   3.500   4.209   5.721 -0.2069  0.6147  0.1240
    8CHL1   C19  558   3.507   4.061   5.668 -0.6388  0.3197  0.0603
    8CHL1  H19A  559   3.605   4.043   5.619  0.3524  4.1452  0.3361
    8CHL1  H19B  560   3.509   3.986   5.750  1.0319 -0.4803 -0.6601
    8CHL1  H19C  561   3.436   4.026   5.590  2.1028 -3.8309 -0.8933
    8CHL1    C1  562   3.635   4.238   5.804  1.2365  0.5157 -0.0983
    8CHL1   H1A  563   3.720   4.218   5.735 -0.0781  0.2420 -1.7236
    8CHL1   H1B  564   3.654   4.342   5.838 -2.8640  1.0500  1.0292
    8CHL1    C2  565   3.647   4.167   5.942 -0.0518 -0.2245  0.2520
    8CHL1   H2A  566   3.746   4.185   5.990  0.2830 -2.6870  0.6362
    8CHL1   H2B  567   3.641   4.057   5.926 -2.6090 -0.3142  1.4225
    8CHL1   C20  568   3.499   4.589   5.123 -0.1373 -0.6244 -0.5859
    8CHL1   H20  569   3.484   4.500   5.058  3.9776 -2.3318  0.4270
    8CHL1   C21  570   3.657   4.605   5.132  0.5680 -1.0596 -0.2838
    8CHL1  H21A  571   3.683   4.500   5.155 -0.9833 -1.8457 -1.8572
    8CHL1  H21B  572   3.687   4.684   5.204  1.2986 -0.4356 -1.2376
    8CHL1  H21C  573   3.699   4.623   5.030  1.0619  0.3354  0.1314
    8CHL1   C22  574   3.449   4.721   5.060 -0.0267  0.4353  0.3486
    8CHL1  H22A  575   3.338   4.717   5.067  0.0380 -2.9898  1.4411
    8CHL1  H22B  576   3.491   4.802   5.122  1.5653 -1.6286  2.1397
    8CHL1   C23  577   3.468   4.729   4.907  0.1277  0.2954 -0.0650
    8CHL1  H23A  578   3.578   4.710   4.902  0.4577  2.2301 -1.5032
    8CHL1  H23B  579   3.409   4.652   4.853  0.5717 -0.0479 -0.0657
    8CHL1   C24  580   3.435   4.873   4.849  0.0672 -0.8061  0.6892
    8CHL1  H24A  581   3.339   4.893   4.902  0.2272  2.1972 -0.0165
    8CHL1  H24B  582   3.518   4.941   4.877 -0.4001 -0.3601  1.0202
    8CHL1   C25  583   3.404   4.888   4.700  0.1672  0.2929  0.7784
    8CHL1   H25  584   3.323   4.818   4.669  0.9973 -0.4107  0.1479
    8CHL1   C26  585   3.390   5.037   4.664 -0.2420 -0.1305  0.4573
    8CHL1  H26A  586   3.297   5.078   4.710 -1.6217  0.2363 -2.4173
    8CHL1  H26B  587   3.473   5.097   4.706 -0.7058  0.3574  0.6984
    8CHL1  H26C  588   3.396   5.052   4.554  2.5958 -1.1994  0.3921
    8CHL1   C27  589   3.519   4.831   4.613 -0.3294 -0.3092 -0.5055
    8CHL1  H27A  590   3.540   4.725   4.636 -2.1280 -0.4206  0.8407
    8CHL1  H27B  591   3.506   4.833   4.503 -1.7823 -1.8356 -0.4004
    8CHL1  H27C  592   3.614   4.888   4.626  0.3593 -1.7335  0.9320
    9CHL1    C3  593   5.072   3.984   5.866  0.7030  0.0274  0.7859
    9CHL1    H3  594   4.965   3.998   5.893 -0.4041 -0.9056 -2.6584
    9CHL1    O3  595   5.146   3.982   5.987  0.1360  0.3053  0.3518
    9CHL1   H3'  596   5.118   3.907   6.039 -2.4060  0.5721 -0.4442
    9CHL1    C4  597   5.095   3.850   5.791 -0.0713  0.1532 -0.0521
    9CHL1   H4A  598   5.204   3.832   5.787 -0.3683 -2.0064  0.4086
    9CHL1   H4B  599   5.064   3.764   5.855 -0.9687 -0.3279 -1.1007
    9CHL1    C5  600   5.029   3.838   5.656  0.2209 -0.1520  1.2371
    9CHL1    C6  601   4.941   3.737   5.631 -0.0461 -0.3995 -0.1867
    9CHL1    H6  602   4.910   3.659   5.701  0.9623 -0.7589 -0.1408
    9CHL1    C7  603   4.873   3.733   5.499 -0.3360 -0.4296 -0.2583
    9CHL1   H7A  604   4.891   3.632   5.455  0.6022 -0.0948 -0.6512
    9CHL1   H7B  605   4.764   3.746   5.515 -0.1932 -0.6283  0.9958
    9CHL1    C8  606   4.919   3.831   5.391 -0.4318  0.0318 -0.2936
    9CHL1    H8  607   5.019   3.796   5.358 -1.2527 -2.7189 -0.0866
    9CHL1   C14  608   4.826   3.848   5.277  0.2325 -0.2554  0.3230
    9CHL1   H14  609   4.734   3.889   5.324 -1.2318 -1.7991 -1.0692
    9CHL1   C15  610   4.775   3.720   5.199 -0.1287  0.8075 -0.2170
    9CHL1  H15A  611   4.859   3.655   5.170 -1.2623  0.4909 -3.0527
    9CHL1  H15B  612   4.721   3.657   5.273 -0.7655  0.3313 -1.0686
    9CHL1   C16  613   4.699   3.783   5.082 -0.3157 -0.6456 -0.2680
    9CHL1  H16A  614   4.737   3.740   4.987 -0.8021 -0.0078 -0.7670
    9CHL1  H16B  615   4.588   3.776   5.086 -0.3592  0.3404  0.8984
    9CHL1   C17  616   4.733   3.933   5.078  0.0320 -0.5307  0.3432
    9CHL1   H17  617   4.651   3.987   5.131  0.0739  0.6276 -0.7367
    9CHL1   C13  618   4.856   3.952   5.168  0.6367  0.1013 -0.6532
    9CHL1   C18  619   4.987   3.922   5.090 -0.6364  0.5156 -0.2078
    9CHL1  H18A  620   4.977   3.825   5.037 -0.8256  0.3880  0.0615
    9CHL1  H18B  621   5.005   4.009   5.023 -1.0734 -0.2699 -1.3753
    9CHL1  H18C  622   5.076   3.910   5.155 -0.8183  1.6280  0.2712
    9CHL1   C12  623   4.869   4.086   5.238  0.6137 -0.5031 -0.0438
    9CHL1  H12A  624   4.889   4.167   5.165  2.1785 -1.4012 -0.6710
    9CHL1  H12B  625   4.763   4.110   5.264  0.5415 -0.7358 -0.1137
    9CHL1   C11  626   4.958   4.085   5.362 -0.8037  0.6698 -0.0106
    9CHL1  H11A  627   5.062   4.094   5.322 -0.7151  1.3609  0.3745
    9CHL1  H11B  628   4.956   4.179   5.420 -0.1349 -0.3500  1.7718
    9CHL1    C9  629   4.947   3.968   5.458  0.3397 -0.0763 -0.2471
    9CHL1    H9  630   4.853   3.985   5.515  1.2540 -0.8037  1.5805
    9CHL1   C10  631   5.055   3.958   5.559 -0.9303  0.1811 -1.0600
    9CHL1   C19  632   5.198   3.943   5.500  0.1904  0.5236 -0.1757
    9CHL1  H19A  633   5.218   3.838   5.469  0.3404  1.0728 -2.0761
    9CHL1  H19B  634   5.217   4.008   5.411  1.4255 -0.6270 -0.7919
    9CHL1  H19C  635   5.281   3.962   5.572  1.6756 -0.5869 -1.5165
    9CHL1    C1  636   5.057   4.090   5.640 -0.5025  0.7363 -0.3841
    9CHL1   H1A  637   5.108   4.169   5.580  0.2168 -0.7624 -1.8102
    9CHL1   H1B  638   4.952   4.123   5.657  0.1665  2.5019  0.5317
    9CHL1    C2  639   5.112   4.098   5.782  0.2766 -0.0462  0.3662
    9CHL1   H2A  640   5.084   4.192   5.834  0.9663 -1.2422  3.0395
    9CHL1   H2B  641   5.222   4.099   5.773  0.3583  2.3875  1.1013
    9CHL1   C20  642   4.733   3.978   4.933  0.3771  0.0864  0.4956
    9CHL1   H20  643   4.815   3.927   4.879  0.5195 -0.5354  1.2883
    9CHL1   C21  644   4.753   4.129   4.924  0.5497 -0.0568  0.2696
    9CHL1  H21A  645   4.842   4.170   4.977  1.5337 -1.0986 -0.5269
    9CHL1  H21B  646   4.670   4.190   4.968 -0.9733 -1.4465 -0.5732
    9CHL1  H21C  647   4.772   4.158   4.819  0.1851  0.9578  0.4703
    9CHL1   C22  648   4.604   3.934   4.866  0.1816  0.0938  0.6797
    9CHL1  H22A  649   4.608   3.825   4.845 -0.5024  0.3865 -1.1608
    9CHL1  H22B  650   4.510   3.954   4.922 -0.9399 -0.3389 -0.9764
    9CHL1   C23  651   4.588   3.987   4.723 -0.2528 -0.2890  0.4140
    9CHL1  H23A  652   4.578   4.097   4.737 -1.5443 -0.6579  2.7348
    9CHL1  H23B  653   4.680   3.966   4.664 -0.6195  0.1586 -0.3333
    9CHL1   C24  654   4.464   3.933   4.662  0.2564 -0.3642  0.5548
    9CHL1  H24A  655   4.397   3.884   4.736 -1.5463  0.3777 -0.4976
    9CHL1  H24B  656   4.402   4.014   4.618  2.0482  0.5629 -0.3790
    9CHL1   C25  657   4.505   3.827   4.554 -0.0306  0.5878  0.5237
    9CHL1   H25  658   4.565   3.745   4.599  1.1841  1.8897  1.3583
    9CHL1   C26  659   4.379   3.761   4.509 -0.1769  0.2614 -0.5419
    9CHL1  H26A  660   4.336   3.689   4.581  0.7323  1.2056  0.9831
    9CHL1  H26B  661   4.295   3.834   4.499  0.2322  0.5724 -1.9567
    9CHL1  H26C  662   4.387   3.703   4.414 -1.5407 -2.8599  1.0997
    9CHL1   C27  663   4.580   3.875   4.423  0.1795 -0.5805 -0.1121
    9CHL1  H27A  664   4.678   3.924   4.444  0.7966 -0.5902 -2.6443
    9CHL1  H27B  665   4.625   3.796   4.360  1.6525  0.1284 -0.0049
    9CHL1  H27C  666   4.507   3.942   4.374 -1.6553 -1.8928  0.7100
   10CHL1    C3  667   1.350   3.670   5.841 -0.2047  0.2472  0.0341
   10CHL1    H3  668   1.456   3.659   5.813  0.0756 -1.4227  1.5812
   10CHL1    O3  669   1.328   3.636   5.980  0.2976  0.1131  0.3432
   10CHL1   H3'  670   1.288   3.708   6.030 -1.1360 -2.4397  3.2802
   10CHL1    C4  671   1.299   3.812   5.827 -0.4546  0.0343  0.3319
   10CHL1   H4A  672   1.193   3.820   5.859 -0.0840  1.6669  1.2633
   10CHL1   H4B  673   1.349   3.881   5.899 -1.6947  0.5895  0.6878
   10CHL1    C5  674   1.292   3.860   5.687 -0.3105  0.6201 -0.4698
   10CHL1    C6  675   1.340   3.982   5.664 -0.7684 -0.6189 -1.4166
   10CHL1    H6  676   1.394   4.022   5.752 -0.7598  1.0396 -2.1397
   10CHL1    C7  677   1.368   4.051   5.534 -0.0631 -0.2333  0.0445
   10CHL1   H7A  678   1.329   4.153   5.513 -0.7181 -0.9806 -2.7257
   10CHL1   H7B  679   1.477   4.054   5.510 -0.3224  0.3145 -1.1442
   10CHL1    C8  680   1.294   3.970   5.426 -0.2297  0.0237 -0.1097
   10CHL1    H8  681   1.188   4.001   5.416  0.3959  1.7677 -2.5339
   10CHL1   C14  682   1.348   4.003   5.287  0.0106 -0.4156 -0.7741
   10CHL1   H14  683   1.451   3.963   5.281 -1.1311 -3.5700 -1.0274
   10CHL1   C15  684   1.357   4.151   5.248 -0.1073 -0.6270  0.6276
   10CHL1  H15A  685   1.271   4.211   5.284  0.5368  0.8233 -0.1435
   10CHL1  H15B  686   1.441   4.211   5.289  1.2205 -1.5830 -0.6103
   10CHL1   C16  687   1.356   4.150   5.097  0.3212 -0.3784  0.3878
   10CHL1  H16A  688   1.267   4.211   5.073 -0.9779 -1.4400  2.1955
   10CHL1  H16B  689   1.444   4.188   5.041 -0.3179  1.1546  0.3904
   10CHL1   C17  690   1.327   4.000   5.046 -0.0702 -1.1031 -0.0794
   10CHL1   H17  691   1.425   3.949   5.035 -1.6539 -3.7934 -3.8120
   10CHL1   C13  692   1.263   3.932   5.171  0.2540  0.0461 -0.2494
   10CHL1   C18  693   1.104   3.968   5.179 -0.5516  0.6108 -0.3214
   10CHL1  H18A  694   1.058   3.938   5.083  2.3070  0.3383 -1.7156
   10CHL1  H18B  695   1.049   3.924   5.265  0.4150  2.3140  1.2494
   10CHL1  H18C  696   1.088   4.078   5.183 -1.4716  0.4893 -0.4238
   10CHL1   C12  697   1.282   3.779   5.183 -0.3229 -0.6615 -0.0066
   10CHL1  H12A  698   1.220   3.726   5.108 -0.9955  1.2502 -0.8547
   10CHL1  H12B  699   1.391   3.762   5.166 -0.3440 -1.9002  0.9506
   10CHL1   C11  700   1.248   3.732   5.326  0.7081 -0.1426 -0.5488
   10CHL1  H11A  701   1.138   3.727   5.320  0.7296 -0.5683 -0.5593
   10CHL1  H11B  702   1.278   3.626   5.340  0.1434 -0.2464 -0.1181
   10CHL1    C9  703   1.300   3.812   5.440  0.1547 -0.5448 -0.9793
   10CHL1    H9  704   1.409   3.790   5.447  0.1008 -0.3127  1.3413
   10CHL1   C10  705   1.249   3.763   5.573  0.6861  0.0321 -0.3528
   10CHL1   C19  706   1.089   3.779   5.574  0.5136  0.5820 -0.3787
   10CHL1  H19A  707   1.064   3.887   5.571  0.6264  0.6281  0.1988
   10CHL1  H19B  708   1.041   3.719   5.494  1.0180 -2.3344  1.3854
   10CHL1  H19C  709   1.055   3.738   5.671  1.5588  1.8780  0.5714
   10CHL1    C1  710   1.290   3.616   5.596  0.4310  0.0364 -0.4540
   10CHL1   H1A  711   1.211   3.556   5.547  0.2184  0.9810 -1.3040
   10CHL1   H1B  712   1.395   3.594   5.566  1.1912 -0.1538  2.0453
   10CHL1    C2  713   1.266   3.579   5.749 -0.0783 -0.1689 -0.2694
   10CHL1   H2A  714   1.296   3.474   5.766 -0.0482 -0.1267 -0.0610
   10CHL1   H2B  715   1.157   3.597   5.763 -0.3751 -1.3016 -0.9632
   10CHL1   C20  716   1.252   3.996   4.912  0.6676  0.4673  0.1079
   10CHL1   H20  717   1.148   4.033   4.929  0.2923  1.6265 -3.5868
   10CHL1   C21  718   1.242   3.853   4.867  0.3141  0.3153 -0.6043
   10CHL1  H21A  719   1.174   3.786   4.922  0.3771 -0.9283 -1.9617
   10CHL1  H21B  720   1.343   3.807   4.877  1.1945  2.4940  1.3475
   10CHL1  H21C  721   1.214   3.848   4.759  1.9708  3.7150 -1.3362
   10CHL1   C22  722   1.319   4.084   4.803  1.0064 -0.0189 -0.5765
   10CHL1  H22A  723   1.259   4.065   4.712  0.4602 -1.6231  0.0857
   10CHL1  H22B  724   1.315   4.191   4.831  1.0766 -0.2109  0.1940
   10CHL1   C23  725   1.460   4.056   4.763 -0.0869  0.2212 -0.4824
   10CHL1  H23A  726   1.521   4.088   4.851  0.3570  1.0147 -1.0672
   10CHL1  H23B  727   1.470   3.946   4.771 -1.6960  0.0809  0.1378
   10CHL1   C24  728   1.486   4.128   4.629 -0.0889 -0.4264 -0.9073
   10CHL1  H24A  729   1.573   4.078   4.581 -0.6873 -1.1566 -1.2420
   10CHL1  H24B  730   1.411   4.110   4.549  2.2269  0.5184 -3.4497
   10CHL1   C25  731   1.504   4.287   4.636  0.4639 -0.3002 -0.3313
   10CHL1   H25  732   1.418   4.335   4.687 -0.1676  0.9320 -2.4429
   10CHL1   C26  733   1.627   4.318   4.717  0.3829 -0.2115 -0.1524
   10CHL1  H26A  734   1.633   4.429   4.726 -1.4047 -0.1702  1.0602
   10CHL1  H26B  735   1.607   4.278   4.819  0.6051  0.5205  0.1921
   10CHL1  H26C  736   1.724   4.286   4.674  1.1406  2.3655 -0.5692
   10CHL1   C27  737   1.512   4.360   4.499  0.1276 -0.3160 -0.4218
   10CHL1  H27A  738   1.427   4.336   4.432 -0.2918 -2.0775  0.6553
   10CHL1  H27B  739   1.511   4.470   4.512  0.3624 -0.4640  1.1479
   10CHL1  H27C  740   1.602   4.324   4.444 -0.0371 -0.4905 -0.5787
   11CHL1    C3  741   5.907   3.862   5.734  0.5482  0.2397  0.1978
   11CHL1    H3  742   6.008   3.862   5.688  1.1039 -1.1964  1.3832
   11CHL1    O3  743   5.910   3.906   5.872 -0.8485 -0.6429  1.1007
   11CHL1   H3'  744   5.848   3.978   5.877 -0.2959  0.0811 -1.1384
   11CHL1    C4  745   5.805   3.952   5.648 -0.1079 -0.5867  0.6718
   11CHL1   H4A  746   5.712   3.941   5.708 -0.8255  0.8176 -0.1387
   11CHL1   H4B  747   5.848   4.054   5.662  1.9064 -1.3285  0.1140
   11CHL1    C5  748   5.777   3.913   5.499 -0.0984  0.4850 -1.0592
   11CHL1    C6  749   5.790   3.996   5.401  0.4576 -0.2051  0.7427
   11CHL1    H6  750   5.814   4.102   5.416 -2.1645  0.4829  0.6019
   11CHL1    C7  751   5.769   3.955   5.261  0.2652 -0.2900 -0.0956
   11CHL1   H7A  752   5.714   4.032   5.203 -0.0108 -0.4368 -0.0324
   11CHL1   H7B  753   5.868   3.941   5.214  1.0581  2.6528  0.5009
   11CHL1    C8  754   5.691   3.821   5.246 -0.4492  0.6713 -0.7846
   11CHL1    H8  755   5.587   3.847   5.272  0.1878  0.8839  1.8009
   11CHL1   C14  756   5.699   3.771   5.103  0.7313 -0.3794  0.7143
   11CHL1   H14  757   5.806   3.762   5.076  0.8568  2.4709 -0.0222
   11CHL1   C15  758   5.653   3.875   5.002  0.0767 -0.2018  0.0881
   11CHL1  H15A  759   5.561   3.922   5.043 -0.3142 -0.7265 -0.1833
   11CHL1  H15B  760   5.743   3.938   4.984  1.7874 -3.0357 -2.2160
   11CHL1   C16  761   5.616   3.792   4.878 -0.3973  0.9699  0.7987
   11CHL1  H16A  762   5.512   3.814   4.845  0.1721  0.6015 -1.3315
   11CHL1  H16B  763   5.682   3.810   4.791 -0.0025  0.3253  0.9602
   11CHL1   C17  764   5.626   3.638   4.917 -0.3442 -0.5006  0.4676
   11CHL1   H17  765   5.728   3.600   4.895  0.0319  0.7450 -0.0279
   11CHL1   C13  766   5.620   3.638   5.073  0.7060  0.1491 -0.3177
   11CHL1   C18  767   5.467   3.665   5.111  0.0657 -0.2231 -0.3350
   11CHL1  H18A  768   5.466   3.686   5.220 -0.7257  0.1577 -0.4079
   11CHL1  H18B  769   5.423   3.760   5.072  0.5469 -0.2359 -0.9109
   11CHL1  H18C  770   5.402   3.577   5.091  0.7060 -0.1485 -3.0838
   11CHL1   C12  771   5.683   3.532   5.157 -0.2632 -0.3490 -0.2863
   11CHL1  H12A  772   5.625   3.438   5.148 -0.7085  0.1047 -3.0585
   11CHL1  H12B  773   5.786   3.508   5.121  0.5867  1.6755  0.5991
   11CHL1   C11  774   5.697   3.567   5.311  0.3942  0.3191 -0.2108
   11CHL1  H11A  775   5.596   3.540   5.351 -0.0981 -1.5707 -2.5225
   11CHL1  H11B  776   5.763   3.491   5.358  0.9959 -0.0737 -1.6552
   11CHL1    C9  777   5.744   3.711   5.340  0.0571 -1.4514 -0.1907
   11CHL1    H9  778   5.852   3.698   5.318 -0.0658 -0.3137 -1.5811
   11CHL1   C10  779   5.741   3.762   5.485 -0.7547 -0.4986  0.0154
   11CHL1   C19  780   5.597   3.752   5.541  0.0337 -0.2579 -0.1599
   11CHL1  H19A  781   5.518   3.817   5.498  0.1079 -0.0811 -0.0302
   11CHL1  H19B  782   5.565   3.648   5.516 -0.4497 -0.9403  2.8962
   11CHL1  H19C  783   5.584   3.755   5.651  1.4496  1.7776  0.0066
   11CHL1    C1  784   5.833   3.672   5.578 -0.2568  0.4159  0.1195
   11CHL1   H1A  785   5.788   3.571   5.589 -0.0167  0.5473  2.9331
   11CHL1   H1B  786   5.930   3.662   5.524 -0.5553  0.4470 -0.4311
   11CHL1    C2  787   5.854   3.716   5.724  0.2466  0.6966  0.1761
   11CHL1   H2A  788   5.941   3.658   5.762 -0.3166  0.0751  0.5479
   11CHL1   H2B  789   5.764   3.686   5.783  1.7739 -3.0604  0.8814
   11CHL1   C20  790   5.518   3.556   4.845 -0.6119  0.2730 -0.0622
   11CHL1   H20  791   5.415   3.582   4.877 -0.9173 -1.6448  0.6738
   11CHL1   C21  792   5.534   3.412   4.881  0.1662  0.4240 -0.1647
   11CHL1  H21A  793   5.469   3.338   4.829 -0.0282  0.3523  0.1753
   11CHL1  H21B  794   5.503   3.399   4.987 -1.7823 -0.0198 -0.7561
   11CHL1  H21C  795   5.643   3.390   4.871 -0.1369 -0.7349 -1.1762
   11CHL1   C22  796   5.516   3.565   4.689 -0.9093 -0.2307 -0.2111
   11CHL1  H22A  797   5.433   3.505   4.647 -3.1917  2.3848  0.2798
   11CHL1  H22B  798   5.486   3.668   4.661 -0.0813  0.3950  1.1470
   11CHL1   C23  799   5.652   3.542   4.630 -0.5722  0.2681  0.3946
   11CHL1  H23A  800   5.724   3.626   4.636 -1.1113  1.1654 -3.3873
   11CHL1  H23B  801   5.695   3.452   4.679 -1.3605 -1.1757 -1.4306
   11CHL1   C24  802   5.654   3.510   4.481 -0.1897 -0.2268  0.2823
   11CHL1  H24A  803   5.589   3.422   4.463 -0.7170  0.3200 -0.5569
   11CHL1  H24B  804   5.614   3.597   4.425  3.6392  1.4553 -0.1662
   11CHL1   C25  805   5.789   3.474   4.424  0.3436 -0.0515  0.0539
   11CHL1   H25  806   5.840   3.413   4.502  1.2446  0.1038 -0.3983
   11CHL1   C26  807   5.762   3.390   4.295 -0.0542  0.7641  0.6866
   11CHL1  H26A  808   5.706   3.298   4.322  0.5517  0.7568  1.9512
   11CHL1  H26B  809   5.705   3.449   4.219  0.2360 -0.9512 -0.9547
   11CHL1  H26C  810   5.859   3.352   4.257 -0.7977  0.7004 -1.2702
   11CHL1   C27  811   5.877   3.601   4.413 -0.4293 -0.3357  0.1156
   11CHL1  H27A  812   5.963   3.586   4.345 -0.9575 -3.4892 -0.0196
   11CHL1  H27B  813   5.812   3.682   4.376 -1.2059 -0.8861  0.2393
   11CHL1  H27C  814   5.915   3.619   4.516 -1.6924 -0.4303  0.6238
   12CHL1    C3  815   5.098   3.016   5.785 -0.5122 -0.3193 -0.0812
   12CHL1    H3  816   5.037   3.109   5.778 -0.8042 -0.6089 -3.4555
   12CHL1    O3  817   5.178   3.013   5.901  0.8424  0.0523 -0.2686
   12CHL1   H3'  818   5.242   2.944   5.886 -0.1541 -1.3153  1.3567
   12CHL1    C4  819   5.004   2.894   5.779  0.0022  0.4552  0.2518
   12CHL1   H4A  820   5.065   2.802   5.784 -2.5420 -1.2875  0.9052
   12CHL1   H4B  821   4.929   2.896   5.861 -0.4992  1.5965 -0.2101
   12CHL1    C5  822   4.923   2.893   5.647 -0.4279  0.2745 -0.6947
   12CHL1    C6  823   4.786   2.888   5.652 -0.2931 -0.1050  0.9450
   12CHL1    H6  824   4.740   2.875   5.751  1.4754  0.1726  1.8580
   12CHL1    C7  825   4.705   2.884   5.526 -0.1105  0.5624  0.7195
   12CHL1   H7A  826   4.622   2.810   5.529 -0.1727  0.5454 -0.8988
   12CHL1   H7B  827   4.646   2.979   5.521  0.3119  0.7736 -0.4391
   12CHL1    C8  828   4.782   2.878   5.389 -0.3573  0.4986 -0.0915
   12CHL1    H8  829   4.811   2.771   5.382  0.2308  0.5711  1.0208
   12CHL1   C14  830   4.700   2.929   5.271 -0.3797 -0.3657 -0.2690
   12CHL1   H14  831   4.688   3.037   5.297  0.4004 -0.0516 -1.1626
   12CHL1   C15  832   4.563   2.863   5.250  0.1595 -0.3908  0.4015
   12CHL1  H15A  833   4.568   2.753   5.262 -0.8206 -0.4258  0.5981
   12CHL1  H15B  834   4.478   2.897   5.313  0.1138 -1.9317  1.2051
   12CHL1   C16  835   4.528   2.903   5.106  0.1931 -0.6846  0.0736
   12CHL1  H16A  836   4.498   2.817   5.041  0.7832 -0.8851  0.0546
   12CHL1  H16B  837   4.450   2.982   5.100 -0.7079 -1.6183 -1.2379
   12CHL1   C17  838   4.653   2.974   5.040  0.8598 -0.4555 -0.3077
   12CHL1   H17  839   4.651   3.085   5.051  0.5205 -0.4646 -0.2775
   12CHL1   C13  840   4.767   2.920   5.131  0.1403 -0.2911  0.6216
   12CHL1   C18  841   4.784   2.772   5.094 -0.1242  0.2399  0.6174
   12CHL1  H18A  842   4.872   2.732   5.150  2.2077  2.7518 -0.9919
   12CHL1  H18B  843   4.696   2.709   5.118 -0.1183 -0.3297 -0.7681
   12CHL1  H18C  844   4.801   2.756   4.985 -2.0635 -1.8573  0.5472
   12CHL1   C12  845   4.892   3.005   5.128  0.2995  0.0810  0.4374
   12CHL1  H12A  846   4.939   2.984   5.029 -0.4919  0.7225 -0.0884
   12CHL1  H12B  847   4.870   3.113   5.140 -0.5722 -0.1169  0.6430
   12CHL1   C11  848   4.984   2.960   5.246  0.0212  0.1929 -0.0630
   12CHL1  H11A  849   5.012   2.855   5.222  3.4952  0.9413  0.2533
   12CHL1  H11B  850   5.079   3.017   5.250 -0.2482  0.9390 -2.6198
   12CHL1    C9  851   4.918   2.952   5.391 -0.4224  0.5715  0.2625
   12CHL1    H9  852   4.888   3.057   5.407 -4.1879 -0.1065 -1.2440
   12CHL1   C10  853   5.007   2.908   5.513  0.3379  0.6460 -1.7028
   12CHL1   C19  854   5.073   2.772   5.469 -0.1412 -0.2584  0.1585
   12CHL1  H19A  855   5.131   2.789   5.376 -0.3376 -0.2607  0.0346
   12CHL1  H19B  856   5.142   2.751   5.554  1.4762  1.6003 -0.6159
   12CHL1  H19C  857   5.007   2.682   5.466  0.9836 -1.0787 -1.2996
   12CHL1    C1  858   5.112   3.011   5.536  0.0164  0.0164  0.8320
   12CHL1   H1A  859   5.186   3.003   5.453  1.2785 -1.3733  2.0270
   12CHL1   H1B  860   5.073   3.115   5.532  1.1996  0.4761  0.8920
   12CHL1    C2  861   5.187   3.005   5.658  0.4297  0.4229 -0.6566
   12CHL1   H2A  862   5.257   3.092   5.662 -0.9370  1.6291 -1.5740
   12CHL1   H2B  863   5.251   2.915   5.671 -0.5070 -0.1028  0.4342
   12CHL1   C20  864   4.661   2.952   4.887  0.0862  0.2774  0.2258
   12CHL1   H20  865   4.668   2.842   4.874  0.0817  0.0235  2.0161
   12CHL1   C21  866   4.776   3.027   4.817 -0.1179 -0.9382  0.4252
   12CHL1  H21A  867   4.784   3.131   4.855  0.8404 -0.3875 -1.1668
   12CHL1  H21B  868   4.756   3.027   4.707 -1.6573 -2.0179  0.6745
   12CHL1  H21C  869   4.870   2.968   4.818 -0.7266 -1.9803 -0.4602
   12CHL1   C22  870   4.527   2.999   4.820  0.2414  0.0620 -0.2081
   12CHL1  H22A  871   4.433   2.962   4.866  0.0418 -0.3535 -0.9268
   12CHL1  H22B  872   4.513   3.108   4.835  0.7952 -0.0879  1.5357
   12CHL1   C23  873   4.507   2.944   4.673  0.4785 -0.0522  0.2896
   12CHL1  H23A  874   4.585   2.990   4.608  1.1979  1.2126  1.9847
   12CHL1  H23B  875   4.505   2.833   4.672 -3.4073 -0.1180 -0.3340
   12CHL1   C24  876   4.368   2.977   4.612  0.1088  0.3163  0.1739
   12CHL1  H24A  877   4.293   2.943   4.686  0.6693  2.4508  1.8356
   12CHL1  H24B  878   4.355   3.087   4.613 -0.0876  0.2946  1.6761
   12CHL1   C25  879   4.329   2.918   4.477  0.0935  0.2786 -0.5173
   12CHL1   H25  880   4.335   2.807   4.482 -0.1813  0.2496 -0.8499
   12CHL1   C26  881   4.180   2.936   4.443 -0.3462 -0.7415 -0.0283
   12CHL1  H26A  882   4.107   2.922   4.525 -1.4151  1.0360 -0.6078
   12CHL1  H26B  883   4.170   3.038   4.400 -0.0329 -1.6472 -2.4151
   12CHL1  H26C  884   4.152   2.867   4.360  1.6178 -0.5159 -0.9369
   12CHL1   C27  885   4.421   2.972   4.375  0.4080  0.2299  0.1429
   12CHL1  H27A  886   4.404   3.081   4.363  1.3882  0.4407  0.5231
   12CHL1  H27B  887   4.529   2.954   4.396  0.2147 -2.9228 -1.0905
   12CHL1  H27C  888   4.396   2.921   4.280  0.7871  0.1221  0.1002
   13CHL1    C3  889   1.802   1.136   5.640 -0.2219  0.1629 -0.6455
   13CHL1    H3  890   1.751   1.038   5.635  0.4363 -0.3157  1.4008
   13CHL1    O3  891   1.813   1.177   5.773  0.0669  0.2348  0.8288
   13CHL1   H3'  892   1.865   1.257   5.762  1.3122 -0.5210  1.0604
   13CHL1    C4  893   1.938   1.114   5.574  0.3153 -0.1407 -0.2973
   13CHL1   H4A  894   1.993   1.210   5.582  0.1042 -0.1000  0.8089
   13CHL1   H4B  895   2.001   1.045   5.634  0.2801  1.0723  1.2108
   13CHL1    C5  896   1.941   1.091   5.423 -0.4462 -0.5231  0.0940
   13CHL1    C6  897   2.003   0.982   5.375 -0.7858 -0.1556  0.4863
   13CHL1    H6  898   2.063   0.929   5.450 -2.2014  1.2142  2.7239
   13CHL1    C7  899   1.996   0.935   5.237  0.4388 -0.0477 -0.3928
   13CHL1   H7A  900   2.095   0.904   5.197  0.8312 -0.9952  1.2349
   13CHL1   H7B  901   1.944   0.838   5.227 -0.5827  0.4408  0.0845
   13CHL1    C8  902   1.925   1.040   5.142 -0.2228 -0.0247  0.0063
   13CHL1    H8  903   2.009   1.109   5.121 -0.1075 -0.2788 -0.3932
   13CHL1   C14  904   1.884   0.982   5.004 -0.5562  0.4165 -0.6919
   13CHL1   H14  905   1.800   0.916   5.032 -0.9554  1.0381 -0.4047
   13CHL1   C15  906   1.996   0.905   4.924 -0.7836  0.5594 -0.1382
   13CHL1  H15A  907   2.098   0.951   4.921 -0.5360 -0.0269 -1.2104
   13CHL1  H15B  908   2.014   0.810   4.978  0.6375 -0.1938 -1.8333
   13CHL1   C16  909   1.927   0.903   4.787  0.6463  0.1044  0.3550
   13CHL1  H16A  910   2.002   0.914   4.706 -0.5800 -1.9633 -1.1570
   13CHL1  H16B  911   1.891   0.799   4.776 -0.3128  0.4797 -0.2212
   13CHL1   C17  912   1.813   1.013   4.778 -0.0752  0.6199  0.1080
   13CHL1   H17  913   1.724   0.947   4.787  1.9907 -2.2331  1.0602
   13CHL1   C13  914   1.831   1.091   4.908  0.5112 -0.0641 -0.0576
   13CHL1   C18  915   1.939   1.196   4.889  0.7306  0.2740 -1.0099
   13CHL1  H18A  916   1.902   1.279   4.824 -0.9032 -0.1138 -0.6355
   13CHL1  H18B  917   1.978   1.239   4.984 -1.2180  1.4069 -0.6635
   13CHL1  H18C  918   2.028   1.156   4.837  0.9074  0.5100 -0.8905
   13CHL1   C12  919   1.698   1.146   4.969  0.1585  0.2483 -0.2409
   13CHL1  H12A  920   1.657   1.214   4.892  1.2545 -0.9488 -1.9641
   13CHL1  H12B  921   1.629   1.059   4.974  0.3818 -0.1182 -2.5419
   13CHL1   C11  922   1.721   1.200   5.105  0.0528 -0.4890 -0.0403
   13CHL1  H11A  923   1.765   1.300   5.086  0.3000 -0.9042 -1.8923
   13CHL1  H11B  924   1.624   1.207   5.159  0.1560  1.8431 -0.0692
   13CHL1    C9  925   1.807   1.113   5.206  0.9235 -0.0963 -0.1872
   13CHL1    H9  926   1.742   1.026   5.231  0.3909  0.2103 -0.5069
   13CHL1   C10  927   1.841   1.185   5.343 -0.4667 -0.0073 -0.5811
   13CHL1   C19  928   1.916   1.321   5.325 -0.4880 -0.1461  0.0872
   13CHL1  H19A  929   1.845   1.399   5.289  0.4321 -0.3987 -2.4896
   13CHL1  H19B  930   1.979   1.349   5.412  0.0356  1.9697 -0.9109
   13CHL1  H19C  931   1.985   1.312   5.239 -2.4186  0.1543 -1.5821
   13CHL1    C1  932   1.710   1.198   5.420  0.1498  0.8360  0.0885
   13CHL1   H1A  933   1.646   1.272   5.368 -1.8676 -1.0360 -0.2065
   13CHL1   H1B  934   1.644   1.109   5.418 -0.7034  1.4604 -0.1122
   13CHL1    C2  935   1.725   1.244   5.566  0.1647  0.3894  0.0226
   13CHL1   H2A  936   1.630   1.247   5.624 -0.4117 -2.3387 -0.6540
   13CHL1   H2B  937   1.783   1.339   5.570  0.3319  0.2533  2.9630
   13CHL1   C20  938   1.814   1.086   4.643 -0.3593  0.1854  0.2445
   13CHL1   H20  939   1.912   1.137   4.632 -0.6010  0.3330 -1.5229
   13CHL1   C21  940   1.702   1.193   4.633 -0.4076 -0.3395  0.6850
   13CHL1  H21A  941   1.599   1.151   4.629 -0.3359 -0.5163  0.7034
   13CHL1  H21B  942   1.713   1.250   4.538  0.0441 -0.2352  0.8010
   13CHL1  H21C  943   1.700   1.264   4.718 -1.4800  0.1852  0.2526
   13CHL1   C22  944   1.793   0.984   4.523  0.9347 -0.1954  0.5784
   13CHL1  H22A  945   1.862   0.897   4.518 -0.7920 -1.6242  0.8981
   13CHL1  H22B  946   1.697   0.937   4.552 -0.5612  2.0530 -0.4932
   13CHL1   C23  947   1.778   1.047   4.384  0.3800  0.4740 -0.2701
   13CHL1  H23A  948   1.682   1.102   4.391  0.0153 -0.1309 -0.5416
   13CHL1  H23B  949   1.864   1.117   4.370  1.3392 -0.8349 -1.0890
   13CHL1   C24  950   1.760   0.954   4.262 -0.3356  0.0674  0.1898
   13CHL1  H24A  951   1.843   0.880   4.256 -0.6296 -0.2949  0.5326
   13CHL1  H24B  952   1.674   0.885   4.277  1.1983 -2.3539 -1.4809
   13CHL1   C25  953   1.739   1.025   4.126 -0.3113 -0.1988  0.9134
   13CHL1   H25  954   1.820   1.101   4.117 -0.4966 -0.0932  0.0790
   13CHL1   C26  955   1.748   0.935   3.996 -0.1435  0.0987  0.0592
   13CHL1  H26A  956   1.847   0.887   4.006  0.1088  0.9848  2.6138
   13CHL1  H26B  957   1.666   0.859   3.995 -0.5064  0.4609  1.1493
   13CHL1  H26C  958   1.744   0.988   3.898 -1.8973  0.3877  0.2454
   13CHL1   C27  959   1.611   1.105   4.121  0.3712  0.3843  0.1504
   13CHL1  H27A  960   1.606   1.150   4.019 -1.5449 -1.3601 -0.5967
   13CHL1  H27B  961   1.524   1.036   4.125  0.4073  0.2698 -0.7381
   13CHL1  H27C  962   1.598   1.183   4.199 -0.4939  1.4072 -0.9536
   14CHL1    C3  963   1.840   3.705   5.778 -0.3261  0.2000  0.7879
   14CHL1    H3  964   1.925   3.773   5.800  1.3250 -1.1177 -1.2768
   14CHL1    O3  965   1.778   3.647   5.895  0.1421 -0.6874 -0.0243
   14CHL1   H3'  966   1.834   3.570   5.910  0.2918 -0.5769 -0.0236
   14CHL1    C4  967   1.726   3.797   5.711  0.4774  0.7457 -0.1854
   14CHL1   H4A  968   1.639   3.728   5.706 -1.6943  3.3512 -0.6294
   14CHL1   H4B  969   1.705   3.884   5.777 -1.5188 -0.5556  0.9876
   14CHL1    C5  970   1.744   3.838   5.570  0.1463  0.4556 -0.4607
   14CHL1    C6  971   1.740   3.969   5.538 -0.3204 -0.1647  0.6295
   14CHL1    H6  972   1.700   4.047   5.605 -0.8377  0.4546 -0.3770
   14CHL1    C7  973   1.773   4.023   5.397  0.1629  0.2642 -0.3919
   14CHL1   H7A  974   1.702   4.101   5.364  0.6933  0.6765 -0.5596
   14CHL1   H7B  975   1.876   4.063   5.408  1.0418 -2.1548  1.2034
   14CHL1    C8  976   1.782   3.911   5.293 -0.1612 -0.2081  0.0837
   14CHL1    H8  977   1.675   3.888   5.279  0.2812 -1.6243 -1.1559
   14CHL1   C14  978   1.842   3.962   5.160  0.4511  0.5741 -0.4003
   14CHL1   H14  979   1.945   3.994   5.186  0.2348 -1.0113  3.0208
   14CHL1   C15  980   1.780   4.085   5.091 -0.1480  0.0453  0.0033
   14CHL1  H15A  981   1.671   4.063   5.085 -0.4495  1.7447 -1.3524
   14CHL1  H15B  982   1.804   4.165   5.164 -0.3306 -0.6865  0.8884
   14CHL1   C16  983   1.835   4.088   4.948 -0.2920 -0.2346 -0.3426
   14CHL1  H16A  984   1.750   4.086   4.876  0.1211 -2.3857 -0.8208
   14CHL1  H16B  985   1.896   4.177   4.919  0.0121 -0.0015  0.9636
   14CHL1   C17  986   1.911   3.951   4.929  0.1741  0.2305 -0.0370
   14CHL1   H17  987   2.017   3.964   4.956  1.5398 -3.1394 -3.0217
   14CHL1   C13  988   1.864   3.860   5.050  0.3615  0.5230  0.3044
   14CHL1   C18  989   1.727   3.804   5.010 -0.1902 -0.2646  0.0680
   14CHL1  H18A  990   1.749   3.722   4.939 -1.8968  0.3098 -1.2057
   14CHL1  H18B  991   1.669   3.779   5.101  1.3562  0.8559  1.4195
   14CHL1  H18C  992   1.673   3.881   4.950  0.4541 -0.5278 -0.8670
   14CHL1   C12  993   1.954   3.745   5.106  0.5118 -0.7497  0.5822
   14CHL1  H12A  994   1.966   3.663   5.033 -0.3093  0.1234 -0.5654
   14CHL1  H12B  995   2.048   3.797   5.137 -0.3805 -0.2417  2.6296
   14CHL1   C11  996   1.889   3.689   5.235 -0.0489 -0.2797 -0.2974
   14CHL1  H11A  997   1.791   3.647   5.204 -1.0231  1.0868  0.7947
   14CHL1  H11B  998   1.953   3.610   5.280 -0.0541  0.3060  0.7893
   14CHL1    C9  999   1.855   3.788   5.348 -0.5796  0.5788 -0.1487
   14CHL1    H9 1000   1.950   3.835   5.381 -0.4417  1.8543 -2.1224
   14CHL1   C10 1001   1.784   3.723   5.472 -0.7782  0.0221 -0.4488
   14CHL1   C19 1002   1.666   3.628   5.428  0.0633  0.0062 -0.0859
   14CHL1  H19A 1003   1.606   3.694   5.362  0.4544  1.1442  0.6704
   14CHL1  H19B 1004   1.698   3.534   5.378  0.8081  1.9861 -3.6686
   14CHL1  H19C 1005   1.599   3.615   5.516 -0.7863  1.4225 -0.4946
   14CHL1    C1 1006   1.894   3.638   5.547  0.2786  0.3265  0.2598
   14CHL1   H1A 1007   1.909   3.547   5.485 -0.3294  1.1172 -1.1246
   14CHL1   H1B 1008   1.986   3.699   5.536 -1.1220  2.0989 -4.0417
   14CHL1    C2 1009   1.869   3.587   5.689  0.3799 -0.6051 -0.2655
   14CHL1   H2A 1010   1.948   3.522   5.733  2.1078 -0.9107 -3.5493
   14CHL1   H2B 1011   1.774   3.530   5.696 -2.3429  3.3008 -1.7468
   14CHL1   C20 1012   1.913   3.906   4.782 -0.2996 -1.0694 -0.2372
   14CHL1   H20 1013   1.806   3.888   4.760 -0.4799  0.8938 -1.1424
   14CHL1   C21 1014   1.995   3.770   4.767  0.4034  0.0538 -0.7345
   14CHL1  H21A 1015   1.931   3.692   4.814 -0.1603  0.3726 -0.9606
   14CHL1  H21B 1016   2.094   3.783   4.817  0.5111  0.8843 -1.1569
   14CHL1  H21C 1017   2.013   3.748   4.660 -1.0797  2.9369 -1.6559
   14CHL1   C22 1018   1.968   4.001   4.679 -0.6134 -0.7114  0.2018
   14CHL1  H22A 1019   1.978   3.950   4.581 -1.8602 -1.6394  0.5397
   14CHL1  H22B 1020   1.900   4.085   4.651  0.8454  0.7877  0.9421
   14CHL1   C23 1021   2.105   4.064   4.723 -0.3346 -0.4485 -0.4119
   14CHL1  H23A 1022   2.073   4.146   4.790 -1.1571  0.8546 -2.3012
   14CHL1  H23B 1023   2.162   3.991   4.785  0.8046  0.8248  0.0856
   14CHL1   C24 1024   2.197   4.126   4.618  0.8503 -0.3389 -0.1033
   14CHL1  H24A 1025   2.281   4.167   4.679 -0.3796 -0.7250  1.9705
   14CHL1  H24B 1026   2.231   4.046   4.550 -2.2164  0.2008 -2.4833
   14CHL1   C25 1027   2.141   4.246   4.538 -0.3248 -0.0725  0.1407
   14CHL1   H25 1028   2.221   4.306   4.489 -2.2717  2.7908  0.2157
   14CHL1   C26 1029   2.068   4.202   4.412  0.3618 -1.1641 -0.4019
   14CHL1  H26A 1030   1.986   4.133   4.441 -1.7241  1.6685  0.8405
   14CHL1  H26B 1031   2.018   4.287   4.361 -1.3689 -0.7905  1.7791
   14CHL1  H26C 1032   2.143   4.161   4.341  2.0613  1.4677 -0.2392
   14CHL1   C27 1033   2.052   4.338   4.617 -0.4207 -0.5249 -0.2622
   14CHL1  H27A 1034   1.950   4.298   4.631 -0.4549 -0.9629 -1.6360
   14CHL1  H27B 1035   2.101   4.376   4.710 -2.4460  0.2085  0.5602
   14CHL1  H27C 1036   2.042   4.433   4.561  2.4114  0.1763  0.2410
   15CHL1    C3 1037   5.041   4.818   5.923  0.5476 -0.1017  0.1513
   15CHL1    H3 1038   4.935   4.800   5.896 -0.0209 -1.8561  3.0736
   15CHL1    O3 1039   5.057   4.853   6.060 -0.0211 -0.3661 -0.0053
   15CHL1   H3' 1040   5.008   4.791   6.115 -4.7968  2.4378 -0.5781
   15CHL1    C4 1041   5.129   4.700   5.877  0.0794  0.3253 -0.0726
   15CHL1   H4A 1042   5.238   4.724   5.879  0.6548 -1.8445 -1.8905
   15CHL1   H4B 1043   5.110   4.622   5.953  1.3578  1.5320  1.5692
   15CHL1    C5 1044   5.098   4.666   5.730  0.2811 -0.1999  0.4488
   15CHL1    C6 1045   5.036   4.549   5.700 -0.0847 -0.0980  0.3072
   15CHL1    H6 1046   5.018   4.478   5.782  2.9776  1.6237  2.6508
   15CHL1    C7 1047   4.995   4.509   5.560 -0.2660  0.3713  0.0700
   15CHL1   H7A 1048   5.020   4.408   5.522 -1.5005  0.7020 -1.7717
   15CHL1   H7B 1049   4.884   4.502   5.550 -0.1478 -2.1109 -0.1784
   15CHL1    C8 1050   5.046   4.613   5.452  0.8256 -0.1814  0.7968
   15CHL1    H8 1051   5.150   4.589   5.423 -0.2362 -3.0423 -1.0485
   15CHL1   C14 1052   4.967   4.604   5.318  0.3557  0.7612 -0.0251
   15CHL1   H14 1053   4.865   4.646   5.334 -0.3593 -1.3542  1.3396
   15CHL1   C15 1054   4.939   4.459   5.257  0.0874 -0.3120 -0.0290
   15CHL1  H15A 1055   5.038   4.409   5.267 -0.2689 -1.1985 -0.7837
   15CHL1  H15B 1056   4.868   4.394   5.312 -0.3239 -0.6655 -0.9594
   15CHL1   C16 1057   4.905   4.481   5.112  0.1835  0.6079  0.1661
   15CHL1  H16A 1058   4.988   4.434   5.054  1.3545  0.8656  1.5856
   15CHL1  H16B 1059   4.798   4.455   5.096  0.6789 -3.0736  1.8949
   15CHL1   C17 1060   4.938   4.633   5.084 -0.4766 -0.5264  0.0436
   15CHL1   H17 1061   4.839   4.682   5.094 -0.1423  1.1045 -3.3317
   15CHL1   C13 1062   5.021   4.689   5.209 -0.4901 -0.1287  0.2060
   15CHL1   C18 1063   5.172   4.658   5.181  0.4596  0.1697 -0.1064
   15CHL1  H18A 1064   5.234   4.682   5.270 -0.0116  0.7470  0.0775
   15CHL1  H18B 1065   5.173   4.548   5.164 -2.3752  0.1387 -0.4804
   15CHL1  H18C 1066   5.202   4.715   5.091  1.2779 -1.2156 -0.7443
   15CHL1   C12 1067   4.997   4.831   5.247  0.1838 -0.6472 -0.0099
   15CHL1  H12A 1068   5.050   4.893   5.173  0.8698 -2.0029 -0.6914
   15CHL1  H12B 1069   4.890   4.862   5.253  0.4927  0.3650  0.4985
   15CHL1   C11 1070   5.057   4.858   5.389 -0.2401 -1.3702  0.2617
   15CHL1  H11A 1071   5.167   4.860   5.374 -0.1327  1.8606  0.7772
   15CHL1  H11B 1072   5.030   4.962   5.419  1.5054 -0.2909 -1.6362
   15CHL1    C9 1073   5.031   4.763   5.505 -0.3592  0.3269 -0.3564
   15CHL1    H9 1074   4.928   4.777   5.542  1.0501 -0.0477  4.3448
   15CHL1   C10 1075   5.116   4.794   5.631 -1.0735 -0.5175 -1.1058
   15CHL1   C19 1076   5.266   4.807   5.603 -0.2270 -0.3876 -0.2819
   15CHL1  H19A 1077   5.315   4.825   5.701 -1.2468  0.1310  0.1498
   15CHL1  H19B 1078   5.311   4.726   5.542  1.0234  0.7042 -0.8562
   15CHL1  H19C 1079   5.282   4.895   5.537 -1.0258 -0.7962 -1.0473
   15CHL1    C1 1080   5.068   4.933   5.699 -0.2356 -0.2464  0.2782
   15CHL1   H1A 1081   5.111   5.021   5.646 -2.4219  0.1938 -0.9024
   15CHL1   H1B 1082   4.962   4.946   5.668  0.4599  3.9443 -1.0263
   15CHL1    C2 1083   5.075   4.947   5.848 -0.8509 -0.2824  0.1332
   15CHL1   H2A 1084   5.005   5.029   5.874 -0.6638  0.0512 -0.3967
   15CHL1   H2B 1085   5.180   4.972   5.877 -0.8550 -1.7529  1.5750
   15CHL1   C20 1086   4.986   4.661   4.940 -0.3749 -0.0238 -0.3264
   15CHL1   H20 1087   5.092   4.630   4.923  0.2327  0.6870  1.8751
   15CHL1   C21 1088   4.966   4.813   4.915 -0.5660 -0.0184  0.0007
   15CHL1  H21A 1089   4.964   4.844   4.809  0.5886 -0.5740 -0.2023
   15CHL1  H21B 1090   5.062   4.863   4.942 -0.3694 -1.2963  1.8692
   15CHL1  H21C 1091   4.885   4.860   4.975  0.2389  0.5882  0.6383
   15CHL1   C22 1092   4.901   4.584   4.835  0.5128 -0.3793 -0.1951
   15CHL1  H22A 1093   4.875   4.481   4.866  2.1310 -0.5728  0.5784
   15CHL1  H22B 1094   4.802   4.632   4.823  0.4207 -0.0107  1.7854
   15CHL1   C23 1095   4.968   4.587   4.693 -0.2467 -0.2104 -0.1498
   15CHL1  H23A 1096   4.972   4.689   4.650  0.5100 -0.2806 -0.2674
   15CHL1  H23B 1097   5.075   4.556   4.696  0.5398  1.7547 -3.2635
   15CHL1   C24 1098   4.898   4.496   4.590  0.9183  0.2410 -0.5961
   15CHL1  H24A 1099   4.878   4.393   4.627 -1.6092  1.4698  1.8626
   15CHL1  H24B 1100   4.799   4.547   4.590 -0.2087 -1.8432 -0.1147
   15CHL1   C25 1101   4.963   4.487   4.450 -0.3773  0.1225  0.6020
   15CHL1   H25 1102   4.968   4.593   4.415  1.3644 -0.3696 -0.7979
   15CHL1   C26 1103   5.094   4.415   4.449 -0.0385  0.7713 -0.2950
   15CHL1  H26A 1104   5.137   4.415   4.346  0.8820  1.5758  0.0741
   15CHL1  H26B 1105   5.174   4.465   4.508 -1.1346  2.2309  0.0068
   15CHL1  H26C 1106   5.085   4.310   4.483  0.5605  0.3210 -1.4508
   15CHL1   C27 1107   4.879   4.413   4.346 -0.1092 -0.1100  0.4372
   15CHL1  H27A 1108   4.925   4.401   4.246  2.7338  0.5719  1.5463
   15CHL1  H27B 1109   4.846   4.314   4.384  0.4785 -0.9273 -1.1110
   15CHL1  H27C 1110   4.783   4.462   4.320  0.2970 -0.7616 -2.6772
   16CHL1    C3 1111   5.863   5.131   5.906 -0.0104  0.9954 -0.5815
   16CHL1    H3 1112   5.968   5.137   5.870 -0.3322 -0.9462 -2.0197
   16CHL1    O3 1113   5.856   5.195   6.036  0.0568  0.3480  0.5914
   16CHL1   H3' 1114   5.764   5.185   6.061 -0.0125 -1.2924 -0.1866
   16CHL1    C4 1115   5.770   5.204   5.812  0.1940 -0.0948  0.3009
   16CHL1   H4A 1116   5.669   5.213   5.857 -0.2528 -0.5490 -0.5856
   16CHL1   H4B 1117   5.819   5.304   5.812 -1.1761  0.6080  0.9714
   16CHL1    C5 1118   5.764   5.133   5.680  0.6455 -0.4263  0.3819
   16CHL1    C6 1119   5.806   5.200   5.570  0.4104  0.2898 -0.6687
   16CHL1    H6 1120   5.837   5.305   5.576 -0.1936  0.5690 -2.1346
   16CHL1    C7 1121   5.787   5.142   5.433 -0.4871 -0.0639  0.1702
   16CHL1   H7A 1122   5.731   5.211   5.366 -2.4191 -0.8732  0.8726
   16CHL1   H7B 1123   5.888   5.118   5.395 -0.6355 -0.3314 -0.0640
   16CHL1    C8 1124   5.708   5.006   5.431 -0.4185 -0.2763 -0.1195
   16CHL1    H8 1125   5.605   5.046   5.445  0.2076  1.3794  0.0226
   16CHL1   C14 1126   5.732   4.930   5.299  0.5246  0.2843 -0.4905
   16CHL1   H14 1127   5.839   4.899   5.304 -0.0982 -2.4834 -2.2347
   16CHL1   C15 1128   5.711   5.001   5.167  0.7453  0.1139 -0.0060
   16CHL1  H15A 1129   5.608   5.043   5.161  0.9046  0.4450 -0.5149
   16CHL1  H15B 1130   5.788   5.079   5.150  0.4045 -0.0550 -3.0012
   16CHL1   C16 1131   5.717   4.892   5.060 -0.5344  0.4115 -0.2064
   16CHL1  H16A 1132   5.632   4.897   4.990 -1.1568  0.0117  0.5039
   16CHL1  H16B 1133   5.819   4.894   5.016  1.1265 -1.7772  3.0519
   16CHL1   C17 1134   5.702   4.752   5.143  0.2266  0.1822  0.0820
   16CHL1   H17 1135   5.806   4.713   5.148 -0.0629 -0.5144  0.8504
   16CHL1   C13 1136   5.664   4.795   5.284  0.1264 -0.8567  0.0761
   16CHL1   C18 1137   5.509   4.823   5.286 -0.2720  0.2099  0.1352
   16CHL1  H18A 1138   5.476   4.865   5.189 -1.3852  0.7750  0.7244
   16CHL1  H18B 1139   5.457   4.726   5.303 -1.7796  1.0647  0.6855
   16CHL1  H18C 1140   5.489   4.887   5.376  1.8066 -0.9665  1.5170
   16CHL1   C12 1141   5.723   4.703   5.400  0.5994 -0.0848  0.0003
   16CHL1  H12A 1142   5.684   4.599   5.394 -2.0572  0.7619  1.0794
   16CHL1  H12B 1143   5.833   4.701   5.390  0.8595  1.8577  1.7678
   16CHL1   C11 1144   5.707   4.767   5.540 -0.0457  0.3225  0.1365
   16CHL1  H11A 1145   5.602   4.749   5.572  0.2726 -0.7429  0.6207
   16CHL1  H11B 1146   5.771   4.710   5.611 -2.6315 -0.7487  1.7527
   16CHL1    C9 1147   5.746   4.916   5.548 -0.2886 -0.2385 -0.0718
   16CHL1    H9 1148   5.856   4.909   5.536 -0.2790 -0.3141  0.0490
   16CHL1   C10 1149   5.720   4.983   5.684  0.0945  0.2735 -0.2905
   16CHL1   C19 1150   5.574   4.972   5.718 -0.6302  0.3879  0.1128
   16CHL1  H19A 1151   5.562   4.868   5.754 -0.9130  0.3355 -0.1307
   16CHL1  H19B 1152   5.543   5.045   5.796 -2.3449 -0.0111 -0.1380
   16CHL1  H19C 1153   5.510   4.974   5.627  1.8464 -0.5115 -1.7540
   16CHL1    C1 1154   5.810   4.914   5.795  0.9697  0.8253  0.4167
   16CHL1   H1A 1155   5.760   4.820   5.826  1.5583 -0.2790 -1.7851
   16CHL1   H1B 1156   5.910   4.888   5.754  0.8099 -0.5728  0.8542
   16CHL1    C2 1157   5.813   4.985   5.929 -0.2308 -0.3641 -0.3011
   16CHL1   H2A 1158   5.879   4.935   6.003  0.6776  2.6921  1.1457
   16CHL1   H2B 1159   5.715   4.998   5.980  0.5879  1.3125  0.9745
   16CHL1   C20 1160   5.621   4.643   5.073  0.9639 -0.4637 -0.0666
   16CHL1   H20 1161   5.514   4.673   5.076  0.9370 -0.5985  3.2021
   16CHL1   C21 1162   5.620   4.505   5.138  0.1894  0.6058 -0.6341
   16CHL1  H21A 1163   5.540   4.436   5.103  0.5556 -0.0921 -0.1038
   16CHL1  H21B 1164   5.590   4.529   5.242 -0.4523  1.4173 -0.9904
   16CHL1  H21C 1165   5.723   4.465   5.136 -0.2090 -0.4691 -0.5626
   16CHL1   C22 1166   5.660   4.632   4.921  0.5410 -0.6950 -0.2861
   16CHL1  H22A 1167   5.755   4.685   4.903 -0.3234  0.7947 -0.6352
   16CHL1  H22B 1168   5.663   4.522   4.908 -2.6242 -1.1687  1.7155
   16CHL1   C23 1169   5.546   4.677   4.819 -0.0271  0.0806 -0.1909
   16CHL1  H23A 1170   5.452   4.649   4.871  0.6402 -1.9408  0.0057
   16CHL1  H23B 1171   5.531   4.788   4.815 -2.2200 -0.1442  0.4622
   16CHL1   C24 1172   5.571   4.619   4.681  0.2445 -0.2373 -0.2734
   16CHL1  H24A 1173   5.656   4.673   4.635  0.4376 -0.6618 -0.4242
   16CHL1  H24B 1174   5.612   4.518   4.704  0.5580 -0.1257 -0.3396
   16CHL1   C25 1175   5.445   4.617   4.596 -0.5222 -0.5261  0.5139
   16CHL1   H25 1176   5.365   4.576   4.661 -0.7788  0.2095  0.6664
   16CHL1   C26 1177   5.403   4.760   4.558 -0.0102  0.1410 -0.1601
   16CHL1  H26A 1178   5.325   4.746   4.480 -0.4262 -0.5767  0.3767
   16CHL1  H26B 1179   5.373   4.818   4.648  0.3145 -0.4602  0.3497
   16CHL1  H26C 1180   5.481   4.816   4.501  0.1591  1.3302  1.1793
   16CHL1   C27 1181   5.463   4.526   4.478 -0.5436 -0.2757  0.5082
   16CHL1  H27A 1182   5.555   4.552   4.420  1.0225  1.2827  3.4412
   16CHL1  H27B 1183   5.477   4.419   4.506 -0.8162 -0.1589  1.0850
   16CHL1  H27C 1184   5.379   4.535   4.406 -0.6055  0.1577  0.6312
   17CHL1    C3 1185   5.916   2.748   5.666 -0.2651 -0.4146 -0.2143
   17CHL1    H3 1186   5.809   2.769   5.686 -0.1379 -1.8921  2.5362
   17CHL1    O3 1187   5.975   2.789   5.785 -0.5806 -0.5480 -0.1756
   17CHL1   H3' 1188   5.911   2.771   5.854 -2.2555  2.5262 -0.7669
   17CHL1    C4 1189   5.933   2.602   5.647 -0.2287  0.3503  0.7568
   17CHL1   H4A 1190   6.043   2.583   5.640 -0.5106 -0.6338 -1.9290
   17CHL1   H4B 1191   5.895   2.555   5.740 -0.1810 -2.7888 -0.6926
   17CHL1    C5 1192   5.864   2.550   5.522  0.3454  0.0412 -0.9881
   17CHL1    C6 1193   5.771   2.456   5.533 -0.6378 -0.0045  0.0437
   17CHL1    H6 1194   5.746   2.407   5.628  1.2287 -1.1226 -0.0069
   17CHL1    C7 1195   5.691   2.397   5.417  0.4845 -0.6650  0.7312
   17CHL1   H7A 1196   5.680   2.289   5.439 -1.1139 -0.1212  2.9990
   17CHL1   H7B 1197   5.590   2.444   5.414  0.7488 -0.0723  0.9202
   17CHL1    C8 1198   5.762   2.447   5.287 -0.4086 -0.2278  0.2413
   17CHL1    H8 1199   5.851   2.380   5.281 -0.3047 -0.2744  1.7875
   17CHL1   C14 1200   5.666   2.411   5.171 -0.0669  0.4044  0.1996
   17CHL1   H14 1201   5.582   2.481   5.193  1.5825  2.0788  1.4161
   17CHL1   C15 1202   5.610   2.264   5.160 -1.1804 -0.2657 -0.1767
   17CHL1  H15A 1203   5.687   2.188   5.186 -0.3708  0.2711 -0.9458
   17CHL1  H15B 1204   5.513   2.263   5.214 -0.0879  0.2667  1.8897
   17CHL1   C16 1205   5.583   2.262   5.008  0.7912  0.2916 -0.6525
   17CHL1  H16A 1206   5.642   2.179   4.963 -1.6055 -1.6148 -0.4896
   17CHL1  H16B 1207   5.478   2.228   5.000  0.4590  1.4489 -1.4803
   17CHL1   C17 1208   5.611   2.403   4.944  0.2088 -0.1624 -0.0191
   17CHL1   H17 1209   5.525   2.473   4.954 -0.8700 -1.1547 -1.8578
   17CHL1   C13 1210   5.720   2.451   5.036 -0.2046 -0.0003 -0.0988
   17CHL1   C18 1211   5.848   2.376   5.003 -0.0816 -0.4216  0.0859
   17CHL1  H18A 1212   5.933   2.414   5.062 -0.7637  1.6507 -0.1866
   17CHL1  H18B 1213   5.825   2.269   5.022 -0.2985 -0.4543 -0.3365
   17CHL1  H18C 1214   5.879   2.405   4.900 -0.5408  3.8498  0.9785
   17CHL1   C12 1215   5.748   2.599   5.036 -0.1136 -0.9372 -0.0210
   17CHL1  H12A 1216   5.788   2.642   4.942 -2.5418  1.9704  0.0838
   17CHL1  H12B 1217   5.651   2.650   5.058  0.5837 -1.1300  4.2651
   17CHL1   C11 1218   5.836   2.651   5.145 -0.5467 -0.4515  0.1553
   17CHL1  H11A 1219   5.942   2.635   5.116 -0.4435  2.2014 -1.2783
   17CHL1  H11B 1220   5.826   2.762   5.148  1.1158 -0.2810  0.9290
   17CHL1    C9 1221   5.800   2.595   5.287  0.2314 -0.4435 -0.7718
   17CHL1    H9 1222   5.704   2.643   5.317 -0.7849 -2.3371 -0.8583
   17CHL1   C10 1223   5.900   2.623   5.399 -0.1255 -0.1763 -0.1079
   17CHL1   C19 1224   6.045   2.567   5.355 -0.0530  0.1205  0.3639
   17CHL1  H19A 1225   6.088   2.613   5.263  0.2792 -0.3824  0.2626
   17CHL1  H19B 1226   6.120   2.587   5.434  0.5186 -1.6904  0.3303
   17CHL1  H19C 1227   6.049   2.457   5.336 -1.1109  0.0897  0.2487
   17CHL1    C1 1228   5.901   2.772   5.414  0.5694 -0.4736  1.0225
   17CHL1   H1A 1229   5.944   2.832   5.331 -0.7820  2.3385  2.2210
   17CHL1   H1B 1230   5.796   2.807   5.415  0.7114 -0.0533  1.9462
   17CHL1    C2 1231   5.965   2.820   5.544  0.3750 -0.3690 -0.0124
   17CHL1   H2A 1232   5.946   2.927   5.568 -0.1931 -0.6516  0.8504
   17CHL1   H2B 1233   6.075   2.810   5.535  0.1873 -1.5908 -1.2709
   17CHL1   C20 1234   5.624   2.391   4.790  0.6096 -1.2728 -0.4405
   17CHL1   H20 1235   5.730   2.382   4.756  0.6691 -0.9481 -0.3488
   17CHL1   C21 1236   5.576   2.522   4.718 -0.0334 -0.2763 -0.1270
   17CHL1  H21A 1237   5.606   2.618   4.766 -0.1537  0.4125 -1.3698
   17CHL1  H21B 1238   5.465   2.521   4.708 -0.1864  0.8808  1.1266
   17CHL1  H21C 1239   5.626   2.535   4.620  1.7767 -0.3211  0.7505
   17CHL1   C22 1240   5.550   2.272   4.732 -0.0568  0.4075 -0.5335
   17CHL1  H22A 1241   5.581   2.175   4.775  0.4211  0.4956 -0.6782
   17CHL1  H22B 1242   5.443   2.282   4.760  0.4167 -0.7464  2.0482
   17CHL1   C23 1243   5.570   2.252   4.579  0.0671 -0.0473 -0.4208
   17CHL1  H23A 1244   5.491   2.306   4.523  0.0704 -1.2496 -1.6601
   17CHL1  H23B 1245   5.670   2.288   4.549 -0.1123 -0.9434 -2.2354
   17CHL1   C24 1246   5.549   2.098   4.558  0.3371 -0.3729  0.4486
   17CHL1  H24A 1247   5.637   2.043   4.598  0.8527  0.9783  1.2153
   17CHL1  H24B 1248   5.470   2.048   4.619 -1.8509  1.5577 -0.6392
   17CHL1   C25 1249   5.527   2.075   4.418  0.2710  0.0660 -0.1560
   17CHL1   H25 1250   5.461   2.149   4.369  0.7979  1.5760  1.2791
   17CHL1   C26 1251   5.664   2.101   4.343 -0.1087 -0.0904  0.2907
   17CHL1  H26A 1252   5.652   2.070   4.237  1.9542 -0.4985  0.1436
   17CHL1  H26B 1253   5.702   2.205   4.352 -0.9666  0.0973  2.4727
   17CHL1  H26C 1254   5.743   2.037   4.386 -0.7916 -0.6693  0.7114
   17CHL1   C27 1255   5.480   1.932   4.389  0.1168  0.0245 -0.2431
   17CHL1  H27A 1256   5.386   1.903   4.441 -0.0574 -1.2633 -1.2182
   17CHL1  H27B 1257   5.468   1.918   4.280 -0.4837 -3.5237  0.1327
   17CHL1  H27C 1258   5.557   1.856   4.414 -0.5428 -0.0693  1.7292
   18CHL1    C3 1259   6.341   5.316   5.914 -0.0032  0.2155 -0.2313
   18CHL1    H3 1260   6.421   5.239   5.910 -1.6843 -1.6707  0.6384
   18CHL1    O3 1261   6.309   5.330   6.050 -0.4752 -0.4603  0.3320
   18CHL1   H3' 1262   6.234   5.391   6.051 -1.5558 -1.6863 -1.0734
   18CHL1    C4 1263   6.375   5.452   5.850 -0.9434 -0.7351 -0.2880
   18CHL1   H4A 1264   6.297   5.529   5.867  0.3667  0.3857  0.9467
   18CHL1   H4B 1265   6.462   5.500   5.900 -1.9904  0.3002  0.6147
   18CHL1    C5 1266   6.386   5.438   5.702 -0.0206  0.2371 -0.1879
   18CHL1    C6 1267   6.495   5.484   5.640  0.7632 -0.1560  0.3638
   18CHL1    H6 1268   6.572   5.530   5.704  1.1601 -0.3392  0.0208
   18CHL1    C7 1269   6.511   5.473   5.495 -0.4192 -0.1140 -0.0421
   18CHL1   H7A 1270   6.537   5.571   5.450 -2.0477  0.3502 -0.0222
   18CHL1   H7B 1271   6.585   5.395   5.464  0.6197  0.7229  0.2504
   18CHL1    C8 1272   6.374   5.442   5.414 -1.0139 -0.2355 -0.0701
   18CHL1    H8 1273   6.316   5.537   5.415 -1.1570 -0.3217 -0.0978
   18CHL1   C14 1274   6.410   5.405   5.273  0.2154  0.3685  0.1998
   18CHL1   H14 1275   6.466   5.310   5.282 -0.5865 -0.1533 -0.2234
   18CHL1   C15 1276   6.497   5.498   5.191 -0.6669 -0.0158  0.1570
   18CHL1  H15A 1277   6.465   5.605   5.189 -2.7431 -0.5837  0.6948
   18CHL1  H15B 1278   6.601   5.497   5.231 -1.2595  0.9408  1.8326
   18CHL1   C16 1279   6.484   5.434   5.048  0.3354 -0.5434 -0.2108
   18CHL1  H16A 1280   6.483   5.515   4.972  1.2747  0.4706  0.8153
   18CHL1  H16B 1281   6.572   5.368   5.033  0.2801 -1.2415  2.0372
   18CHL1   C17 1282   6.366   5.334   5.055 -0.2988 -0.9581 -0.3960
   18CHL1   H17 1283   6.412   5.234   5.070  0.2623 -0.6242  0.1471
   18CHL1   C13 1284   6.292   5.370   5.183 -0.3589  0.3372 -0.3488
   18CHL1   C18 1285   6.202   5.491   5.158  0.1542  0.3873 -0.0014
   18CHL1  H18A 1286   6.116   5.451   5.100  1.7769 -3.2059 -0.2382
   18CHL1  H18B 1287   6.169   5.539   5.252  0.6284 -0.2099  0.4749
   18CHL1  H18C 1288   6.251   5.561   5.087 -0.4778 -2.4219 -3.5071
   18CHL1   C12 1289   6.210   5.254   5.254 -0.2759 -1.3786  0.8484
   18CHL1  H12A 1290   6.129   5.222   5.184 -0.2683  0.0568  0.1372
   18CHL1  H12B 1291   6.279   5.170   5.275  1.2601 -0.1979  0.7513
   18CHL1   C11 1292   6.177   5.296   5.396  0.5313  0.2496  0.3142
   18CHL1  H11A 1293   6.099   5.375   5.388 -0.9397 -1.1289  0.2866
   18CHL1  H11B 1294   6.123   5.211   5.444 -0.0737 -0.2635 -1.1944
   18CHL1    C9 1295   6.298   5.336   5.480  0.2658  0.2870  0.0733
   18CHL1    H9 1296   6.365   5.248   5.491  0.7134  0.3489 -1.8713
   18CHL1   C10 1297   6.266   5.364   5.630 -0.2837 -1.2800  0.0305
   18CHL1   C19 1298   6.138   5.450   5.636  0.3363 -0.0064  0.1075
   18CHL1  H19A 1299   6.139   5.527   5.556 -2.1528  0.0846  0.0861
   18CHL1  H19B 1300   6.049   5.391   5.605  2.0395 -1.6050 -2.1013
   18CHL1  H19C 1301   6.132   5.499   5.735 -1.1198  0.4026 -0.1536
   18CHL1    C1 1302   6.239   5.235   5.704 -0.6463  0.0401 -0.4117
   18CHL1   H1A 1303   6.155   5.175   5.664 -0.3767 -1.9880  1.8059
   18CHL1   H1B 1304   6.327   5.167   5.699  0.2377  0.8851  2.0446
   18CHL1    C2 1305   6.220   5.253   5.859  0.6580  0.0886 -0.7605
   18CHL1   H2A 1306   6.190   5.158   5.907  0.5268  1.5059  2.1675
   18CHL1   H2B 1307   6.131   5.316   5.881  0.0170 -0.5658 -1.4516
   18CHL1   C20 1308   6.286   5.325   4.924 -0.5281  0.7171  0.1926
   18CHL1   H20 1309   6.236   5.423   4.908 -0.2075  1.3156  2.4324
   18CHL1   C21 1310   6.172   5.222   4.932 -0.0780 -0.3969 -0.0669
   18CHL1  H21A 1311   6.189   5.137   5.003 -2.5422 -1.1219 -0.2530
   18CHL1  H21B 1312   6.147   5.183   4.831 -0.5145  0.7013 -0.3890
   18CHL1  H21C 1313   6.082   5.272   4.973  0.2708 -0.5394  0.9273
   18CHL1   C22 1314   6.371   5.288   4.806  0.1250 -0.2413 -0.4206
   18CHL1  H22A 1315   6.306   5.281   4.716  0.4701 -0.8011 -0.6330
   18CHL1  H22B 1316   6.453   5.361   4.791  0.4520 -0.6559 -0.6671
   18CHL1   C23 1317   6.436   5.143   4.819  0.6399 -0.5556  0.6158
   18CHL1  H23A 1318   6.506   5.165   4.903 -0.9408  1.3940  1.5157
   18CHL1  H23B 1319   6.359   5.066   4.840 -2.1340  1.4298 -1.4999
   18CHL1   C24 1320   6.518   5.113   4.688  0.2771  0.4376  0.0974
   18CHL1  H24A 1321   6.597   5.187   4.664  0.2897 -0.1817 -1.9972
   18CHL1  H24B 1322   6.564   5.012   4.702 -0.3166  0.5243  3.4457
   18CHL1   C25 1323   6.435   5.095   4.560 -0.2442 -0.1860 -0.4007
   18CHL1   H25 1324   6.380   5.191   4.544  0.3938  0.1475 -0.6482
   18CHL1   C26 1325   6.517   5.064   4.432 -0.6720 -0.9226  0.2795
   18CHL1  H26A 1326   6.451   5.057   4.343 -0.3770 -2.8302  0.1783
   18CHL1  H26B 1327   6.585   5.151   4.422 -0.1405 -1.4058 -0.2994
   18CHL1  H26C 1328   6.570   4.969   4.448  1.7194  0.6580  2.5321
   18CHL1   C27 1329   6.329   4.990   4.576 -0.1591  0.3465  0.2513
   18CHL1  H27A 1330   6.255   5.009   4.657 -0.1332 -0.9420  0.5999
   18CHL1  H27B 1331   6.278   4.984   4.478  1.0311  0.2856 -0.3761
   18CHL1  H27C 1332   6.377   4.890   4.585  0.6523  0.6219 -0.9059
   19CHL1    C3 1333   1.704   0.568   5.809  0.2812 -0.3802  0.1309
   19CHL1    H3 1334   1.653   0.471   5.828  0.1890  0.0313  2.2511
   19CHL1    O3 1335   1.777   0.617   5.922 -0.0488 -0.6786 -0.2777
   19CHL1   H3' 1336   1.792   0.710   5.902  1.3724 -1.0983 -1.3035
   19CHL1    C4 1337   1.801   0.541   5.695 -0.0921  0.1639  0.2053
   19CHL1   H4A 1338   1.858   0.636   5.690 -1.7370  1.1980  0.2659
   19CHL1   H4B 1339   1.878   0.467   5.726  0.5016  1.0647  0.9274
   19CHL1    C5 1340   1.750   0.508   5.555  0.7731  0.0918  0.8906
   19CHL1    C6 1341   1.785   0.397   5.485 -0.3642  0.1810  1.3477
   19CHL1    H6 1342   1.854   0.329   5.537  1.0426  0.1353 -0.4809
   19CHL1    C7 1343   1.725   0.357   5.354 -0.0638 -0.1298  0.3510
   19CHL1   H7A 1344   1.816   0.334   5.294  0.7854  0.7958  1.2473
   19CHL1   H7B 1345   1.660   0.269   5.373  1.0714 -0.5042  2.8680
   19CHL1    C8 1346   1.648   0.481   5.289  0.9562  0.6107 -0.0598
   19CHL1    H8 1347   1.721   0.550   5.242  1.5410 -0.3908 -0.6627
   19CHL1   C14 1348   1.556   0.429   5.176 -0.1617  0.5230 -0.5693
   19CHL1   H14 1349   1.483   0.364   5.228 -0.0024 -1.0622 -2.2273
   19CHL1   C15 1350   1.625   0.356   5.065  0.2170  0.4210  0.1267
   19CHL1  H15A 1351   1.718   0.413   5.040  0.1892  0.3263 -0.1959
   19CHL1  H15B 1352   1.651   0.251   5.087  0.3536  0.4673  0.1893
   19CHL1   C16 1353   1.528   0.374   4.937  0.8583 -0.4453  0.2697
   19CHL1  H16A 1354   1.577   0.444   4.865 -0.7065 -0.3329 -0.7286
   19CHL1  H16B 1355   1.496   0.281   4.887  3.0738 -0.6659 -0.8784
   19CHL1   C17 1356   1.410   0.461   4.983  0.3316  0.2946  0.0532
   19CHL1   H17 1357   1.332   0.388   5.014 -0.0676  0.9892  0.7132
   19CHL1   C13 1358   1.469   0.536   5.103  0.0372 -0.2777 -0.0272
   19CHL1   C18 1359   1.550   0.658   5.050  0.0533  0.7647  0.1797
   19CHL1  H18A 1360   1.604   0.710   5.131  0.2827 -0.6373  0.9546
   19CHL1  H18B 1361   1.630   0.623   4.981 -0.8100 -0.3725 -0.2614
   19CHL1  H18C 1362   1.486   0.741   5.012  3.1211  2.4319 -1.7757
   19CHL1   C12 1363   1.363   0.586   5.207 -0.0799 -0.0995  0.6821
   19CHL1  H12A 1364   1.305   0.660   5.150  2.1327  0.2529 -1.2855
   19CHL1  H12B 1365   1.297   0.502   5.238  0.6871 -0.8948  0.2458
   19CHL1   C11 1366   1.437   0.637   5.340  0.7283 -0.0826  0.2494
   19CHL1  H11A 1367   1.482   0.737   5.321  0.3664  0.0987  0.3333
   19CHL1  H11B 1368   1.360   0.648   5.419 -0.3114 -3.4362 -0.1461
   19CHL1    C9 1369   1.552   0.542   5.393 -0.4568  0.4153  0.4299
   19CHL1    H9 1370   1.489   0.460   5.433  0.5921  0.2108  1.7295
   19CHL1   C10 1371   1.635   0.604   5.503 -0.5051 -0.0503 -0.1295
   19CHL1   C19 1372   1.707   0.737   5.453 -0.2741  0.0426 -0.6754
   19CHL1  H19A 1373   1.640   0.804   5.396 -0.9440 -1.7007 -2.0516
   19CHL1  H19B 1374   1.741   0.796   5.541 -0.0756 -0.7898 -0.1763
   19CHL1  H19C 1375   1.794   0.716   5.386 -0.2106 -1.4154 -0.1709
   19CHL1    C1 1376   1.540   0.637   5.621 -0.4234 -0.1816 -0.1501
   19CHL1   H1A 1377   1.473   0.724   5.605 -1.7736 -0.3357  3.5781
   19CHL1   H1B 1378   1.468   0.554   5.636 -0.6815 -0.0425 -0.6051
   19CHL1    C2 1379   1.607   0.678   5.759 -0.6972  0.4330  0.2121
   19CHL1   H2A 1380   1.539   0.694   5.845 -0.4430  0.2701  0.4447
   19CHL1   H2B 1381   1.674   0.764   5.740 -0.5139  0.2913  0.2183
   19CHL1   C20 1382   1.343   0.550   4.868  0.4192 -0.1286 -0.1504
   19CHL1   H20 1383   1.419   0.622   4.831 -0.5790  0.1346 -1.7983
   19CHL1   C21 1384   1.213   0.627   4.905  0.6434 -0.4625  0.5137
   19CHL1  H21A 1385   1.229   0.713   4.974  1.9652  1.1525 -1.6793
   19CHL1  H21B 1386   1.155   0.549   4.959  0.2354 -0.0894  0.6272
   19CHL1  H21C 1387   1.152   0.658   4.818 -0.9042 -2.8628  0.6443
   19CHL1   C22 1388   1.301   0.468   4.746 -0.4174 -0.0886 -0.0919
   19CHL1  H22A 1389   1.377   0.389   4.728 -0.3581 -0.3731  1.2880
   19CHL1  H22B 1390   1.214   0.405   4.776  0.2808  0.2988  3.0343
   19CHL1   C23 1391   1.277   0.542   4.615 -0.3138  0.3447 -0.1173
   19CHL1  H23A 1392   1.184   0.601   4.629 -1.5092 -1.2391 -0.9475
   19CHL1  H23B 1393   1.363   0.612   4.614 -0.7656  0.9135 -1.5050
   19CHL1   C24 1394   1.261   0.456   4.490  0.3296  0.0439  0.2466
   19CHL1  H24A 1395   1.350   0.394   4.467 -1.8981 -2.8951 -1.0132
   19CHL1  H24B 1396   1.188   0.377   4.517 -1.1580  0.8851 -1.1213
   19CHL1   C25 1397   1.223   0.534   4.365  0.5270  0.3554 -0.5131
   19CHL1   H25 1398   1.295   0.617   4.347  1.1547  0.0350  0.4793
   19CHL1   C26 1399   1.226   0.440   4.240 -0.0827 -0.5589  0.5257
   19CHL1  H26A 1400   1.133   0.382   4.258 -0.0337 -0.3842  1.3493
   19CHL1  H26B 1401   1.206   0.503   4.150 -0.9606 -1.7298 -0.1311
   19CHL1  H26C 1402   1.323   0.387   4.246  0.0584 -0.4518 -0.5286
   19CHL1   C27 1403   1.084   0.595   4.378 -0.0381  0.2854  0.4021
   19CHL1  H27A 1404   1.031   0.634   4.289  0.2825  2.1130  0.9686
   19CHL1  H27B 1405   1.023   0.524   4.438 -0.9469  1.3603  0.7821
   19CHL1  H27C 1406   1.107   0.686   4.437  0.4403 -2.4146  4.8453
   20CHL1    C3 1407   4.772   6.085   5.693 -0.0583  0.3582 -0.0608
   20CHL1    H3 1408   4.841   6.166   5.662  1.0508 -0.9417 -1.1516
   20CHL1    O3 1409   4.749   6.096   5.836  0.5087 -0.9123 -0.0384
   20CHL1   H3' 1410   4.738   6.189   5.854  2.7771 -0.8445  1.3804
   20CHL1    C4 1411   4.636   6.117   5.622  0.0796 -0.2144  0.7372
   20CHL1   H4A 1412   4.554   6.054   5.662 -0.8666  1.1804  1.0707
   20CHL1   H4B 1413   4.606   6.222   5.641  1.9462  0.0294  2.7791
   20CHL1    C5 1414   4.658   6.092   5.477 -0.0114  0.2534  0.3481
   20CHL1    C6 1415   4.631   6.187   5.386  0.1798 -0.1985 -0.0608
   20CHL1    H6 1416   4.594   6.285   5.420  2.8821  0.5289  1.0670
   20CHL1    C7 1417   4.636   6.177   5.242 -0.2750  0.3193 -0.1778
   20CHL1   H7A 1418   4.538   6.209   5.201 -0.2018 -0.0640 -0.6558
   20CHL1   H7B 1419   4.707   6.245   5.191  0.8454 -0.8478 -0.2125
   20CHL1    C8 1420   4.651   6.026   5.197 -0.0366 -0.4512  0.6290
   20CHL1    H8 1421   4.549   5.986   5.210  0.3369 -1.2408  1.2009
   20CHL1   C14 1422   4.687   6.019   5.050  0.1272 -0.3006  0.1418
   20CHL1   H14 1423   4.785   6.070   5.045  1.1080 -1.8531  2.1868
   20CHL1   C15 1424   4.583   6.091   4.959  0.3150 -0.0282 -0.5847
   20CHL1  H15A 1425   4.479   6.084   4.996  0.7786 -1.0648  0.5883
   20CHL1  H15B 1426   4.618   6.196   4.964  0.2812 -0.0482  0.2232
   20CHL1   C16 1427   4.596   6.026   4.821 -0.6806  0.5556  0.0175
   20CHL1  H16A 1428   4.500   5.975   4.800  0.0757  0.2086 -3.1386
   20CHL1  H16B 1429   4.626   6.097   4.741  0.5658 -0.2306 -0.2527
   20CHL1   C17 1430   4.699   5.908   4.841  0.3476 -0.5102  0.5015
   20CHL1   H17 1431   4.789   5.971   4.825 -0.8476  1.6400  1.7161
   20CHL1   C13 1432   4.698   5.882   4.992  0.4777 -0.6056 -0.5638
   20CHL1   C18 1433   4.567   5.805   5.018  0.9165 -0.2627 -0.3923
   20CHL1  H18A 1434   4.539   5.800   5.125 -0.1611 -0.8660 -0.6920
   20CHL1  H18B 1435   4.482   5.854   4.966  1.4125 -1.0045 -1.9631
   20CHL1  H18C 1436   4.584   5.699   4.988 -0.7102 -0.7757  0.3977
   20CHL1   C12 1437   4.820   5.818   5.066 -0.3329  0.3570  0.9756
   20CHL1  H12A 1438   4.830   5.714   5.028 -0.9868  0.7111 -0.2114
   20CHL1  H12B 1439   4.908   5.882   5.047  0.4132 -0.9454 -0.1456
   20CHL1   C11 1440   4.797   5.817   5.224  1.0946 -0.0842  0.3135
   20CHL1  H11A 1441   4.710   5.750   5.243  0.6693  0.1482 -0.6945
   20CHL1  H11B 1442   4.888   5.779   5.274  1.0779  1.0551  1.2398
   20CHL1    C9 1443   4.758   5.959   5.282  0.7046  0.3442 -0.2317
   20CHL1    H9 1444   4.848   6.024   5.272  1.0934 -0.0588  0.5920
   20CHL1   C10 1445   4.720   5.959   5.435 -0.1673 -0.4954 -0.0621
   20CHL1   C19 1446   4.615   5.849   5.459 -0.0347  0.2440  0.3405
   20CHL1  H19A 1447   4.581   5.854   5.564  1.7783  0.1567  0.9762
   20CHL1  H19B 1448   4.528   5.863   5.392  0.8917 -0.0772 -0.9838
   20CHL1  H19C 1449   4.649   5.744   5.440 -0.1293  0.4622 -1.1581
   20CHL1    C1 1450   4.849   5.925   5.516  0.3033 -0.0756  0.0400
   20CHL1   H1A 1451   4.887   5.825   5.486 -0.1264 -0.2264 -0.0077
   20CHL1   H1B 1452   4.927   5.997   5.484  1.3393 -1.8054 -1.5269
   20CHL1    C2 1453   4.827   5.945   5.659  0.4419  0.1131 -0.2791
   20CHL1   H2A 1454   4.924   5.937   5.711  0.7050 -2.0771 -1.0218
   20CHL1   H2B 1455   4.769   5.856   5.691 -0.5971  0.7404 -0.3570
   20CHL1   C20 1456   4.694   5.799   4.744 -0.1177  0.4654 -0.2008
   20CHL1   H20 1457   4.607   5.731   4.759  1.3345 -1.3497  0.3350
   20CHL1   C21 1458   4.819   5.713   4.760 -0.2438 -0.3267 -0.3558
   20CHL1  H21A 1459   4.856   5.657   4.672  0.8756 -2.8185  1.5788
   20CHL1  H21B 1460   4.826   5.639   4.842  1.6155 -1.4399 -1.4494
   20CHL1  H21C 1461   4.902   5.785   4.778 -1.6688  1.7576 -1.5749
   20CHL1   C22 1462   4.679   5.840   4.601  0.2971 -0.2059  0.0347
   20CHL1  H22A 1463   4.601   5.916   4.581  0.9610  0.2752 -0.8224
   20CHL1  H22B 1464   4.772   5.889   4.563 -0.0506 -0.1143 -0.7167
   20CHL1   C23 1465   4.654   5.713   4.504  0.0875 -0.0969  0.1578
   20CHL1  H23A 1466   4.725   5.630   4.522  0.8779 -0.1284 -2.5902
   20CHL1  H23B 1467   4.546   5.686   4.506  0.7918 -3.1116  1.0234
   20CHL1   C24 1468   4.686   5.748   4.358 -0.0226 -0.3576 -0.8158
   20CHL1  H24A 1469   4.620   5.831   4.328 -1.4978 -1.2260 -0.0864
   20CHL1  H24B 1470   4.794   5.773   4.350 -0.3622  1.0830 -1.0141
   20CHL1   C25 1471   4.664   5.643   4.252 -0.1147  0.6016  0.0994
   20CHL1   H25 1472   4.724   5.553   4.278 -1.2600  0.2147  1.5902
   20CHL1   C26 1473   4.514   5.604   4.245  0.3006 -0.6057  0.4348
   20CHL1  H26A 1474   4.462   5.697   4.212  0.5482 -0.8200 -0.6050
   20CHL1  H26B 1475   4.493   5.530   4.165 -0.5954  0.9925 -0.8768
   20CHL1  H26C 1476   4.484   5.571   4.347 -0.8058 -0.2922  0.2186
   20CHL1   C27 1477   4.712   5.693   4.117  0.4872 -0.4484  0.8026
   20CHL1  H27A 1478   4.696   5.803   4.109 -0.1781 -0.6572 -1.5026
   20CHL1  H27B 1479   4.817   5.664   4.098  0.1555 -0.8647 -0.5627
   20CHL1  H27C 1480   4.646   5.654   4.036 -0.5438 -0.2476  1.5177
   21CHL1    C3 1481   2.430   6.156   5.998  0.1208  0.6273 -1.0701
   21CHL1    H3 1482   2.339   6.097   5.974 -2.2513  1.5160  4.2145
   21CHL1    O3 1483   2.447   6.136   6.141  0.6374  1.0279  0.0836
   21CHL1   H3' 1484   2.522   6.193   6.162  2.2679 -1.2110  0.7677
   21CHL1    C4 1485   2.562   6.112   5.928  0.8005 -0.4781  0.4272
   21CHL1   H4A 1486   2.642   6.174   5.975  1.0559  0.8479 -1.6224
   21CHL1   H4B 1487   2.570   6.006   5.958 -1.0125 -0.3530  1.5107
   21CHL1    C5 1488   2.548   6.138   5.777 -0.6771  0.0895 -0.2620
   21CHL1    C6 1489   2.545   6.039   5.688  0.2335 -0.3238  0.4705
   21CHL1    H6 1490   2.550   5.935   5.724  1.2416  0.2565  2.0548
   21CHL1    C7 1491   2.533   6.074   5.540 -0.1920  0.8034 -0.3148
   21CHL1   H7A 1492   2.602   6.012   5.479 -0.3010  2.5672 -2.3541
   21CHL1   H7B 1493   2.427   6.061   5.508 -0.0322 -0.2632 -0.4451
   21CHL1    C8 1494   2.567   6.220   5.501  0.3058 -0.0930  1.1960
   21CHL1    H8 1495   2.674   6.248   5.517 -0.3110  1.8806  2.1338
   21CHL1   C14 1496   2.523   6.247   5.352  0.0196 -0.3725 -0.2944
   21CHL1   H14 1497   2.413   6.238   5.352 -0.1909  1.5216  1.0645
   21CHL1   C15 1498   2.588   6.150   5.241  0.4051 -0.1246 -1.2180
   21CHL1  H15A 1499   2.696   6.137   5.266 -0.1891  0.2839  2.1280
   21CHL1  H15B 1500   2.553   6.045   5.248  1.9868 -0.7340 -1.9829
   21CHL1   C16 1501   2.547   6.223   5.111 -0.7854  0.4320  0.5613
   21CHL1  H16A 1502   2.646   6.247   5.065  0.1117 -0.7398  1.8143
   21CHL1  H16B 1503   2.484   6.169   5.037 -0.8115  1.2686 -0.0517
   21CHL1   C17 1504   2.500   6.371   5.156  1.0205  0.1025 -0.0477
   21CHL1   H17 1505   2.390   6.352   5.162  0.8629  0.2612 -1.8381
   21CHL1   C13 1506   2.553   6.389   5.299  0.8428 -0.4404 -0.0386
   21CHL1   C18 1507   2.707   6.418   5.294 -0.0131 -0.0622  0.3148
   21CHL1  H18A 1508   2.720   6.522   5.259 -0.6852 -0.4278 -1.1369
   21CHL1  H18B 1509   2.761   6.402   5.389  0.5616 -3.2592 -0.4263
   21CHL1  H18C 1510   2.765   6.354   5.223  0.3089 -1.0694  1.4595
   21CHL1   C12 1511   2.478   6.484   5.397  0.4716  0.1882 -0.2500
   21CHL1  H12A 1512   2.481   6.591   5.369 -3.2224  0.3662 -0.4794
   21CHL1  H12B 1513   2.370   6.460   5.385  0.4312  0.6275 -0.7889
   21CHL1   C11 1514   2.510   6.469   5.548 -0.1542  0.2050  0.4254
   21CHL1  H11A 1515   2.619   6.489   5.556  0.5420 -2.7827 -0.1817
   21CHL1  H11B 1516   2.441   6.534   5.607 -1.9162  0.2015 -1.5146
   21CHL1    C9 1517   2.499   6.319   5.589  0.3640 -0.4793 -0.1622
   21CHL1    H9 1518   2.392   6.293   5.573  0.9572 -2.0341 -1.8123
   21CHL1   C10 1519   2.531   6.290   5.744  0.7090  0.1827  0.0481
   21CHL1   C19 1520   2.656   6.365   5.772 -0.3082  0.0782  0.2958
   21CHL1  H19A 1521   2.640   6.474   5.761 -1.5062 -0.1917 -0.8799
   21CHL1  H19B 1522   2.697   6.338   5.872 -4.3413 -0.6802  1.9575
   21CHL1  H19C 1523   2.740   6.343   5.703  0.5268  2.0881  0.6157
   21CHL1    C1 1524   2.402   6.338   5.821  0.0843  0.1492  0.4401
   21CHL1   H1A 1525   2.393   6.448   5.811 -1.1313  0.2855  2.5014
   21CHL1   H1B 1526   2.313   6.293   5.772 -0.6625 -0.0828  1.9365
   21CHL1    C2 1527   2.397   6.306   5.975 -0.3257 -0.0684  0.9629
   21CHL1   H2A 1528   2.297   6.332   6.015 -1.3395  0.5461 -1.7733
   21CHL1   H2B 1529   2.475   6.365   6.029  0.7233  0.8673 -1.4155
   21CHL1   C20 1530   2.523   6.480   5.045  0.0804 -0.5447  0.4929
   21CHL1   H20 1531   2.632   6.482   5.027  0.1441  1.7880  0.7497
   21CHL1   C21 1532   2.481   6.627   5.080  0.9102 -0.3571 -0.1904
   21CHL1  H21A 1533   2.482   6.695   4.992 -1.8647 -0.6715 -0.5568
   21CHL1  H21B 1534   2.555   6.672   5.149  1.3604  1.3621 -1.7251
   21CHL1  H21C 1535   2.379   6.635   5.125  0.3670 -2.3331 -0.9836
   21CHL1   C22 1536   2.458   6.441   4.914  0.7968  0.0544 -0.5995
   21CHL1  H22A 1537   2.443   6.332   4.900  0.2481 -0.0960  0.9370
   21CHL1  H22B 1538   2.354   6.480   4.914  0.3301 -1.0530  1.6141
   21CHL1   C23 1539   2.531   6.493   4.792 -0.6507 -0.7836  1.2475
   21CHL1  H23A 1540   2.554   6.601   4.801 -0.6898 -0.8221  1.8832
   21CHL1  H23B 1541   2.629   6.443   4.778 -1.6148 -2.1346 -1.4079
   21CHL1   C24 1542   2.453   6.479   4.660  0.2788  0.7780 -0.4447
   21CHL1  H24A 1543   2.419   6.374   4.655 -1.8732  1.4330 -0.5076
   21CHL1  H24B 1544   2.350   6.519   4.665  0.3077  1.1783 -2.3384
   21CHL1   C25 1545   2.542   6.503   4.538  0.3061 -0.6740  0.4706
   21CHL1   H25 1546   2.629   6.433   4.535 -0.4465 -1.6701  1.0761
   21CHL1   C26 1547   2.447   6.498   4.420 -0.2554  0.9191 -0.4295
   21CHL1  H26A 1548   2.504   6.514   4.326 -0.4308  0.1641 -0.6744
   21CHL1  H26B 1549   2.383   6.407   4.410 -3.1706  2.9746 -1.6354
   21CHL1  H26C 1550   2.375   6.581   4.435  0.5052  1.6260 -0.6267
   21CHL1   C27 1551   2.597   6.651   4.550  0.0207 -0.2639 -0.0135
   21CHL1  H27A 1552   2.661   6.678   4.463  0.3442 -0.0241  0.2947
   21CHL1  H27B 1553   2.518   6.730   4.553  0.3101  0.0323 -0.1074
   21CHL1  H27C 1554   2.657   6.659   4.644 -1.1576 -2.1788  0.9596
   22CHL1    C3 1555   4.853   0.111   5.657 -0.1866  0.4977 -0.4114
   22CHL1    H3 1556   4.856   0.221   5.672 -0.0276  0.2256  1.9887
   22CHL1    O3 1557   4.843   0.060   5.792 -0.1385 -0.3125  1.2545
   22CHL1   H3' 1558   4.857   0.140   5.842 -2.2699  1.8957 -1.3576
   22CHL1    C4 1559   4.733   0.078   5.570 -0.0610 -0.6642  0.3969
   22CHL1   H4A 1560   4.731  -0.031   5.549  1.2478 -0.8262  0.9962
   22CHL1   H4B 1561   4.638   0.114   5.615 -0.3694 -0.0333 -0.7295
   22CHL1    C5 1562   4.744   0.144   5.438 -0.1100  0.4276  0.0812
   22CHL1    C6 1563   4.647   0.222   5.390 -0.2935 -0.0174 -0.8009
   22CHL1    H6 1564   4.557   0.245   5.448  0.1530  0.0066 -0.0970
   22CHL1    C7 1565   4.642   0.288   5.253 -0.4414  0.4026  0.6351
   22CHL1   H7A 1566   4.545   0.258   5.208  1.2016 -2.4569 -1.2593
   22CHL1   H7B 1567   4.647   0.399   5.266  1.1210  0.5366 -0.8536
   22CHL1    C8 1568   4.752   0.224   5.159  0.6056  0.5955 -1.0123
   22CHL1    H8 1569   4.709   0.124   5.135  0.2363  0.4458  0.2102
   22CHL1   C14 1570   4.773   0.313   5.040  0.0600  0.4051  0.6362
   22CHL1   H14 1571   4.796   0.414   5.081  3.8998 -0.0898  0.1053
   22CHL1   C15 1572   4.650   0.338   4.950  0.1451  0.2926  0.7369
   22CHL1  H15A 1573   4.611   0.241   4.913 -1.1587  0.8232  0.6561
   22CHL1  H15B 1574   4.562   0.398   4.981 -1.0962 -1.4650  0.7623
   22CHL1   C16 1575   4.716   0.403   4.821 -0.2215 -0.6387  0.5683
   22CHL1  H16A 1576   4.675   0.358   4.728 -1.5019  2.1507 -0.3175
   22CHL1  H16B 1577   4.686   0.509   4.818 -0.8003 -0.8219 -1.1283
   22CHL1   C17 1578   4.863   0.380   4.831  0.1065 -0.0447  0.1170
   22CHL1   H17 1579   4.917   0.469   4.869 -0.2269 -0.5004  1.7681
   22CHL1   C13 1580   4.881   0.277   4.945 -0.0179 -0.1226 -0.1221
   22CHL1   C18 1581   4.857   0.135   4.894  0.9819  0.8734  0.5865
   22CHL1  H18A 1582   4.940   0.104   4.826 -0.3139 -1.4794 -0.0112
   22CHL1  H18B 1583   4.857   0.056   4.972  1.0725 -0.2978 -0.5562
   22CHL1  H18C 1584   4.764   0.120   4.836  1.8836 -0.2328 -0.6469
   22CHL1   C12 1585   5.013   0.283   5.027  0.2342  0.4154  0.1483
   22CHL1  H12A 1586   5.098   0.242   4.968  0.2072 -0.3911  0.6574
   22CHL1  H12B 1587   5.030   0.388   5.059 -1.0283  0.8499 -0.5479
   22CHL1   C11 1588   5.011   0.194   5.156 -0.7352 -0.0473 -0.1242
   22CHL1  H11A 1589   5.035   0.090   5.125 -0.5282 -0.2429  0.6632
   22CHL1  H11B 1590   5.099   0.233   5.213 -1.3114 -0.0245  0.7779
   22CHL1    C9 1591   4.885   0.213   5.239 -1.1099 -0.1927 -0.3117
   22CHL1    H9 1592   4.887   0.316   5.280  1.2710  0.0264 -0.8560
   22CHL1   C10 1593   4.873   0.115   5.360 -0.2816 -0.2857 -0.6700
   22CHL1   C19 1594   4.851  -0.028   5.304  0.2181 -0.5796 -0.2236
   22CHL1  H19A 1595   4.851  -0.106   5.383  1.4289  0.3349  0.7059
   22CHL1  H19B 1596   4.748  -0.034   5.262 -0.3536  1.0309  0.8498
   22CHL1  H19C 1597   4.929  -0.067   5.236  0.3610 -0.0188 -0.3856
   22CHL1    C1 1598   4.997   0.119   5.449 -0.0051 -0.2167  0.2660
   22CHL1   H1A 1599   5.084   0.081   5.391 -1.2021  0.3075 -1.9944
   22CHL1   H1B 1600   5.004   0.230   5.458 -0.9215 -0.1096 -0.2918
   22CHL1    C2 1601   4.982   0.055   5.589 -0.0254 -0.2767 -0.6378
   22CHL1   H2A 1602   5.070   0.085   5.650  3.0284 -2.5391 -3.6312
   22CHL1   H2B 1603   4.968  -0.054   5.577 -2.8592  0.0904 -1.3707
   22CHL1   C20 1604   4.924   0.348   4.694 -0.3227  0.1982 -0.0112
   22CHL1   H20 1605   4.881   0.255   4.651  1.6524 -1.4237  1.3125
   22CHL1   C21 1606   5.081   0.322   4.696 -0.3182 -0.0554 -0.2842
   22CHL1  H21A 1607   5.149   0.404   4.727  2.7492 -2.0995 -1.1470
   22CHL1  H21B 1608   5.103   0.293   4.591  1.7817  1.5075 -0.3385
   22CHL1  H21C 1609   5.118   0.242   4.764  1.6879  1.3937  0.4467
   22CHL1   C22 1610   4.885   0.458   4.589  0.1926  0.8634 -0.3095
   22CHL1  H22A 1611   4.783   0.497   4.609 -0.4600 -1.6132  1.6282
   22CHL1  H22B 1612   4.949   0.546   4.611  1.6795 -0.3703  0.4679
   22CHL1   C23 1613   4.899   0.414   4.450  0.4706 -0.1275  0.2379
   22CHL1  H23A 1614   4.883   0.501   4.383  2.0974  1.9239  2.3389
   22CHL1  H23B 1615   5.003   0.381   4.429  1.2137  1.9725  0.3527
   22CHL1   C24 1616   4.810   0.298   4.395  0.2339 -0.0104 -0.5918
   22CHL1  H24A 1617   4.839   0.201   4.440 -1.5256  0.2533  1.2293
   22CHL1  H24B 1618   4.704   0.312   4.425  0.2327  0.9611 -1.0024
   22CHL1   C25 1619   4.822   0.288   4.240  0.6637  0.3290  0.4042
   22CHL1   H25 1620   4.774   0.381   4.204 -0.3419 -0.0826  0.6372
   22CHL1   C26 1621   4.958   0.274   4.180 -0.1516 -0.2024  0.0329
   22CHL1  H26A 1622   5.011   0.183   4.215  1.3136  1.2592  1.8022
   22CHL1  H26B 1623   4.955   0.285   4.069  0.4963 -0.2161  0.0057
   22CHL1  H26C 1624   5.016   0.362   4.215 -1.5894  0.8008 -0.0164
   22CHL1   C27 1625   4.733   0.173   4.182 -0.0615  0.5110  0.1201
   22CHL1  H27A 1626   4.711   0.170   4.073 -1.4137 -1.4023  0.3956
   22CHL1  H27B 1627   4.790   0.082   4.209  1.5244  1.0321 -1.3161
   22CHL1  H27C 1628   4.640   0.152   4.239 -0.1291  0.5405  0.0227
   23CHL1    C3 1629   3.542   5.185   5.894  0.1007 -0.4735 -0.4532
   23CHL1    H3 1630   3.570   5.087   5.850 -0.2107  0.2633 -2.4224
   23CHL1    O3 1631   3.488   5.152   6.018 -0.2482 -0.1283  0.0745
   23CHL1   H3' 1632   3.449   5.238   6.033 -0.1107  0.6132 -3.0929
   23CHL1    C4 1633   3.660   5.286   5.906 -0.2972  0.0338  0.3845
   23CHL1   H4A 1634   3.626   5.378   5.958 -1.1791 -0.3998  0.5816
   23CHL1   H4B 1635   3.743   5.252   5.971  1.7924  2.4862 -0.7962
   23CHL1    C5 1636   3.717   5.314   5.768  0.2482 -0.0030 -0.9789
   23CHL1    C6 1637   3.843   5.279   5.749 -0.0682  0.4824  0.5703
   23CHL1    H6 1638   3.904   5.241   5.832 -0.3394  0.9628  0.9887
   23CHL1    C7 1639   3.906   5.310   5.618  0.7756  0.0243 -0.6762
   23CHL1   H7A 1640   4.012   5.333   5.641  0.6683 -0.5653  0.5403
   23CHL1   H7B 1641   3.908   5.206   5.579 -2.5297 -0.8422  1.0742
   23CHL1    C8 1642   3.834   5.413   5.534 -0.2619  0.9700 -0.5245
   23CHL1    H8 1643   3.844   5.518   5.570  0.6332  1.0131 -0.8864
   23CHL1   C14 1644   3.885   5.414   5.388 -0.2216 -0.0377  0.9348
   23CHL1   H14 1645   3.851   5.317   5.348 -1.0363  0.5247  0.2318
   23CHL1   C15 1646   4.038   5.419   5.361 -0.5896 -0.0810  0.4013
   23CHL1  H15A 1647   4.075   5.509   5.412  0.0431 -0.0052 -0.1774
   23CHL1  H15B 1648   4.102   5.335   5.395  0.8999 -0.6623 -3.3613
   23CHL1   C16 1649   4.042   5.429   5.206  1.1660 -0.4875  0.0876
   23CHL1  H16A 1650   4.125   5.498   5.181 -0.5726  1.2909 -1.0561
   23CHL1  H16B 1651   4.068   5.328   5.166  0.5686 -0.5115 -0.2467
   23CHL1   C17 1652   3.900   5.488   5.165 -0.6679 -0.3126  0.4176
   23CHL1   H17 1653   3.841   5.408   5.117 -0.9562  0.7269 -1.0222
   23CHL1   C13 1654   3.820   5.518   5.293  0.7106  0.4923  0.6294
   23CHL1   C18 1655   3.833   5.663   5.334  0.6080 -0.0241 -0.3691
   23CHL1  H18A 1656   3.931   5.703   5.300  1.4101 -2.6279 -1.3069
   23CHL1  H18B 1657   3.758   5.738   5.299 -0.3660  0.2964  2.1806
   23CHL1  H18C 1658   3.839   5.672   5.445 -0.1933 -2.6018 -0.0620
   23CHL1   C12 1659   3.666   5.481   5.294  0.2160 -0.1055  0.5109
   23CHL1  H12A 1660   3.614   5.558   5.232  0.7237 -0.3471 -0.2240
   23CHL1  H12B 1661   3.653   5.383   5.244  0.7831  0.0005  0.1480
   23CHL1   C11 1662   3.601   5.470   5.432 -0.0212  0.5199  0.1022
   23CHL1  H11A 1663   3.588   5.569   5.482  3.1482  0.3535  1.5133
   23CHL1  H11B 1664   3.501   5.424   5.423  0.6756 -0.8625 -0.8626
   23CHL1    C9 1665   3.684   5.375   5.528 -0.2448  0.3207  0.3395
   23CHL1    H9 1666   3.683   5.275   5.479 -0.9425  1.2194 -1.5658
   23CHL1   C10 1667   3.623   5.369   5.669 -0.1017  0.8761  0.4512
   23CHL1   C19 1668   3.581   5.505   5.724 -0.4872  0.2839  0.7375
   23CHL1  H19A 1669   3.500   5.553   5.666  1.5638  0.7215 -1.9483
   23CHL1  H19B 1670   3.548   5.504   5.830 -1.4646 -0.4219  0.4466
   23CHL1  H19C 1671   3.654   5.589   5.714  0.2767 -0.5644 -1.3751
   23CHL1    C1 1672   3.494   5.276   5.671 -0.0396 -0.1655  0.1303
   23CHL1   H1A 1673   3.421   5.325   5.603  0.1196  0.3978  0.3639
   23CHL1   H1B 1674   3.519   5.178   5.625 -0.6188  0.0854 -0.7341
   23CHL1    C2 1675   3.438   5.250   5.807  0.3452  0.1575  0.7009
   23CHL1   H2A 1676   3.364   5.167   5.801  0.3852  0.2436 -1.8233
   23CHL1   H2B 1677   3.397   5.347   5.844 -2.7047 -0.7122 -0.0923
   23CHL1   C20 1678   3.904   5.593   5.050 -0.1666  0.3365 -0.1208
   23CHL1   H20 1679   3.969   5.676   5.087 -0.3096 -0.2233  1.4782
   23CHL1   C21 1680   3.764   5.642   5.019  0.0645  0.0491 -0.2651
   23CHL1  H21A 1681   3.720   5.713   5.093 -0.9566 -0.5771 -0.2524
   23CHL1  H21B 1682   3.694   5.556   5.009  1.0387 -0.7025 -0.7212
   23CHL1  H21C 1683   3.763   5.686   4.917  1.0493 -2.0394 -1.2323
   23CHL1   C22 1684   3.968   5.539   4.915 -0.0846 -0.0651  0.0826
   23CHL1  H22A 1685   4.049   5.465   4.934 -1.9761 -1.7922  1.9646
   23CHL1  H22B 1686   3.890   5.483   4.860  0.2440 -0.0014 -0.4496
   23CHL1   C23 1687   4.018   5.655   4.822 -0.1308 -0.5527 -0.4385
   23CHL1  H23A 1688   3.947   5.682   4.741 -0.1937  1.9264  0.3515
   23CHL1  H23B 1689   4.040   5.742   4.887 -1.3682 -0.2016 -0.4706
   23CHL1   C24 1690   4.141   5.610   4.750 -0.4313 -0.7388 -0.1981
   23CHL1  H24A 1691   4.229   5.614   4.818 -0.4246 -2.1087 -0.1078
   23CHL1  H24B 1692   4.137   5.505   4.715 -1.0885 -0.3605 -1.3217
   23CHL1   C25 1693   4.157   5.702   4.622 -0.1779 -0.7238 -1.6635
   23CHL1   H25 1694   4.061   5.756   4.614 -2.3385 -3.8984  0.4649
   23CHL1   C26 1695   4.268   5.803   4.636  0.0969 -0.1071  0.1420
   23CHL1  H26A 1696   4.286   5.870   4.549 -1.7406  0.4540  0.1399
   23CHL1  H26B 1697   4.264   5.860   4.731 -1.5832 -0.8985  0.5990
   23CHL1  H26C 1698   4.361   5.743   4.644 -1.0592 -2.3639 -1.9285
   23CHL1   C27 1699   4.190   5.618   4.496 -0.0595  0.1340 -0.2305
   23CHL1  H27A 1700   4.109   5.543   4.481 -1.3766  0.9946  2.0155
   23CHL1  H27B 1701   4.190   5.682   4.406  0.7190  0.6906  0.1595
   23CHL1  H27C 1702   4.289   5.569   4.512  0.1714  1.2117  2.2585
   24CHL1    C3 1703   6.352   3.859   5.647  0.3720 -0.3280  0.2260
   24CHL1    H3 1704   6.459   3.841   5.674  1.0355  0.3728 -1.7521
   24CHL1    O3 1705   6.266   3.816   5.751  0.0943 -0.0644 -0.2360
   24CHL1   H3' 1706   6.289   3.724   5.765  1.7720  0.1973 -1.0624
   24CHL1    C4 1707   6.324   4.004   5.623  0.2814  0.3319  0.1237
   24CHL1   H4A 1708   6.215   4.007   5.603  0.5070 -0.4891 -1.3447
   24CHL1   H4B 1709   6.340   4.070   5.712 -0.7722 -0.0538  0.6176
   24CHL1    C5 1710   6.378   4.075   5.499 -0.1523  0.4071  0.1100
   24CHL1    C6 1711   6.451   4.185   5.509 -0.3503 -0.2735  0.5903
   24CHL1    H6 1712   6.475   4.228   5.607  1.7608  0.1109 -0.0442
   24CHL1    C7 1713   6.517   4.248   5.384  0.8190 -0.3510 -0.7257
   24CHL1   H7A 1714   6.489   4.356   5.379 -1.7080 -0.9831 -1.6841
   24CHL1   H7B 1715   6.627   4.238   5.394  1.3032  3.4821 -0.7731
   24CHL1    C8 1716   6.458   4.196   5.247 -0.3279 -0.0296 -1.1913
   24CHL1    H8 1717   6.354   4.236   5.246 -0.6532 -0.5256  2.1055
   24CHL1   C14 1718   6.540   4.240   5.136 -0.6810  0.5609 -0.0491
   24CHL1   H14 1719   6.637   4.194   5.163  0.3099  1.2644 -2.2104
   24CHL1   C15 1720   6.574   4.389   5.124  0.2723 -0.1630  0.4175
   24CHL1  H15A 1721   6.484   4.453   5.137  1.2103  1.5262 -0.8589
   24CHL1  H15B 1722   6.661   4.418   5.187 -1.4278 -0.0043  2.7963
   24CHL1   C16 1723   6.611   4.394   4.970  0.6085  0.0489 -0.4840
   24CHL1  H16A 1724   6.543   4.456   4.907  0.1747 -0.5739 -0.6352
   24CHL1  H16B 1725   6.715   4.420   4.939 -0.0983  0.2066 -2.9858
   24CHL1   C17 1726   6.606   4.252   4.903 -0.2762 -0.5608 -0.1808
   24CHL1   H17 1727   6.706   4.204   4.915 -0.5802 -1.3830 -0.8116
   24CHL1   C13 1728   6.501   4.190   4.998  0.3645  0.6030  0.0609
   24CHL1   C18 1729   6.357   4.242   4.967  1.0737 -0.6827  0.2906
   24CHL1  H18A 1730   6.323   4.191   4.874 -0.0967 -1.3277  1.0344
   24CHL1  H18B 1731   6.375   4.351   4.971  0.4461 -0.6042  2.1790
   24CHL1  H18C 1732   6.288   4.219   5.052 -0.1654  0.3362 -0.3982
   24CHL1   C12 1733   6.504   4.031   5.010 -0.5802  0.7073  0.0157
   24CHL1  H12A 1734   6.471   3.987   4.913  3.2174 -0.8012 -0.7815
   24CHL1  H12B 1735   6.607   3.990   5.023 -0.8879  0.1685  0.8355
   24CHL1   C11 1736   6.411   3.983   5.121  0.5626 -0.3269 -0.6931
   24CHL1  H11A 1737   6.313   4.015   5.081  0.7047  1.9009  0.5941
   24CHL1  H11B 1738   6.417   3.872   5.123  0.6031 -0.3221 -0.3414
   24CHL1    C9 1739   6.449   4.041   5.256  0.1949  0.2610 -0.4007
   24CHL1    H9 1740   6.551   4.001   5.273 -0.6950 -1.0241  2.6443
   24CHL1   C10 1741   6.352   3.996   5.368 -0.0384  1.5255  0.1505
   24CHL1   C19 1742   6.205   4.018   5.321  0.2686  0.6073 -0.0000
   24CHL1  H19A 1743   6.191   4.115   5.269  1.2939  0.2416 -1.0163
   24CHL1  H19B 1744   6.186   3.934   5.251 -0.2945  1.0639 -0.4066
   24CHL1  H19C 1745   6.134   4.003   5.405 -0.2440 -0.6173 -0.6274
   24CHL1    C1 1746   6.388   3.840   5.399  0.4366 -0.5998  0.2636
   24CHL1   H1A 1747   6.360   3.776   5.312  0.0465 -0.1448  0.0484
   24CHL1   H1B 1748   6.498   3.828   5.408  0.5607  0.0835 -0.1963
   24CHL1    C2 1749   6.319   3.778   5.523  0.1138 -0.5063 -1.2623
   24CHL1   H2A 1750   6.338   3.669   5.523 -0.0663 -0.5653  0.4546
   24CHL1   H2B 1751   6.209   3.790   5.513 -0.5823 -1.3033  3.3066
   24CHL1   C20 1752   6.582   4.261   4.755 -0.9072  0.6971 -0.6475
   24CHL1   H20 1753   6.498   4.331   4.732 -1.0189  0.4352 -1.0521
   24CHL1   C21 1754   6.549   4.119   4.704 -0.1794  0.4744  0.4551
   24CHL1  H21A 1755   6.632   4.051   4.732  0.3194  0.5144 -0.8704
   24CHL1  H21B 1756   6.539   4.127   4.594 -0.7999 -0.1113  0.4618
   24CHL1  H21C 1757   6.444   4.091   4.732 -0.4878 -0.7973 -1.7647
   24CHL1   C22 1758   6.715   4.303   4.689 -0.0839 -0.3215 -0.1520
   24CHL1  H22A 1759   6.747   4.402   4.728 -0.2717 -0.2269 -0.2378
   24CHL1  H22B 1760   6.794   4.230   4.716  0.1586 -0.2473 -0.6465
   24CHL1   C23 1761   6.730   4.320   4.534  0.0894  0.3617 -0.2856
   24CHL1  H23A 1762   6.839   4.339   4.517  0.1577 -0.4406 -0.8069
   24CHL1  H23B 1763   6.688   4.231   4.483 -0.6595 -0.1635  1.2032
   24CHL1   C24 1764   6.649   4.440   4.476  0.3513 -0.5179 -0.4296
   24CHL1  H24A 1765   6.547   4.446   4.520  0.0605 -0.6470 -1.0837
   24CHL1  H24B 1766   6.695   4.530   4.523 -0.1367 -0.9168  0.8559
   24CHL1   C25 1767   6.664   4.465   4.323 -0.6150  0.2000  0.7099
   24CHL1   H25 1768   6.655   4.369   4.268 -3.4660  0.1763  1.0786
   24CHL1   C26 1769   6.557   4.549   4.268  0.3626  0.1049  0.2174
   24CHL1  H26A 1770   6.554   4.650   4.315  3.0481 -0.1778  1.1779
   24CHL1  H26B 1771   6.575   4.573   4.161 -1.0193  1.8609  0.3233
   24CHL1  H26C 1772   6.463   4.489   4.268  0.9922 -0.9048  0.4788
   24CHL1   C27 1773   6.798   4.523   4.291 -0.6867 -0.7741 -0.6525
   24CHL1  H27A 1774   6.882   4.461   4.328 -2.6119 -3.2476 -0.2044
   24CHL1  H27B 1775   6.802   4.535   4.181 -2.6466 -1.8210 -0.8705
   24CHL1  H27C 1776   6.796   4.620   4.346  1.9724 -1.4523  0.8073
   25CHL1    C3 1777   0.885   1.756   5.957  0.1492  0.1997  0.7145
   25CHL1    H3 1778   0.970   1.688   5.979  0.3914  0.0248 -0.7174
   25CHL1    O3 1779   0.825   1.779   6.077 -0.0637 -0.1082  0.0936
   25CHL1   H3' 1780   0.744   1.824   6.052  0.2468  0.5580  0.2562
   25CHL1    C4 1781   0.930   1.890   5.895  0.2871 -0.1574  0.1998
   25CHL1   H4A 1782   0.846   1.962   5.888  0.4420  0.0290  0.2491
   25CHL1   H4B 1783   1.014   1.937   5.952  2.6401 -1.1928 -2.1738
   25CHL1    C5 1784   0.973   1.879   5.748  0.2649  0.3545 -0.5092
   25CHL1    C6 1785   1.097   1.932   5.719 -0.2181  0.0413  0.6829
   25CHL1    H6 1786   1.160   1.988   5.790 -0.1812  0.7966  0.0636
   25CHL1    C7 1787   1.155   1.934   5.582 -0.2188 -0.2522 -0.0651
   25CHL1   H7A 1788   1.203   2.032   5.563 -0.3273  0.6649  3.6604
   25CHL1   H7B 1789   1.238   1.860   5.579 -0.1408 -0.1440 -1.5421
   25CHL1    C8 1790   1.041   1.905   5.476 -1.1852 -0.0121  0.1465
   25CHL1    H8 1791   0.982   1.999   5.473 -1.7812 -0.2914  2.0034
   25CHL1   C14 1792   1.119   1.880   5.341  0.2605 -0.7756 -0.2590
   25CHL1   H14 1793   1.173   1.785   5.363 -1.1711 -1.1285  1.9827
   25CHL1   C15 1794   1.213   1.986   5.286  0.4052 -0.6388  0.2613
   25CHL1  H15A 1795   1.163   2.085   5.283 -1.2435 -1.4682 -1.0714
   25CHL1  H15B 1796   1.302   1.971   5.352  1.0484  0.0353 -0.4297
   25CHL1   C16 1797   1.240   1.948   5.138 -0.0219 -0.0636  0.2630
   25CHL1  H16A 1798   1.212   2.031   5.070  1.3702 -0.1369 -0.4407
   25CHL1  H16B 1799   1.342   1.905   5.124  0.0651  0.0456  0.5552
   25CHL1   C17 1800   1.131   1.841   5.104  0.1962 -0.3714 -0.0073
   25CHL1   H17 1801   1.193   1.750   5.114  1.8784  0.9794  3.6102
   25CHL1   C13 1802   1.036   1.848   5.222  0.8596  0.7234 -0.4642
   25CHL1   C18 1803   0.927   1.958   5.201  0.0812 -0.2529 -0.1892
   25CHL1  H18A 1804   0.971   2.056   5.175 -2.5052  0.9841 -0.2296
   25CHL1  H18B 1805   0.851   1.925   5.127 -1.1068  0.9716  0.4411
   25CHL1  H18C 1806   0.869   1.990   5.290  1.0685  1.5686 -0.1642
   25CHL1   C12 1807   0.965   1.709   5.257 -0.6035 -0.8061 -0.3190
   25CHL1  H12A 1808   0.888   1.677   5.184  1.3930 -1.5701 -2.1931
   25CHL1  H12B 1809   1.042   1.629   5.269  1.3054  1.0057 -0.0403
   25CHL1   C11 1810   0.882   1.723   5.393 -0.2649 -0.3807 -0.8012
   25CHL1  H11A 1811   0.798   1.790   5.362 -0.3568  0.6026  1.4200
   25CHL1  H11B 1812   0.839   1.629   5.433 -0.7163  0.5160  0.8916
   25CHL1    C9 1813   0.957   1.784   5.513  0.2251  0.3172  0.1299
   25CHL1    H9 1814   1.031   1.706   5.541  0.9472  0.7861 -0.4367
   25CHL1   C10 1815   0.871   1.810   5.647 -0.4456 -0.0039 -0.2484
   25CHL1   C19 1816   0.748   1.877   5.621  0.7138 -0.3068 -0.6109
   25CHL1  H19A 1817   0.768   1.964   5.555  1.6255 -0.1839 -0.1790
   25CHL1  H19B 1818   0.664   1.816   5.583 -0.2843  0.2593  0.6144
   25CHL1  H19C 1819   0.720   1.927   5.716 -1.7574 -0.4392 -1.2095
   25CHL1    C1 1820   0.840   1.674   5.725 -0.1339  0.4084  0.0718
   25CHL1   H1A 1821   0.778   1.609   5.660  2.0577 -2.0080  0.2201
   25CHL1   H1B 1822   0.935   1.618   5.741 -1.2666 -2.3217 -1.9939
   25CHL1    C2 1823   0.785   1.689   5.866  0.6412  0.4515 -0.1958
   25CHL1   H2A 1824   0.756   1.594   5.916  2.8541  0.7847  1.8794
   25CHL1   H2B 1825   0.683   1.733   5.853  0.0047 -1.2019 -1.1814
   25CHL1   C20 1826   1.072   1.828   4.960 -0.1066 -0.3041 -0.8607
   25CHL1   H20 1827   0.995   1.907   4.947  0.3827 -0.0303 -2.2350
   25CHL1   C21 1828   1.002   1.692   4.943  0.3909  0.2334  0.0842
   25CHL1  H21A 1829   1.059   1.618   5.002 -0.8218  0.3191  1.4097
   25CHL1  H21B 1830   0.995   1.674   4.833  1.6900  1.4645 -0.2259
   25CHL1  H21C 1831   0.898   1.709   4.979  0.5372 -1.0799  1.1882
   25CHL1   C22 1832   1.179   1.857   4.850  0.2191 -1.0586  0.2477
   25CHL1  H22A 1833   1.253   1.932   4.885  1.5629 -2.0931 -0.2886
   25CHL1  H22B 1834   1.226   1.761   4.820 -0.6105 -1.2382 -0.5083
   25CHL1   C23 1835   1.122   1.915   4.714 -0.3892 -0.5265  0.2373
   25CHL1  H23A 1836   1.042   1.861   4.659 -0.4994  2.1283 -2.4768
   25CHL1  H23B 1837   1.082   2.017   4.733  1.3136  0.3304 -0.5382
   25CHL1   C24 1838   1.224   1.938   4.595 -0.3522 -0.4252 -0.1376
   25CHL1  H24A 1839   1.309   1.998   4.633  1.4933 -2.3194 -1.0488
   25CHL1  H24B 1840   1.267   1.841   4.562  0.3592  0.3689 -1.6654
   25CHL1   C25 1841   1.173   2.001   4.463 -0.2217  0.3579 -0.6164
   25CHL1   H25 1842   1.137   2.104   4.483  1.8108  1.4242 -2.0659
   25CHL1   C26 1843   1.294   2.006   4.368 -0.2141 -0.2984  0.4186
   25CHL1  H26A 1844   1.272   2.054   4.270  2.4326 -0.5609 -0.3835
   25CHL1  H26B 1845   1.383   2.062   4.404  0.6069  0.1444 -2.0827
   25CHL1  H26C 1846   1.329   1.901   4.353 -1.7000 -0.9720  1.5019
   25CHL1   C27 1847   1.063   1.909   4.403 -0.0509 -0.3199 -0.1429
   25CHL1  H27A 1848   1.102   1.807   4.382 -2.7562 -1.1846 -1.4397
   25CHL1  H27B 1849   0.973   1.899   4.468  0.7467  0.3039  1.0910
   25CHL1  H27C 1850   1.033   1.946   4.303 -0.6044 -1.8286 -0.5502
   26CHL1    C3 1851   6.431   0.965   5.849  0.7696 -1.0681  0.1539
   26CHL1    H3 1852   6.538   0.961   5.820  1.8424 -1.1256  3.6256
   26CHL1    O3 1853   6.418   1.030   5.972  0.3227  0.0027 -0.1019
   26CHL1   H3' 1854   6.474   0.979   6.030  0.9407 -0.1625 -0.8295
   26CHL1    C4 1855   6.345   1.050   5.746 -0.1751  0.0313 -0.3348
   26CHL1   H4A 1856   6.238   1.066   5.773 -0.8879 -2.7317 -1.2473
   26CHL1   H4B 1857   6.397   1.148   5.753 -0.3546  0.3052 -2.2395
   26CHL1    C5 1858   6.342   0.996   5.606  0.7324  0.3120  0.2022
   26CHL1    C6 1859   6.386   1.061   5.501  1.1200 -0.2133 -0.2421
   26CHL1    H6 1860   6.434   1.160   5.508  0.6305  0.0193 -0.1176
   26CHL1    C7 1861   6.363   1.011   5.358 -0.4572  0.7223 -0.9052
   26CHL1   H7A 1862   6.313   1.094   5.304 -1.8023  1.5799  1.4554
   26CHL1   H7B 1863   6.459   0.991   5.306  0.5102 -0.2067  1.1168
   26CHL1    C8 1864   6.282   0.876   5.340 -0.3503 -0.8249  0.1451
   26CHL1    H8 1865   6.174   0.901   5.349  0.0316  0.2979  2.3423
   26CHL1   C14 1866   6.321   0.810   5.214  0.2442 -0.1448 -0.6444
   26CHL1   H14 1867   6.427   0.780   5.229  0.1546  0.5413  1.7419
   26CHL1   C15 1868   6.322   0.896   5.088  0.2016 -0.0304  0.4361
   26CHL1  H15A 1869   6.229   0.956   5.080  0.3159 -0.1093 -2.8080
   26CHL1  H15B 1870   6.414   0.959   5.085  0.1098  0.0726 -0.4405
   26CHL1   C16 1871   6.325   0.795   4.975 -0.2191 -0.2135 -0.4733
   26CHL1  H16A 1872   6.233   0.827   4.921 -3.4046 -1.0856  3.9003
   26CHL1  H16B 1873   6.419   0.799   4.916  1.5729 -2.9459  1.9164
   26CHL1   C17 1874   6.320   0.652   5.045  0.4938  0.5120 -0.5310
   26CHL1   H17 1875   6.425   0.618   5.052  0.8158  1.5526 -0.0890
   26CHL1   C13 1876   6.259   0.675   5.185 -0.1894 -0.7475 -0.5772
   26CHL1   C18 1877   6.101   0.688   5.164 -0.2750  0.0405  0.2771
   26CHL1  H18A 1878   6.065   0.583   5.157 -0.6929  0.2466 -0.6753
   26CHL1  H18B 1879   6.066   0.756   5.244 -1.2526  1.1557 -1.0564
   26CHL1  H18C 1880   6.087   0.738   5.066  0.1092 -0.1028  0.1446
   26CHL1   C12 1881   6.288   0.578   5.302 -0.3201 -0.1372  0.4994
   26CHL1  H12A 1882   6.237   0.482   5.277  0.9413  0.0221 -3.4153
   26CHL1  H12B 1883   6.393   0.543   5.314 -0.4307 -1.9798 -2.7009
   26CHL1   C11 1884   6.253   0.637   5.442  0.1109  0.0571 -0.2179
   26CHL1  H11A 1885   6.143   0.651   5.437  0.1928  0.8858  0.1738
   26CHL1  H11B 1886   6.283   0.573   5.528  1.2180 -0.3275 -0.8713
   26CHL1    C9 1887   6.314   0.781   5.458  0.3673  0.7454  0.2968
   26CHL1    H9 1888   6.424   0.766   5.450  0.1604 -0.5335 -0.3643
   26CHL1   C10 1889   6.289   0.845   5.598 -0.8528 -0.2905 -1.0148
   26CHL1   C19 1890   6.132   0.851   5.623 -0.4268 -0.1000 -0.0322
   26CHL1  H19A 1891   6.112   0.906   5.717  1.0549  2.3202 -1.0490
   26CHL1  H19B 1892   6.093   0.920   5.545 -1.1153  0.2118  0.5809
   26CHL1  H19C 1893   6.081   0.753   5.608  0.8119 -0.8011  0.1496
   26CHL1    C1 1894   6.368   0.762   5.708  0.1979  0.2548  0.5385
   26CHL1   H1A 1895   6.302   0.673   5.718 -0.7873  0.8178 -0.6990
   26CHL1   H1B 1896   6.473   0.758   5.671 -0.2208  2.7164 -1.0552
   26CHL1    C2 1897   6.375   0.826   5.852 -0.0880 -0.0213 -0.5529
   26CHL1   H2A 1898   6.451   0.763   5.902  0.3379 -0.8938 -2.2244
   26CHL1   H2B 1899   6.281   0.819   5.912  0.6230 -0.8325  0.5056
   26CHL1   C20 1900   6.256   0.548   4.956 -0.1731 -0.3440  0.5910
   26CHL1   H20 1901   6.152   0.572   4.925 -0.1932  0.0025  0.9178
   26CHL1   C21 1902   6.254   0.416   5.028  0.1389 -0.3730 -0.0452
   26CHL1  H21A 1903   6.350   0.394   5.079 -0.6649 -2.5368  0.6989
   26CHL1  H21B 1904   6.240   0.331   4.957 -0.5133 -2.1190  2.0374
   26CHL1  H21C 1905   6.180   0.405   5.110  0.1766  1.0727  0.1965
   26CHL1   C22 1906   6.336   0.535   4.818  0.0464 -0.3863  0.2667
   26CHL1  H22A 1907   6.393   0.624   4.785  0.4642 -1.1938 -1.2776
   26CHL1  H22B 1908   6.404   0.447   4.828 -0.4850 -0.9705 -0.9752
   26CHL1   C23 1909   6.259   0.487   4.695  0.2399 -0.4959  0.1167
   26CHL1  H23A 1910   6.337   0.458   4.622  1.9558  2.5697  0.5668
   26CHL1  H23B 1911   6.203   0.400   4.736 -1.8028 -0.6395 -2.6346
   26CHL1   C24 1912   6.168   0.592   4.622 -0.0139  0.0688  0.4044
   26CHL1  H24A 1913   6.105   0.530   4.555 -1.1051  1.9984 -0.4404
   26CHL1  H24B 1914   6.103   0.631   4.704 -1.7775  0.0049 -0.9105
   26CHL1   C25 1915   6.246   0.706   4.552 -0.5026  0.4314 -0.3733
   26CHL1   H25 1916   6.316   0.753   4.624  2.0225  0.1599 -2.5168
   26CHL1   C26 1917   6.330   0.643   4.441 -0.4800 -0.5094 -0.2504
   26CHL1  H26A 1918   6.268   0.580   4.375 -1.7628 -1.1242  1.4709
   26CHL1  H26B 1919   6.391   0.727   4.400  1.7270 -0.7790  2.1888
   26CHL1  H26C 1920   6.398   0.573   4.493 -1.7395 -0.7803  1.0973
   26CHL1   C27 1921   6.162   0.825   4.500  0.3166  0.5760  0.4241
   26CHL1  H27A 1922   6.130   0.881   4.590  1.1479 -0.9371  1.7128
   26CHL1  H27B 1923   6.217   0.883   4.424  1.6114 -2.1792 -0.9060
   26CHL1  H27C 1924   6.074   0.789   4.443 -0.4056  1.0588  1.2165
   27CHL1    C3 1925   0.892   1.202   5.882  0.1010 -0.0167 -0.3880
   27CHL1    H3 1926   0.838   1.108   5.857 -2.3373  1.1407  0.1544
   27CHL1    O3 1927   0.859   1.231   6.021  0.3215 -0.6156  0.1319
   27CHL1   H3' 1928   0.909   1.310   6.041  1.7487 -1.5375  0.3627
   27CHL1    C4 1929   1.048   1.200   5.871 -0.3660  0.3086 -1.0104
   27CHL1   H4A 1930   1.092   1.294   5.911 -1.2722 -0.0178  0.8820
   27CHL1   H4B 1931   1.083   1.123   5.944 -0.4881  1.2997  0.1349
   27CHL1    C5 1932   1.081   1.159   5.733  0.4866  0.0726  0.1372
   27CHL1    C6 1933   1.155   1.050   5.705  0.1942 -0.2877  0.0875
   27CHL1    H6 1934   1.187   0.983   5.786  0.2571 -0.3466  0.0129
   27CHL1    C7 1935   1.207   1.012   5.569  1.0501  0.0483 -0.5541
   27CHL1   H7A 1936   1.312   0.977   5.577  1.0994 -0.1121 -1.8237
   27CHL1   H7B 1937   1.148   0.926   5.532  0.6772  0.6427 -1.3589
   27CHL1    C8 1938   1.194   1.127   5.468 -0.6243  1.0128 -0.3403
   27CHL1    H8 1939   1.263   1.207   5.501  0.4249  0.1536 -0.4136
   27CHL1   C14 1940   1.216   1.075   5.322 -0.0064  0.5037  0.0732
   27CHL1   H14 1941   1.133   1.002   5.309 -0.0422  0.1632  1.9265
   27CHL1   C15 1942   1.342   0.998   5.299 -0.2207  0.2052  0.3093
   27CHL1  H15A 1943   1.425   1.063   5.335 -1.5654  3.2186 -1.6249
   27CHL1  H15B 1944   1.341   0.900   5.351 -1.0618  0.1503  0.1996
   27CHL1   C16 1945   1.348   0.982   5.144  0.6912  0.3630  0.2765
   27CHL1  H16A 1946   1.448   0.986   5.095  1.1314  0.2792  1.1573
   27CHL1  H16B 1947   1.311   0.879   5.124  2.9246 -0.3459 -0.4714
   27CHL1   C17 1948   1.247   1.091   5.086  0.2078 -0.0069  0.3719
   27CHL1   H17 1949   1.157   1.029   5.071  0.1570  0.1207  0.1475
   27CHL1   C13 1950   1.208   1.180   5.209  0.4201 -0.6140  0.4235
   27CHL1   C18 1951   1.319   1.288   5.224 -0.7029 -0.8517  0.2426
   27CHL1  H18A 1952   1.418   1.242   5.204  0.7368  1.5182  1.5171
   27CHL1  H18B 1953   1.304   1.372   5.153  1.5092  0.5479  1.3212
   27CHL1  H18C 1954   1.313   1.324   5.329 -2.0002  3.4741 -1.1180
   27CHL1   C12 1955   1.070   1.241   5.224  0.1533  0.7132  0.6225
   27CHL1  H12A 1956   1.066   1.335   5.165 -1.7337  0.0411 -0.4097
   27CHL1  H12B 1957   0.984   1.181   5.189  0.4111  0.3494  0.6024
   27CHL1   C11 1958   1.027   1.285   5.361  0.2384 -0.5440 -0.3926
   27CHL1  H11A 1959   1.076   1.384   5.373  0.1760 -0.6703  1.0845
   27CHL1  H11B 1960   0.918   1.306   5.359 -0.2037 -2.5418  0.1320
   27CHL1    C9 1961   1.055   1.192   5.481 -0.3353  0.3383  0.0743
   27CHL1    H9 1962   0.978   1.113   5.470  0.7312 -0.9719  1.4806
   27CHL1   C10 1963   1.025   1.253   5.621 -0.0327 -0.1622 -0.6694
   27CHL1   C19 1964   1.094   1.389   5.632 -0.3385 -0.2392  0.3200
   27CHL1  H19A 1965   1.188   1.387   5.573 -1.0323 -2.0713 -0.8200
   27CHL1  H19B 1966   1.034   1.470   5.586  0.7088  0.1436 -0.4167
   27CHL1  H19C 1967   1.127   1.410   5.736  0.5010 -0.5481  0.1319
   27CHL1    C1 1968   0.875   1.266   5.649  0.3226 -0.4781  0.1875
   27CHL1   H1A 1969   0.831   1.339   5.578  1.4055  1.1461  1.1251
   27CHL1   H1B 1970   0.832   1.166   5.630  0.2408 -0.3159 -0.5170
   27CHL1    C2 1971   0.841   1.302   5.794  0.4017 -0.4003 -0.0697
   27CHL1   H2A 1972   0.730   1.310   5.793  0.2861 -0.1876  3.3736
   27CHL1   H2B 1973   0.883   1.399   5.827  0.0572 -0.2507 -0.0656
   27CHL1   C20 1974   1.299   1.152   4.951  0.0311 -0.3722 -0.2438
   27CHL1   H20 1975   1.389   1.203   4.992 -0.5015  0.6920 -0.3666
   27CHL1   C21 1976   1.188   1.252   4.897  0.1544 -0.2697  0.0155
   27CHL1  H21A 1977   1.184   1.280   4.790 -3.8298  3.3832  0.8786
   27CHL1  H21B 1978   1.174   1.342   4.960  0.7328  1.6345 -2.3940
   27CHL1  H21C 1979   1.093   1.197   4.916  0.4558 -0.6131  0.5551
   27CHL1   C22 1980   1.356   1.063   4.842 -0.5362 -0.4990  0.1701
   27CHL1  H22A 1981   1.372   1.131   4.756  2.4969 -1.5976 -0.2411
   27CHL1  H22B 1982   1.450   1.005   4.854 -0.9920 -1.7230 -1.7141
   27CHL1   C23 1983   1.247   0.967   4.791  0.1697 -0.8571  0.2604
   27CHL1  H23A 1984   1.235   0.886   4.867 -0.0696 -1.5019 -0.4464
   27CHL1  H23B 1985   1.150   1.020   4.778  1.6950  1.7574 -1.1667
   27CHL1   C24 1986   1.282   0.900   4.657 -0.0955  0.6145  0.5324
   27CHL1  H24A 1987   1.380   0.849   4.667  0.8983  1.5330 -2.9677
   27CHL1  H24B 1988   1.201   0.828   4.633  1.6083 -0.9400 -0.8826
   27CHL1   C25 1989   1.313   0.996   4.538  0.6893 -0.9697  0.5079
   27CHL1   H25 1990   1.399   1.056   4.574  0.6987 -1.7189  1.8135
   27CHL1   C26 1991   1.360   0.927   4.411 -0.3507  0.2599 -0.3898
   27CHL1  H26A 1992   1.387   0.996   4.328  0.4475 -0.7329 -0.9815
   27CHL1  H26B 1993   1.450   0.863   4.426 -0.2077  0.1423 -1.6419
   27CHL1  H26C 1994   1.276   0.861   4.379 -0.3890 -0.2687  0.7660
   27CHL1   C27 1995   1.183   1.083   4.506 -0.3875 -0.0435 -0.3120
   27CHL1  H27A 1996   1.202   1.137   4.411  0.4295 -3.0209 -1.9437
   27CHL1  H27B 1997   1.087   1.029   4.495  0.2207 -0.8533 -1.8912
   27CHL1  H27C 1998   1.167   1.158   4.587 -2.9095  1.0558 -1.7186
   28CHL1    C3 1999   1.405   0.225   5.831  0.0842  0.0670  0.4808
   28CHL1    H3 2000   1.438   0.326   5.798  0.7927 -0.2919  0.0648
   28CHL1    O3 2001   1.438   0.204   5.966 -1.2275 -0.0367  0.0412
   28CHL1   H3' 2002   1.432   0.110   5.983 -2.9428  0.3695  2.1694
   28CHL1    C4 2003   1.251   0.237   5.819  0.1957  0.0140 -0.2710
   28CHL1   H4A 2004   1.207   0.143   5.857  1.2717 -0.4330 -0.1114
   28CHL1   H4B 2005   1.212   0.324   5.877 -0.0696  0.8751 -1.6823
   28CHL1    C5 2006   1.212   0.247   5.672 -0.0532 -0.8195 -0.1138
   28CHL1    C6 2007   1.143   0.356   5.635 -0.5987 -0.5181  0.9570
   28CHL1    H6 2008   1.127   0.433   5.712  4.2427  0.3734  1.3701
   28CHL1    C7 2009   1.088   0.377   5.500  0.5131  0.1453  0.5048
   28CHL1   H7A 2010   0.988   0.424   5.507  0.9028  1.4302 -1.6010
   28CHL1   H7B 2011   1.156   0.455   5.459  0.9259 -0.1674  0.5884
   28CHL1    C8 2012   1.099   0.242   5.421  0.0386 -0.1613  0.5520
   28CHL1    H8 2013   1.010   0.180   5.446 -0.8105  0.3976 -0.9327
   28CHL1   C14 2014   1.079   0.278   5.267 -0.6542  0.2983  0.1013
   28CHL1   H14 2015   1.172   0.329   5.236 -0.4476 -0.7952 -1.1599
   28CHL1   C15 2016   0.965   0.380   5.231  0.1822  0.0565 -0.0010
   28CHL1  H15A 2017   0.877   0.354   5.294 -0.8897  0.7212 -1.1868
   28CHL1  H15B 2018   0.996   0.484   5.255 -1.1674  0.5602 -0.3398
   28CHL1   C16 2019   0.940   0.362   5.088 -0.6221  0.4221  0.3888
   28CHL1  H16A 2020   0.831   0.341   5.077 -0.5711  0.5835 -0.5022
   28CHL1  H16B 2021   0.967   0.445   5.019 -1.0268  0.0342 -0.2528
   28CHL1   C17 2022   1.026   0.237   5.047  0.3341 -0.0492 -0.0759
   28CHL1   H17 2023   1.121   0.287   5.016 -0.8376  0.6244 -2.8880
   28CHL1   C13 2024   1.057   0.159   5.182  1.0257 -0.3446  0.2418
   28CHL1   C18 2025   0.937   0.071   5.230  0.1914 -0.8190 -0.2514
   28CHL1  H18A 2026   0.912  -0.002   5.150 -0.5231  1.4821 -2.2615
   28CHL1  H18B 2027   0.963   0.022   5.326  0.1027  0.0213  0.2071
   28CHL1  H18C 2028   0.855   0.141   5.258  1.3143 -0.2201  1.7240
   28CHL1   C12 2029   1.187   0.079   5.192  0.1072  0.0489  0.9890
   28CHL1  H12A 2030   1.186  -0.011   5.126  0.6229  0.2694  0.6674
   28CHL1  H12B 2031   1.268   0.143   5.150 -1.0249  2.6324  2.5320
   28CHL1   C11 2032   1.230   0.040   5.333 -0.2160  0.1019 -0.6863
   28CHL1  H11A 2033   1.162  -0.038   5.373  1.4842 -1.6684 -1.0492
   28CHL1  H11B 2034   1.330  -0.007   5.322 -1.0653 -1.5405 -1.8036
   28CHL1    C9 2035   1.230   0.162   5.437 -0.5721  0.1934  0.2626
   28CHL1    H9 2036   1.309   0.234   5.408 -0.2523  0.0053  0.6519
   28CHL1   C10 2037   1.259   0.126   5.582  0.7864  0.1800 -0.1069
   28CHL1   C19 2038   1.173  -0.004   5.617  0.1269 -0.6060 -0.2873
   28CHL1  H19A 2039   1.063   0.010   5.609 -0.0757 -0.4473  2.0068
   28CHL1  H19B 2040   1.200  -0.096   5.561  0.0560 -0.1744 -1.0422
   28CHL1  H19C 2041   1.198  -0.030   5.722  0.3507 -0.7409 -0.3737
   28CHL1    C1 2042   1.410   0.118   5.600  0.2990  0.3219 -0.2277
   28CHL1   H1A 2043   1.447   0.024   5.553  0.3491  0.1895  0.0724
   28CHL1   H1B 2044   1.464   0.205   5.557 -0.2935  0.2563 -1.1196
   28CHL1    C2 2045   1.467   0.112   5.749  0.8284 -0.3049  0.1462
   28CHL1   H2A 2046   1.576   0.133   5.755  0.9488 -0.7209 -0.5847
   28CHL1   H2B 2047   1.456   0.010   5.791  0.9939 -1.4577 -2.4556
   28CHL1   C20 2048   0.970   0.172   4.920 -0.2145  0.2107 -0.1261
   28CHL1   H20 2049   0.866   0.138   4.943 -0.2973  0.4660 -0.1262
   28CHL1   C21 2050   1.054   0.047   4.889 -0.6829  0.6638  0.1667
   28CHL1  H21A 2051   1.049  -0.031   4.968  3.5467 -1.0140 -0.9251
   28CHL1  H21B 2052   1.161   0.074   4.874  0.3986 -2.6612  0.9741
   28CHL1  H21C 2053   1.016   0.008   4.792 -0.8306 -1.1184  0.8864
   28CHL1   C22 2054   0.961   0.268   4.797 -0.3214 -0.1228  0.3470
   28CHL1  H22A 2055   0.922   0.366   4.834  0.1328  0.2185 -0.0669
   28CHL1  H22B 2056   1.063   0.287   4.760 -0.6486 -1.3011 -1.2317
   28CHL1   C23 2057   0.875   0.219   4.680  0.3836  0.1301  0.0464
   28CHL1  H23A 2058   0.894   0.111   4.664 -2.2975 -0.3342 -0.6068
   28CHL1  H23B 2059   0.770   0.227   4.716 -0.0168 -1.7051 -0.5845
   28CHL1   C24 2060   0.887   0.297   4.550  0.5157 -0.0971  0.5112
   28CHL1  H24A 2061   0.875   0.406   4.567  0.0366  0.0555 -0.6772
   28CHL1  H24B 2062   0.985   0.267   4.507  1.0651  0.6141  1.2566
   28CHL1   C25 2063   0.786   0.261   4.440 -0.3887  0.1389 -0.6625
   28CHL1   H25 2064   0.689   0.256   4.493  0.2286  0.3965  0.5357
   28CHL1   C26 2065   0.783   0.361   4.330  0.0675  0.6737 -0.2560
   28CHL1  H26A 2066   0.740   0.455   4.371  0.4737 -0.0649  1.9733
   28CHL1  H26B 2067   0.877   0.385   4.274  0.1252 -3.0335 -2.0582
   28CHL1  H26C 2068   0.705   0.342   4.253 -0.5075 -0.5296  0.5840
   28CHL1   C27 2069   0.809   0.124   4.389 -0.1866  0.2595 -0.4815
   28CHL1  H27A 2070   0.915   0.120   4.356  0.0860  0.4243  0.3588
   28CHL1  H27B 2071   0.796   0.053   4.474  0.1259  1.1330  0.3088
   28CHL1  H27C 2072   0.755   0.116   4.292 -1.3701  2.3356 -0.0514
   29CHL1    C3 2073   2.683   4.227   2.681 -0.1449 -0.3218  0.1458
   29CHL1    H3 2074   2.717   4.307   2.751  0.8386 -0.2873 -0.3556
   29CHL1    O3 2075   2.696   4.266   2.547 -0.6026  0.4287  0.8463
   29CHL1   H3' 2076   2.698   4.184   2.498 -0.9724  1.7726 -1.5664
   29CHL1    C4 2077   2.749   4.097   2.716 -0.8409 -0.9288 -0.1662
   29CHL1   H4A 2078   2.721   4.008   2.657  1.8427 -2.4191  0.6413
   29CHL1   H4B 2079   2.858   4.106   2.698 -0.2000  1.8204  3.8231
   29CHL1    C5 2080   2.733   4.066   2.865 -0.4800  0.1415  0.1090
   29CHL1    C6 2081   2.832   4.054   2.952  0.4848  0.1841  0.4814
   29CHL1    H6 2082   2.934   4.051   2.912  0.4329  0.0923  0.3564
   29CHL1    C7 2083   2.820   4.004   3.095  0.5972 -0.1681  0.2547
   29CHL1   H7A 2084   2.877   3.909   3.095  1.3438  0.2730  0.2928
   29CHL1   H7B 2085   2.860   4.082   3.163  0.2773  0.8367 -0.6759
   29CHL1    C8 2086   2.681   3.957   3.137  0.4296 -0.6454  0.6771
   29CHL1    H8 2087   2.656   3.858   3.095 -1.3265 -1.1835  2.7586
   29CHL1   C14 2088   2.659   3.965   3.288 -0.7050 -0.0555 -1.1775
   29CHL1   H14 2089   2.670   4.075   3.300 -1.4301 -0.0303 -0.6722
   29CHL1   C15 2090   2.754   3.900   3.388  0.5384  0.1372 -0.6720
   29CHL1  H15A 2091   2.748   3.790   3.374 -1.1270  0.1375 -0.0521
   29CHL1  H15B 2092   2.859   3.935   3.373  1.1418 -2.3978 -3.4407
   29CHL1   C16 2093   2.694   3.940   3.520 -0.2017  0.6195  0.0144
   29CHL1  H16A 2094   2.718   3.889   3.616  2.9436  0.9501 -0.5039
   29CHL1  H16B 2095   2.737   4.040   3.540  0.6927  0.6334 -1.7806
   29CHL1   C17 2096   2.539   3.965   3.494 -0.0667  0.1131 -0.1215
   29CHL1   H17 2097   2.530   4.073   3.518  1.7107 -0.2378  2.5414
   29CHL1   C13 2098   2.520   3.938   3.343 -0.5198 -0.2458 -0.5167
   29CHL1   C18 2099   2.483   3.789   3.323  0.2518  0.7013  0.2110
   29CHL1  H18A 2100   2.502   3.766   3.215  0.5199  1.6945  0.0352
   29CHL1  H18B 2101   2.552   3.733   3.390  0.1313  1.3398  0.8748
   29CHL1  H18C 2102   2.374   3.782   3.336  0.1504 -0.1159 -0.8894
   29CHL1   C12 2103   2.430   4.036   3.270 -0.1258  0.0773  0.1913
   29CHL1  H12A 2104   2.326   4.012   3.301 -1.2693  0.6723 -2.8285
   29CHL1  H12B 2105   2.455   4.140   3.299  0.3279  0.8218 -2.5695
   29CHL1   C11 2106   2.433   4.030   3.120  0.3851  0.3030  0.5949
   29CHL1  H11A 2107   2.382   3.936   3.091  4.3383 -1.2198 -2.5497
   29CHL1  H11B 2108   2.366   4.112   3.087 -2.0447 -1.1421  1.7204
   29CHL1    C9 2109   2.571   4.053   3.067 -0.5730  0.1929 -0.6331
   29CHL1    H9 2110   2.606   4.149   3.111  2.7247 -0.9404 -0.5368
   29CHL1   C10 2111   2.585   4.066   2.909 -0.0784 -0.2651  0.1039
   29CHL1   C19 2112   2.507   3.947   2.849 -0.2499  0.2357  0.5241
   29CHL1  H19A 2113   2.505   3.951   2.738  0.2852  2.9497  0.5523
   29CHL1  H19B 2114   2.557   3.858   2.893  0.8497 -0.0867 -1.2513
   29CHL1  H19C 2115   2.402   3.952   2.885 -0.5680 -1.5175 -0.0720
   29CHL1    C1 2116   2.516   4.201   2.858 -0.5998  0.8518 -0.1735
   29CHL1   H1A 2117   2.407   4.192   2.878 -0.4697 -2.7020 -0.4344
   29CHL1   H1B 2118   2.556   4.290   2.912 -0.9578 -0.0491  1.6396
   29CHL1    C2 2119   2.530   4.214   2.705 -0.2247 -0.6653 -0.5245
   29CHL1   H2A 2120   2.485   4.313   2.681 -1.0073 -1.0023 -0.4731
   29CHL1   H2B 2121   2.485   4.133   2.644  2.7876 -0.8817 -2.6976
   29CHL1   C20 2122   2.439   3.898   3.591  0.4778  0.5884  0.5977
   29CHL1   H20 2123   2.439   3.789   3.567 -0.6919  0.8571 -0.7912
   29CHL1   C21 2124   2.301   3.955   3.576  0.6142  0.3994 -0.5370
   29CHL1  H21A 2125   2.254   3.923   3.481 -2.2006 -1.9224  1.4662
   29CHL1  H21B 2126   2.308   4.066   3.587 -0.9621  0.6219 -1.5912
   29CHL1  H21C 2127   2.238   3.916   3.659  2.1031 -3.2620 -0.9513
   29CHL1   C22 2128   2.485   3.908   3.739  0.6148  0.6797  0.1388
   29CHL1  H22A 2129   2.406   3.866   3.805  1.2695  0.0176  0.5152
   29CHL1  H22B 2130   2.571   3.838   3.733 -0.3066 -0.4016 -0.9733
   29CHL1   C23 2131   2.524   4.043   3.798 -0.3997  0.5116 -0.0647
   29CHL1  H23A 2132   2.582   4.119   3.740  0.5575 -1.5391 -1.9556
   29CHL1  H23B 2133   2.429   4.092   3.828 -1.0712 -2.0926  2.4563
   29CHL1   C24 2134   2.598   4.018   3.937  0.0702  0.3259  0.1093
   29CHL1  H24A 2135   2.690   3.958   3.917 -0.7945 -0.0182 -3.5642
   29CHL1  H24B 2136   2.629   4.116   3.977  1.0381 -0.1755  0.6398
   29CHL1   C25 2137   2.522   3.946   4.055 -0.3025  0.4686  0.1948
   29CHL1   H25 2138   2.473   3.860   4.005 -0.7377 -0.1055  1.5396
   29CHL1   C26 2139   2.614   3.913   4.166 -0.3597 -0.7718  0.5866
   29CHL1  H26A 2140   2.579   3.876   4.265  1.4287 -0.2817  1.4433
   29CHL1  H26B 2141   2.695   3.843   4.139 -0.8064 -1.0256 -0.1082
   29CHL1  H26C 2142   2.666   4.006   4.197 -1.1732  0.3108 -1.1031
   29CHL1   C27 2143   2.410   4.038   4.101 -0.2776  0.0540 -1.3893
   29CHL1  H27A 2144   2.385   4.005   4.204  3.5887 -1.0086 -0.6384
   29CHL1  H27B 2145   2.443   4.144   4.112 -1.1247  0.1718  0.4375
   29CHL1  H27C 2146   2.311   4.037   4.050 -0.3296 -1.3083 -1.3011
   30CHL1    C3 2147   2.013   2.876   2.460  0.5815  0.2142  0.0701
   30CHL1    H3 2148   2.010   2.766   2.480 -2.1887  0.1992 -0.1271
   30CHL1    O3 2149   1.998   2.902   2.318 -0.8592  0.0537 -0.0654
   30CHL1   H3' 2150   1.980   2.996   2.312 -3.3130 -0.2795  0.9035
   30CHL1    C4 2151   1.900   2.948   2.529 -0.7007  0.3215  0.0139
   30CHL1   H4A 2152   1.907   3.057   2.508 -3.3538  0.7978  1.1689
   30CHL1   H4B 2153   1.804   2.908   2.491 -0.2148 -0.8653  0.0153
   30CHL1    C5 2154   1.914   2.936   2.681  0.8203  0.4090 -0.0315
   30CHL1    C6 2155   1.813   2.896   2.754  1.1533 -0.1941  0.3767
   30CHL1    H6 2156   1.720   2.865   2.704 -0.1971  0.1327  2.5180
   30CHL1    C7 2157   1.813   2.898   2.913 -1.0850  0.5373  0.6589
   30CHL1   H7A 2158   1.724   2.949   2.956  0.3114  1.6001  2.3933
   30CHL1   H7B 2159   1.798   2.794   2.949 -0.0382 -0.0168 -0.4082
   30CHL1    C8 2160   1.938   2.966   2.973 -0.8412  0.0026  0.0920
   30CHL1    H8 2161   1.927   3.077   2.981 -0.3815 -0.0074  0.9235
   30CHL1   C14 2162   1.956   2.916   3.122  0.2489 -0.5844  0.5456
   30CHL1   H14 2163   1.970   2.806   3.117 -0.2477 -0.6183 -0.1012
   30CHL1   C15 2164   1.840   2.933   3.225 -0.9431  0.3791 -0.8166
   30CHL1  H15A 2165   1.800   3.037   3.216  1.9039  1.8453  1.5051
   30CHL1  H15B 2166   1.760   2.861   3.199 -0.3585 -0.7157  0.3491
   30CHL1   C16 2167   1.915   2.902   3.357 -0.4401  0.0901 -0.2436
   30CHL1  H16A 2168   1.891   2.984   3.429 -1.5068  0.2343 -0.7496
   30CHL1  H16B 2169   1.867   2.817   3.409 -0.2636 -1.6271 -2.7476
   30CHL1   C17 2170   2.065   2.895   3.325 -0.4702  0.6421  0.2230
   30CHL1   H17 2171   2.088   2.789   3.305 -1.3435  0.6420 -0.8869
   30CHL1   C13 2172   2.079   2.972   3.193  0.1160  0.8552 -0.5838
   30CHL1   C18 2173   2.068   3.118   3.227 -0.1535  0.1882 -0.5172
   30CHL1  H18A 2174   2.158   3.158   3.279  1.3815 -1.5980 -1.6742
   30CHL1  H18B 2175   2.065   3.168   3.128 -2.0367  1.8185  0.2945
   30CHL1  H18C 2176   1.976   3.162   3.271 -1.1835 -2.9103  0.7914
   30CHL1   C12 2177   2.205   2.957   3.115  0.3062 -0.1748  0.3832
   30CHL1  H12A 2178   2.285   3.017   3.163  0.0233  0.0650  0.5547
   30CHL1  H12B 2179   2.224   2.847   3.110 -0.6834 -0.3239 -0.5263
   30CHL1   C11 2180   2.189   2.994   2.961 -0.6334 -0.8253  0.0554
   30CHL1  H11A 2181   2.183   3.105   2.964  1.0132 -0.6315 -1.7798
   30CHL1  H11B 2182   2.280   2.964   2.905 -1.1328 -3.2015  0.4043
   30CHL1    C9 2183   2.065   2.931   2.896 -0.2392 -0.0964  0.7546
   30CHL1    H9 2184   2.078   2.822   2.908  0.9193 -0.2001 -1.0291
   30CHL1   C10 2185   2.048   2.973   2.745  0.0924 -0.8875 -0.1864
   30CHL1   C19 2186   2.054   3.130   2.738  0.4368  0.5429 -0.1865
   30CHL1  H19A 2187   2.007   3.181   2.825  1.3037 -1.1364  1.3343
   30CHL1  H19B 2188   2.158   3.170   2.747 -0.2620  1.9378  2.9493
   30CHL1  H19C 2189   2.024   3.174   2.640  0.5593 -1.9478 -1.4272
   30CHL1    C1 2190   2.163   2.904   2.663 -0.2221 -0.1118  0.4068
   30CHL1   H1A 2191   2.264   2.944   2.684  0.5223 -2.0598  0.7824
   30CHL1   H1B 2192   2.162   2.798   2.697 -2.7895 -0.3898 -0.3286
   30CHL1    C2 2193   2.159   2.921   2.510  0.2267 -0.7138  0.5265
   30CHL1   H2A 2194   2.236   2.866   2.451 -0.2540 -1.1575  0.3071
   30CHL1   H2B 2195   2.170   3.030   2.490  2.1468 -1.2297 -1.6938
   30CHL1   C20 2196   2.167   2.947   3.429 -0.0314 -0.9903 -0.4003
   30CHL1   H20 2197   2.245   3.010   3.381  0.8646 -0.5397  1.5390
   30CHL1   C21 2198   2.242   2.829   3.488  0.0341 -0.0652 -0.0351
   30CHL1  H21A 2199   2.169   2.761   3.537  1.3144 -1.1997  0.3515
   30CHL1  H21B 2200   2.331   2.854   3.548  0.7829 -3.7575  0.6383
   30CHL1  H21C 2201   2.298   2.767   3.415  0.1862 -0.7141  0.6202
   30CHL1   C22 2202   2.103   3.027   3.548 -0.2827  0.2880 -0.2126
   30CHL1  H22A 2203   2.065   3.124   3.511 -2.0213 -0.4077 -0.3411
   30CHL1  H22B 2204   2.032   2.954   3.591  1.4001 -0.3362  1.6724
   30CHL1   C23 2205   2.206   3.058   3.657  0.1725 -0.4070 -0.2944
   30CHL1  H23A 2206   2.251   2.967   3.703  1.3524  0.9351  1.3240
   30CHL1  H23B 2207   2.292   3.113   3.612  1.1519 -2.4250 -1.0674
   30CHL1   C24 2208   2.150   3.142   3.781  0.0417  0.6728  1.1377
   30CHL1  H24A 2209   2.085   3.220   3.736 -1.7707 -0.2982  1.9697
   30CHL1  H24B 2210   2.082   3.076   3.838 -1.6716  1.7200  0.4095
   30CHL1   C25 2211   2.252   3.206   3.871  0.0771 -0.0549 -1.0643
   30CHL1   H25 2212   2.323   3.266   3.810 -0.4878  0.3562 -1.3278
   30CHL1   C26 2213   2.193   3.310   3.969  0.4903 -0.1369 -0.1709
   30CHL1  H26A 2214   2.115   3.256   4.026 -0.1986  0.7009 -0.2936
   30CHL1  H26B 2215   2.272   3.353   4.036 -2.2927  1.4413  2.3666
   30CHL1  H26C 2216   2.144   3.396   3.918 -1.8907 -1.0238  0.4953
   30CHL1   C27 2217   2.314   3.096   3.954  0.2119  0.3970 -0.0158
   30CHL1  H27A 2218   2.238   3.044   4.016  0.2871  0.6204  0.2642
   30CHL1  H27B 2219   2.357   3.020   3.885  0.6854 -0.8559  1.5993
   30CHL1  H27C 2220   2.398   3.137   4.014  1.9498 -0.9437 -1.4452
   31CHL1    C3 2221   2.579   4.594   2.577 -0.4646 -0.3548 -0.5263
   31CHL1    H3 2222   2.563   4.515   2.653  2.6075  0.2956  0.9812
   31CHL1    O3 2223   2.550   4.531   2.455  0.3249 -0.5877  0.3702
   31CHL1   H3' 2224   2.495   4.453   2.466 -1.2397 -0.0031 -2.4154
   31CHL1    C4 2225   2.487   4.713   2.602 -1.1059  0.8129 -0.5092
   31CHL1   H4A 2226   2.496   4.784   2.517  0.9445 -1.1818 -2.0534
   31CHL1   H4B 2227   2.386   4.667   2.597 -0.6616 -0.0797 -1.7082
   31CHL1    C5 2228   2.516   4.763   2.746 -0.3044 -0.5066  0.3066
   31CHL1    C6 2229   2.420   4.774   2.844  0.2819  0.6493 -0.2451
   31CHL1    H6 2230   2.315   4.756   2.819  0.2803  0.8563 -0.3921
   31CHL1    C7 2231   2.447   4.829   2.975  0.0288  0.1285 -0.3423
   31CHL1   H7A 2232   2.369   4.904   2.999 -0.0548  0.4623 -1.5777
   31CHL1   H7B 2233   2.449   4.742   3.044 -1.6106  0.4597  0.1803
   31CHL1    C8 2234   2.573   4.912   2.986 -0.3946 -0.7179  0.1066
   31CHL1    H8 2235   2.571   5.007   2.928  1.0958 -0.8227 -0.1699
   31CHL1   C14 2236   2.601   4.953   3.130 -0.5144  0.1693  0.6199
   31CHL1   H14 2237   2.607   4.862   3.193 -3.3492  1.7193  3.4281
   31CHL1   C15 2238   2.505   5.035   3.211 -0.0893  0.8819 -0.1295
   31CHL1  H15A 2239   2.467   5.112   3.140 -1.6367 -0.5480 -0.9202
   31CHL1  H15B 2240   2.424   4.970   3.249  0.0299  0.1302 -1.1205
   31CHL1   C16 2241   2.586   5.082   3.331  0.1257  0.5359 -0.5415
   31CHL1  H16A 2242   2.596   5.192   3.327  0.4388  0.5425  0.3127
   31CHL1  H16B 2243   2.548   5.052   3.431  0.3353 -2.5734 -1.2745
   31CHL1   C17 2244   2.736   5.041   3.306  0.0949  0.4016 -0.1936
   31CHL1   H17 2245   2.751   4.942   3.354  2.1515  0.8394  0.1514
   31CHL1   C13 2246   2.742   5.020   3.158  0.5468 -0.6502 -0.3453
   31CHL1   C18 2247   2.765   5.150   3.076  0.3738  0.4430 -0.4248
   31CHL1  H18A 2248   2.727   5.136   2.972 -0.0025  1.7906 -0.4963
   31CHL1  H18B 2249   2.701   5.230   3.120  1.1421  2.1871 -2.2705
   31CHL1  H18C 2250   2.869   5.187   3.063  1.1115 -0.4058  2.4349
   31CHL1   C12 2251   2.837   4.917   3.110  0.4502 -0.2273 -0.0006
   31CHL1  H12A 2252   2.937   4.954   3.139  0.2834 -0.9619  1.6522
   31CHL1  H12B 2253   2.818   4.819   3.159  0.4162 -0.1072  0.2223
   31CHL1   C11 2254   2.828   4.886   2.962  0.6871 -0.8473  0.9535
   31CHL1  H11A 2255   2.849   4.975   2.898 -0.3871 -0.6574  0.8359
   31CHL1  H11B 2256   2.905   4.810   2.937  2.3637  0.6679  1.3733
   31CHL1    C9 2257   2.688   4.829   2.921 -0.1885 -0.1044  0.3500
   31CHL1    H9 2258   2.686   4.736   2.983  0.6005  0.0351  0.6018
   31CHL1   C10 2259   2.664   4.799   2.769  0.1159  0.3549  0.2573
   31CHL1   C19 2260   2.672   4.930   2.690  0.2418  0.2939 -0.3846
   31CHL1  H19A 2261   2.655   4.915   2.581  2.5179  2.0242 -1.0393
   31CHL1  H19B 2262   2.613   5.010   2.740  0.5779  0.1483  0.2683
   31CHL1  H19C 2263   2.769   4.983   2.685 -0.3530  1.3335 -1.1605
   31CHL1    C1 2264   2.761   4.687   2.725  0.1910  0.4300 -0.2125
   31CHL1   H1A 2265   2.865   4.723   2.735 -0.5748  2.3466  1.6719
   31CHL1   H1B 2266   2.745   4.594   2.784 -0.0837  0.8209  0.3359
   31CHL1    C2 2267   2.735   4.632   2.584  0.3166  0.1832  0.7095
   31CHL1   H2A 2268   2.807   4.550   2.567  3.6305  3.0861 -0.6352
   31CHL1   H2B 2269   2.762   4.696   2.497  0.3656  0.9106  1.2459
   31CHL1   C20 2270   2.837   5.137   3.377 -0.7724 -0.3587 -0.3985
   31CHL1   H20 2271   2.843   5.235   3.325 -0.8122  0.3419  0.8784
   31CHL1   C21 2272   2.970   5.068   3.390 -0.1049 -0.0998 -0.5123
   31CHL1  H21A 2273   3.039   5.132   3.448  0.1644  1.6384 -2.6136
   31CHL1  H21B 2274   3.024   5.065   3.293 -0.6709  0.5911 -0.8614
   31CHL1  H21C 2275   2.965   4.965   3.431  1.4793  0.5564  1.4691
   31CHL1   C22 2276   2.796   5.173   3.526  0.3053  0.5511  0.0686
   31CHL1  H22A 2277   2.867   5.251   3.561  1.1578  0.7093 -1.9090
   31CHL1  H22B 2278   2.697   5.222   3.528 -0.4505 -0.9155 -0.3622
   31CHL1   C23 2279   2.805   5.060   3.627 -0.5576 -0.6426  0.8821
   31CHL1  H23A 2280   2.733   4.981   3.597 -0.8866  0.1937 -0.6022
   31CHL1  H23B 2281   2.908   5.017   3.629 -0.1235  0.3876  1.0426
   31CHL1   C24 2282   2.757   5.105   3.766  0.5952  0.4400  0.3111
   31CHL1  H24A 2283   2.830   5.177   3.811  0.9589 -1.2942  2.6998
   31CHL1  H24B 2284   2.657   5.152   3.756 -0.4882 -1.6335  0.7492
   31CHL1   C25 2285   2.750   4.995   3.873 -0.1203  0.0785  0.1094
   31CHL1   H25 2286   2.673   4.928   3.830 -2.7756  1.1882  2.7934
   31CHL1   C26 2287   2.879   4.921   3.904  0.9595  0.1178  0.0172
   31CHL1  H26A 2288   2.912   4.862   3.816  0.8938 -1.2510  0.8803
   31CHL1  H26B 2289   2.967   4.986   3.926  1.7891 -1.9232  3.5404
   31CHL1  H26C 2290   2.865   4.851   3.989 -0.8897  0.6626  0.2139
   31CHL1   C27 2291   2.694   5.045   4.005  0.1835  0.0271  0.0900
   31CHL1  H27A 2292   2.771   5.107   4.056  0.9358  0.0583 -1.0556
   31CHL1  H27B 2293   2.598   5.099   3.989 -0.2623 -0.9134 -0.5085
   31CHL1  H27C 2294   2.671   4.960   4.072 -0.8505  1.0211  1.0496
   32CHL1    C3 2295   1.638   2.570   2.517 -0.0752  0.6778  0.3484
   32CHL1    H3 2296   1.629   2.672   2.560  2.5319  1.6058 -1.0522
   32CHL1    O3 2297   1.619   2.565   2.374 -0.6289  0.0918  0.0713
   32CHL1   H3' 2298   1.552   2.628   2.348  0.9404  1.6503 -0.4225
   32CHL1    C4 2299   1.777   2.515   2.539 -0.9164  0.4805  0.7343
   32CHL1   H4A 2300   1.780   2.421   2.480 -1.6632  1.8116 -1.5526
   32CHL1   H4B 2301   1.856   2.579   2.494  1.0286 -0.4624  2.6129
   32CHL1    C5 2302   1.811   2.496   2.684 -0.3451 -0.1982  0.2888
   32CHL1    C6 2303   1.919   2.549   2.744  0.1264  0.0739  0.2765
   32CHL1    H6 2304   1.990   2.602   2.680  0.9106 -0.3324  0.7938
   32CHL1    C7 2305   1.954   2.530   2.889  0.6660 -0.3553 -0.0049
   32CHL1   H7A 2306   2.056   2.487   2.894  1.7454  1.9526 -0.6583
   32CHL1   H7B 2307   1.952   2.627   2.943  1.3885 -0.7066  0.6724
   32CHL1    C8 2308   1.867   2.432   2.975  0.5293  0.1421 -0.9278
   32CHL1    H8 2309   1.905   2.328   2.962 -1.1189 -0.3286 -2.3815
   32CHL1   C14 2310   1.875   2.465   3.130  0.2784 -0.0270 -0.1168
   32CHL1   H14 2311   1.836   2.568   3.138  0.6600  0.0765  0.5074
   32CHL1   C15 2312   2.016   2.469   3.188 -0.5247 -0.0413  0.5616
   32CHL1  H15A 2313   2.075   2.386   3.142 -2.2543 -0.0285 -1.8545
   32CHL1  H15B 2314   2.068   2.562   3.157  1.4306 -1.1234  0.4314
   32CHL1   C16 2315   1.992   2.446   3.335 -1.0585 -0.1618 -1.2304
   32CHL1  H16A 2316   2.049   2.354   3.357 -2.3945 -1.1669 -1.8923
   32CHL1  H16B 2317   2.047   2.536   3.372  0.1044 -0.2998 -2.5642
   32CHL1   C17 2318   1.838   2.446   3.363 -0.3032  0.2482  0.3213
   32CHL1   H17 2319   1.807   2.552   3.370 -0.5357  0.1411  1.0793
   32CHL1   C13 2320   1.786   2.388   3.230 -0.3485 -0.7665 -0.7536
   32CHL1   C18 2321   1.817   2.239   3.226 -0.5386 -0.0238  0.0778
   32CHL1  H18A 2322   1.805   2.211   3.119  0.3477  2.4847 -0.7383
   32CHL1  H18B 2323   1.917   2.215   3.267  0.1206  1.9403 -0.2659
   32CHL1  H18C 2324   1.749   2.174   3.286  1.7180 -0.0634  2.7957
   32CHL1   C12 2325   1.643   2.414   3.172  0.0502 -0.3023  0.7734
   32CHL1  H12A 2326   1.558   2.362   3.222  0.1537 -2.1295 -0.8271
   32CHL1  H12B 2327   1.626   2.524   3.178  0.2801 -0.1004 -1.3214
   32CHL1   C11 2328   1.624   2.382   3.020  0.3267  0.0115  0.1309
   32CHL1  H11A 2329   1.638   2.273   2.999  1.2455  0.5468 -2.4599
   32CHL1  H11B 2330   1.522   2.410   2.985 -0.0632 -1.4907 -0.0184
   32CHL1    C9 2331   1.726   2.443   2.925 -1.1498 -0.4433 -0.1073
   32CHL1    H9 2332   1.696   2.549   2.937 -0.0020 -0.2161  1.0770
   32CHL1   C10 2333   1.717   2.413   2.769 -0.2062 -0.1413  0.3211
   32CHL1   C19 2334   1.742   2.269   2.743  0.2495 -0.3321  0.4197
   32CHL1  H19A 2335   1.825   2.216   2.794 -1.0408 -3.0689 -0.1037
   32CHL1  H19B 2336   1.652   2.212   2.774 -0.1957 -0.4496 -0.9909
   32CHL1  H19C 2337   1.746   2.238   2.636 -3.5224  0.0009  0.0338
   32CHL1    C1 2338   1.562   2.446   2.724 -0.3423  0.2903 -0.9252
   32CHL1   H1A 2339   1.485   2.379   2.769  0.2951  0.3302  0.2390
   32CHL1   H1B 2340   1.551   2.548   2.768 -0.3354  0.0425 -0.3391
   32CHL1    C2 2341   1.532   2.475   2.573 -0.2580  0.5653 -0.6372
   32CHL1   H2A 2342   1.438   2.532   2.564 -0.6588  0.1861  0.9057
   32CHL1   H2B 2343   1.532   2.377   2.519  0.3040 -0.7854  1.6609
   32CHL1   C20 2344   1.806   2.380   3.492 -0.0021  0.1497 -0.1709
   32CHL1   H20 2345   1.806   2.269   3.482  0.3735  0.1890 -0.6000
   32CHL1   C21 2346   1.668   2.435   3.536  0.2413  0.4616  0.5900
   32CHL1  H21A 2347   1.657   2.545   3.535 -2.7664  0.2553 -0.3781
   32CHL1  H21B 2348   1.642   2.388   3.633 -3.0060 -4.3589 -2.1276
   32CHL1  H21C 2349   1.593   2.401   3.460  0.1064  0.6935  0.6167
   32CHL1   C22 2350   1.911   2.413   3.603 -0.3615  0.0640  0.5686
   32CHL1  H22A 2351   2.007   2.369   3.567 -0.7503  1.3671 -2.3285
   32CHL1  H22B 2352   1.917   2.523   3.600 -1.3991  0.1672 -2.8605
   32CHL1   C23 2353   1.890   2.365   3.744 -0.1970  0.3638 -0.0934
   32CHL1  H23A 2354   1.970   2.405   3.810 -0.1036 -3.2560  2.2358
   32CHL1  H23B 2355   1.790   2.387   3.787  0.8244  0.8015  2.2241
   32CHL1   C24 2356   1.905   2.213   3.758  0.4271 -1.1471  0.1874
   32CHL1  H24A 2357   1.813   2.158   3.726  0.4334  0.0810 -2.0748
   32CHL1  H24B 2358   1.984   2.169   3.694  1.1362  2.5337 -1.7020
   32CHL1   C25 2359   1.933   2.185   3.913 -0.4666 -0.3533  0.1339
   32CHL1   H25 2360   2.015   2.247   3.955 -1.0693  0.1525  0.5992
   32CHL1   C26 2361   1.813   2.230   4.007 -0.1018  0.0404  0.2732
   32CHL1  H26A 2362   1.821   2.192   4.111 -2.6563 -2.1604 -0.2242
   32CHL1  H26B 2363   1.809   2.340   4.019 -0.2168  0.0787 -0.1014
   32CHL1  H26C 2364   1.715   2.192   3.972 -0.5727  1.2852  0.1976
   32CHL1   C27 2365   1.971   2.040   3.937 -0.0059 -0.6908  0.5634
   32CHL1  H27A 2366   1.977   2.008   4.043  1.3882 -1.2945  0.3312
   32CHL1  H27B 2367   1.900   1.971   3.887  1.4680 -1.6283 -0.3373
   32CHL1  H27C 2368   2.071   2.015   3.895 -0.5207 -0.4217 -0.8769
   33CHL1    C3 2369   2.880   3.573   2.546  0.5499  0.1807 -0.6945
   33CHL1    H3 2370   2.922   3.676   2.541 -2.5914  1.6242  0.3320
   33CHL1    O3 2371   2.832   3.549   2.413 -0.7125  0.7658 -0.1737
   33CHL1   H3' 2372   2.911   3.555   2.359  0.5444  1.1452  1.6018
   33CHL1    C4 2373   3.000   3.485   2.573  0.1668 -0.2284 -0.3215
   33CHL1   H4A 2374   2.959   3.382   2.566  1.8129 -0.9103 -0.3902
   33CHL1   H4B 2375   3.072   3.511   2.492  0.6210  0.6016  0.3357
   33CHL1    C5 2376   3.061   3.508   2.710  0.5052  0.0014 -0.9819
   33CHL1    C6 2377   3.191   3.542   2.716 -0.3593  0.6818 -0.5760
   33CHL1    H6 2378   3.246   3.529   2.622  2.0584  0.8469  0.7395
   33CHL1    C7 2379   3.268   3.584   2.838  0.0948 -0.9431 -0.5879
   33CHL1   H7A 2380   3.360   3.522   2.851  0.5959 -0.0027  0.5951
   33CHL1   H7B 2381   3.294   3.691   2.820 -2.6233  0.0654  0.8964
   33CHL1    C8 2382   3.184   3.567   2.960 -0.4651 -0.1744  0.3650
   33CHL1    H8 2383   3.182   3.461   2.992 -0.7955 -0.3559 -0.2518
   33CHL1   C14 2384   3.238   3.644   3.076  0.3984  0.8372  1.1574
   33CHL1   H14 2385   3.239   3.752   3.048  1.4795  0.8189  1.0805
   33CHL1   C15 2386   3.389   3.615   3.108 -0.0357  0.6217  0.2699
   33CHL1  H15A 2387   3.401   3.505   3.108  0.5261  0.6770 -0.2369
   33CHL1  H15B 2388   3.466   3.648   3.035  0.9554 -1.1092  0.4719
   33CHL1   C16 2389   3.405   3.680   3.246 -0.0815  0.2147  0.5029
   33CHL1  H16A 2390   3.438   3.596   3.310 -1.5258  0.1158  1.1718
   33CHL1  H16B 2391   3.481   3.760   3.257  0.0323 -0.0005  1.3333
   33CHL1   C17 2392   3.262   3.721   3.296 -0.3243 -0.1578  0.0843
   33CHL1   H17 2393   3.256   3.831   3.285  0.2891 -0.1931 -0.7157
   33CHL1   C13 2394   3.166   3.645   3.208  0.8362 -0.7095 -0.1929
   33CHL1   C18 2395   3.142   3.495   3.252 -0.1671 -0.6276 -0.6695
   33CHL1  H18A 2396   3.088   3.497   3.349  1.1626 -0.8426  0.1146
   33CHL1  H18B 2397   3.094   3.433   3.173 -1.1302 -1.4568  0.5405
   33CHL1  H18C 2398   3.242   3.448   3.269 -0.2910 -0.4127  0.7836
   33CHL1   C12 2399   3.027   3.715   3.184  0.7122 -0.0378 -0.4452
   33CHL1  H12A 2400   2.957   3.707   3.270 -0.5224  1.4167 -1.2790
   33CHL1  H12B 2401   3.057   3.820   3.165  1.8261  0.0141  1.2987
   33CHL1   C11 2402   2.954   3.640   3.065 -0.0808 -0.1754  0.2589
   33CHL1  H11A 2403   2.912   3.548   3.111 -1.3006  1.3106  2.2794
   33CHL1  H11B 2404   2.873   3.710   3.036  0.3139  0.3997  0.5535
   33CHL1    C9 2405   3.034   3.613   2.939 -0.8895  0.3958 -0.3015
   33CHL1    H9 2406   3.058   3.715   2.903  1.3926  0.9260  2.3503
   33CHL1   C10 2407   2.964   3.532   2.829 -0.3866  0.2859 -0.5631
   33CHL1   C19 2408   2.926   3.390   2.886 -0.3052 -0.2111  0.8676
   33CHL1  H19A 2409   2.861   3.397   2.976 -0.7589 -1.1717  0.6322
   33CHL1  H19B 2410   2.884   3.325   2.806  0.1061  0.0066  0.4661
   33CHL1  H19C 2411   3.013   3.337   2.930  2.1505  1.1899 -1.8960
   33CHL1    C1 2412   2.829   3.606   2.795 -0.2224 -1.0319 -0.1573
   33CHL1   H1A 2413   2.762   3.586   2.881  1.5694  1.2080  1.9145
   33CHL1   H1B 2414   2.861   3.712   2.781  3.4062 -2.0792 -0.8331
   33CHL1    C2 2415   2.774   3.571   2.654 -0.1142  0.4110 -0.1082
   33CHL1   H2A 2416   2.697   3.649   2.632 -1.8446 -0.3316  2.7945
   33CHL1   H2B 2417   2.729   3.471   2.667  3.2023 -1.3578 -1.1395
   33CHL1   C20 2418   3.244   3.700   3.448 -0.2404 -0.6800 -0.5201
   33CHL1   H20 2419   3.256   3.591   3.470 -1.4169 -0.5194  1.1473
   33CHL1   C21 2420   3.103   3.736   3.493  0.3786 -0.5470 -1.1109
   33CHL1  H21A 2421   3.023   3.670   3.452 -0.9266  0.9858 -1.1183
   33CHL1  H21B 2422   3.075   3.841   3.468 -1.6546 -0.8388 -0.3021
   33CHL1  H21C 2423   3.100   3.724   3.603  2.9885  1.4076 -0.7369
   33CHL1   C22 2424   3.343   3.783   3.531  0.0788 -0.0901  0.3180
   33CHL1  H22A 2425   3.444   3.754   3.495  0.1067 -0.1598  0.4498
   33CHL1  H22B 2426   3.329   3.890   3.508  0.0123 -0.2360 -0.3484
   33CHL1   C23 2427   3.333   3.767   3.682  0.4798  0.4734 -0.1153
   33CHL1  H23A 2428   3.239   3.811   3.722 -0.1512 -0.9975  0.0824
   33CHL1  H23B 2429   3.353   3.662   3.714  2.1285  1.0221  0.8125
   33CHL1   C24 2430   3.437   3.845   3.757  0.2904  0.5934 -0.0181
   33CHL1  H24A 2431   3.535   3.801   3.729 -0.9015 -2.2008 -0.1381
   33CHL1  H24B 2432   3.425   3.952   3.730  1.7570  0.6879 -0.3798
   33CHL1   C25 2433   3.410   3.851   3.907 -0.6564  0.2497  0.4052
   33CHL1   H25 2434   3.305   3.879   3.931  0.1502  4.1830  0.1424
   33CHL1   C26 2435   3.446   3.719   3.979  0.1814  0.1586  0.4264
   33CHL1  H26A 2436   3.456   3.735   4.089  0.7172  0.4879  0.3334
   33CHL1  H26B 2437   3.357   3.656   3.959 -1.9182  2.9090  0.6273
   33CHL1  H26C 2438   3.547   3.686   3.945  0.5329  1.4310  0.1660
   33CHL1   C27 2439   3.493   3.964   3.971 -0.2130 -0.0098  0.1222
   33CHL1  H27A 2440   3.601   3.946   3.954 -0.3770 -0.2284 -0.7398
   33CHL1  H27B 2441   3.451   4.056   3.925 -4.5375 -1.1933  1.2362
   33CHL1  H27C 2442   3.477   3.964   4.081  0.1826 -2.2565  0.2255
   34CHL1    C3 2443   1.204   2.256   2.587  0.7519 -0.1402 -0.1494
   34CHL1    H3 2444   1.308   2.291   2.574  1.2431 -0.9973  1.2863
   34CHL1    O3 2445   1.139   2.238   2.458 -0.4399 -0.2287  0.0127
   34CHL1   H3' 2446   1.045   2.236   2.474 -0.6738  0.2214 -1.1793
   34CHL1    C4 2447   1.193   2.124   2.672 -0.1666  0.1139  0.2235
   34CHL1   H4A 2448   1.089   2.089   2.651  0.0072 -0.9819  1.1058
   34CHL1   H4B 2449   1.263   2.050   2.627  0.6531  0.7799  0.3934
   34CHL1    C5 2450   1.218   2.142   2.819  0.0268  0.1496 -0.4632
   34CHL1    C6 2451   1.322   2.088   2.887  0.0188  0.5047  0.2573
   34CHL1    H6 2452   1.390   2.014   2.842  1.5605  1.1491  1.4463
   34CHL1    C7 2453   1.339   2.105   3.036  0.5128 -0.1342  0.6544
   34CHL1   H7A 2454   1.382   2.009   3.072  0.8455 -0.3345 -0.2282
   34CHL1   H7B 2455   1.426   2.173   3.046  1.8457 -2.0894  3.6439
   34CHL1    C8 2456   1.219   2.163   3.114  0.0677 -0.7354  0.3479
   34CHL1    H8 2457   1.147   2.078   3.118 -0.0619 -0.6006  1.1101
   34CHL1   C14 2458   1.256   2.221   3.251 -0.3109 -0.0923 -0.3718
   34CHL1   H14 2459   1.315   2.310   3.222  0.1214 -0.6090 -1.1371
   34CHL1   C15 2460   1.340   2.146   3.348 -0.1608 -0.5256  0.1258
   34CHL1  H15A 2461   1.299   2.044   3.361  1.3212 -1.2768 -0.7458
   34CHL1  H15B 2462   1.448   2.134   3.325  0.5889  2.5050  1.5669
   34CHL1   C16 2463   1.332   2.211   3.481 -0.6214 -0.3357  0.8944
   34CHL1  H16A 2464   1.303   2.142   3.563  1.3849 -1.1123  1.0139
   34CHL1  H16B 2465   1.432   2.251   3.508 -0.3566 -0.2562 -0.1506
   34CHL1   C17 2466   1.232   2.330   3.461 -0.0822  0.3012 -0.4249
   34CHL1   H17 2467   1.289   2.419   3.426  0.0921 -0.4460 -2.1540
   34CHL1   C13 2468   1.143   2.287   3.335 -0.3022 -0.4778 -0.3825
   34CHL1   C18 2469   1.040   2.184   3.382  0.0125 -0.4186  0.3006
   34CHL1  H18A 2470   0.968   2.243   3.444  0.6963 -1.0765  1.7719
   34CHL1  H18B 2471   0.984   2.146   3.294  0.3382  1.2393 -0.6770
   34CHL1  H18C 2472   1.087   2.102   3.440  0.5219 -0.7534 -0.5832
   34CHL1   C12 2473   1.079   2.401   3.251 -0.6853 -0.3324  0.2856
   34CHL1  H12A 2474   1.001   2.459   3.304 -0.2557  1.2870 -0.7982
   34CHL1  H12B 2475   1.159   2.475   3.232 -0.2807 -1.2503 -1.9332
   34CHL1   C11 2476   1.038   2.341   3.116  0.6903 -0.7630 -0.3490
   34CHL1  H11A 2477   0.962   2.262   3.132 -0.4849  0.6352  1.3244
   34CHL1  H11B 2478   0.985   2.425   3.066  0.7234 -0.1339  0.6523
   34CHL1    C9 2479   1.158   2.278   3.033  0.4120 -0.0445  0.0398
   34CHL1    H9 2480   1.239   2.354   3.040  1.6128 -0.9685 -2.3816
   34CHL1   C10 2481   1.130   2.244   2.884  0.0329  0.2836 -0.3314
   34CHL1   C19 2482   0.985   2.190   2.871 -1.0512  0.2668 -0.5477
   34CHL1  H19A 2483   0.903   2.257   2.906 -2.7143 -1.3574 -1.1172
   34CHL1  H19B 2484   0.952   2.184   2.765 -0.6335 -2.9594 -0.6021
   34CHL1  H19C 2485   0.980   2.092   2.922 -1.4059  0.1812 -0.7397
   34CHL1    C1 2486   1.149   2.377   2.807 -0.1398 -0.2281  0.1668
   34CHL1   H1A 2487   1.079   2.456   2.843 -0.4450 -0.9226  1.1440
   34CHL1   H1B 2488   1.255   2.401   2.829 -1.1280  2.7656  2.3307
   34CHL1    C2 2489   1.126   2.372   2.660  0.1780 -0.2775 -0.3853
   34CHL1   H2A 2490   1.139   2.467   2.603  0.7955 -0.8825 -1.2726
   34CHL1   H2B 2491   1.018   2.350   2.643  0.2534  0.4118 -2.0424
   34CHL1   C20 2492   1.154   2.384   3.581  0.1806  0.1884 -0.3094
   34CHL1   H20 2493   1.064   2.432   3.538  1.2190  1.4854 -1.1183
   34CHL1   C21 2494   1.236   2.489   3.656  0.2735  0.1967 -0.3741
   34CHL1  H21A 2495   1.269   2.574   3.593 -3.2024  3.1791  1.4453
   34CHL1  H21B 2496   1.323   2.442   3.707 -1.1762 -2.3921 -0.1415
   34CHL1  H21C 2497   1.177   2.532   3.740  0.7578 -1.2542  0.7609
   34CHL1   C22 2498   1.120   2.272   3.691 -0.0853  0.7214 -0.1910
   34CHL1  H22A 2499   1.062   2.190   3.643  1.3368  0.3115 -1.2848
   34CHL1  H22B 2500   1.218   2.236   3.730  0.2406 -0.9919 -2.3585
   34CHL1   C23 2501   1.037   2.327   3.810 -0.8128  0.4682 -0.1393
   34CHL1  H23A 2502   1.113   2.373   3.878 -2.0133  2.8164 -0.2767
   34CHL1  H23B 2503   0.964   2.405   3.779 -0.0704  0.3789 -2.2778
   34CHL1   C24 2504   0.960   2.223   3.898  0.8460  0.2915  0.4387
   34CHL1  H24A 2505   1.037   2.143   3.913  0.3648 -0.5704 -1.3557
   34CHL1  H24B 2506   0.941   2.266   3.998  0.4334  0.2044  0.3985
   34CHL1   C25 2507   0.835   2.165   3.831 -0.0101 -0.3763  0.1563
   34CHL1   H25 2508   0.857   2.127   3.729 -2.1220 -1.5815  0.0742
   34CHL1   C26 2509   0.775   2.037   3.903 -0.0462 -0.0444 -0.4572
   34CHL1  H26A 2510   0.685   2.000   3.850 -1.2282 -0.3994  1.7085
   34CHL1  H26B 2511   0.853   1.958   3.912 -1.6099 -1.5097  0.6941
   34CHL1  H26C 2512   0.756   2.065   4.009  2.3841  1.1920 -0.2561
   34CHL1   C27 2513   0.719   2.268   3.815  0.3398 -0.6920 -0.2689
   34CHL1  H27A 2514   0.641   2.219   3.752  1.6307 -1.1093 -1.5865
   34CHL1  H27B 2515   0.676   2.304   3.911 -2.2433  0.8436 -1.8839
   34CHL1  H27C 2516   0.748   2.362   3.764 -0.9984  0.1273  0.4234
   35CHL1    C3 2517   3.438   1.427   2.559 -0.1681 -0.0362 -0.7358
   35CHL1    H3 2518   3.424   1.317   2.564  0.3922 -0.0626  0.7596
   35CHL1    O3 2519   3.493   1.460   2.432 -0.5326  0.3038  0.3335
   35CHL1   H3' 2520   3.570   1.403   2.425 -0.7783  0.1197 -1.4219
   35CHL1    C4 2521   3.297   1.490   2.561  0.3162  0.9205 -0.7431
   35CHL1   H4A 2522   3.305   1.599   2.541  0.7977  0.9877 -0.2015
   35CHL1   H4B 2523   3.248   1.451   2.469  0.9934 -1.5228 -0.1419
   35CHL1    C5 2524   3.223   1.468   2.692  0.5799 -0.1357 -0.1238
   35CHL1    C6 2525   3.100   1.408   2.690 -0.2696  0.3415  0.4264
   35CHL1    H6 2526   3.055   1.379   2.594 -0.2640 -0.6850  0.7270
   35CHL1    C7 2527   3.023   1.369   2.810  0.3359 -0.0559  0.0824
   35CHL1   H7A 2528   2.917   1.397   2.793  0.5052 -0.6210 -2.2342
   35CHL1   H7B 2529   3.026   1.259   2.823  0.6109  0.0242  0.7694
   35CHL1    C8 2530   3.077   1.439   2.932  0.0747 -0.3729  0.0689
   35CHL1    H8 2531   3.042   1.544   2.929 -0.5803 -0.6077 -1.3168
   35CHL1   C14 2532   3.019   1.386   3.066  0.6446 -0.1927  0.4142
   35CHL1   H14 2533   3.056   1.281   3.064 -0.3535 -0.6095  1.8904
   35CHL1   C15 2534   2.867   1.367   3.073  0.2206 -0.0320  0.2067
   35CHL1  H15A 2535   2.806   1.455   3.043  1.4799  1.6038  2.1865
   35CHL1  H15B 2536   2.833   1.278   3.016 -1.2022  0.0665  0.8640
   35CHL1   C16 2537   2.844   1.348   3.225  0.1612 -0.0404  0.1262
   35CHL1  H16A 2538   2.779   1.423   3.275 -0.8556 -0.8235  0.0188
   35CHL1  H16B 2539   2.804   1.247   3.251  0.7266 -0.3295 -0.1090
   35CHL1   C17 2540   2.980   1.365   3.294  0.3467  0.7390 -0.2641
   35CHL1   H17 2541   3.019   1.262   3.306 -2.1349 -0.0829  1.6604
   35CHL1   C13 2542   3.066   1.453   3.201 -0.2270 -0.5432  0.0924
   35CHL1   C18 2543   3.019   1.602   3.204 -0.1885  0.7477 -0.5392
   35CHL1  H18A 2544   3.044   1.651   3.107  0.7881  1.3632  0.0069
   35CHL1  H18B 2545   2.909   1.599   3.221 -0.1066  0.6843 -0.0128
   35CHL1  H18C 2546   3.070   1.654   3.288 -0.2067 -1.1274  0.7046
   35CHL1   C12 2547   3.217   1.441   3.202 -0.5890 -0.0268 -0.4052
   35CHL1  H12A 2548   3.265   1.512   3.274 -2.5974  1.9731 -0.9457
   35CHL1  H12B 2549   3.251   1.336   3.212  0.6667 -0.1940 -4.5777
   35CHL1   C11 2550   3.288   1.492   3.074 -0.1490 -0.3290 -0.1597
   35CHL1  H11A 2551   3.285   1.603   3.080  1.0634 -0.3264  0.7371
   35CHL1  H11B 2552   3.399   1.479   3.077  0.2396  2.0855 -1.5556
   35CHL1    C9 2553   3.234   1.438   2.938 -0.3389  0.3363 -0.0447
   35CHL1    H9 2554   3.257   1.330   2.929  3.4759  1.1218 -1.9074
   35CHL1   C10 2555   3.304   1.503   2.818 -0.0517  0.3357  0.0299
   35CHL1   C19 2556   3.304   1.659   2.824 -0.5175 -0.2551  0.2954
   35CHL1  H19A 2557   3.200   1.696   2.817 -0.0105  1.5592  1.5054
   35CHL1  H19B 2558   3.348   1.695   2.920 -0.1764  0.4576 -0.1235
   35CHL1  H19C 2559   3.358   1.714   2.745 -0.3990 -2.5459 -1.3282
   35CHL1    C1 2560   3.441   1.452   2.812  0.2030  0.2104 -0.2663
   35CHL1   H1A 2561   3.517   1.491   2.883  0.8402 -1.3054 -0.0954
   35CHL1   H1B 2562   3.443   1.342   2.826 -1.4629  0.0003 -1.4559
   35CHL1    C2 2563   3.512   1.488   2.678 -0.2069  0.0180  0.8787
   35CHL1   H2A 2564   3.612   1.441   2.686 -0.3464 -0.2238  1.2401
   35CHL1   H2B 2565   3.531   1.596   2.662  0.4424 -0.3291 -0.9367
   35CHL1   C20 2566   2.968   1.411   3.441  0.9743 -0.3592 -0.4653
   35CHL1   H20 2567   2.923   1.513   3.438  0.7805 -0.4137  0.3120
   35CHL1   C21 2568   3.109   1.425   3.506 -0.3443  0.5277  0.0674
   35CHL1  H21A 2569   3.172   1.510   3.472 -3.2591  2.7385 -0.2522
   35CHL1  H21B 2570   3.152   1.323   3.510  2.4670  1.6450  2.8186
   35CHL1  H21C 2571   3.098   1.449   3.614 -1.9865 -1.5829  0.4499
   35CHL1   C22 2572   2.867   1.326   3.518 -0.5680 -0.4571  0.3024
   35CHL1  H22A 2573   2.764   1.350   3.484 -0.3375 -1.2854 -1.0395
   35CHL1  H22B 2574   2.881   1.223   3.479  0.8730 -0.2005  0.0570
   35CHL1   C23 2575   2.860   1.338   3.663  0.1386  0.6915  0.2762
   35CHL1  H23A 2576   2.941   1.294   3.726 -1.6395 -0.5248  1.8003
   35CHL1  H23B 2577   2.858   1.443   3.698  1.8629  0.7419  0.3107
   35CHL1   C24 2578   2.729   1.282   3.717  0.5932 -0.6154 -0.2488
   35CHL1  H24A 2579   2.644   1.334   3.668 -1.7832 -2.2820  1.7841
   35CHL1  H24B 2580   2.728   1.180   3.673 -1.0936  0.0511 -1.8916
   35CHL1   C25 2581   2.704   1.271   3.865 -0.6673 -0.4163 -0.3926
   35CHL1   H25 2582   2.799   1.234   3.909 -0.6537  0.5682  0.4360
   35CHL1   C26 2583   2.669   1.404   3.937 -0.2103  0.0077  0.4079
   35CHL1  H26A 2584   2.764   1.461   3.931  1.1494 -2.2776 -1.7434
   35CHL1  H26B 2585   2.587   1.460   3.888 -0.0037 -0.0533 -0.0067
   35CHL1  H26C 2586   2.631   1.388   4.041 -2.1304  0.0431 -0.2415
   35CHL1   C27 2587   2.607   1.149   3.884 -0.2023  0.1591 -0.0426
   35CHL1  H27A 2588   2.667   1.056   3.873 -0.5037  0.1065 -1.4168
   35CHL1  H27B 2589   2.551   1.147   3.980  1.0720 -2.8134  0.7523
   35CHL1  H27C 2590   2.534   1.132   3.802 -0.7514 -1.9370  0.8060
   36CHL1    C3 2591   1.905   5.494   2.500  0.0568 -0.0416 -0.1292
   36CHL1    H3 2592   1.814   5.432   2.513 -0.1125  0.1943 -0.1843
   36CHL1    O3 2593   1.893   5.529   2.364  0.1229  0.2334 -0.1507
   36CHL1   H3' 2594   1.983   5.559   2.345 -0.9756  2.9299 -1.7337
   36CHL1    C4 2595   1.903   5.615   2.591 -0.1722  0.0133 -0.3384
   36CHL1   H4A 2596   1.996   5.670   2.564  0.9863 -0.7019  1.9642
   36CHL1   H4B 2597   1.817   5.683   2.570 -1.7341 -1.8560 -0.3081
   36CHL1    C5 2598   1.916   5.575   2.741 -0.2375 -0.0270  0.0415
   36CHL1    C6 2599   1.824   5.608   2.823 -0.5808  1.1073 -0.1071
   36CHL1    H6 2600   1.736   5.663   2.785 -1.0474  0.2560 -0.2905
   36CHL1    C7 2601   1.822   5.572   2.970 -0.2194  0.7090 -0.3252
   36CHL1   H7A 2602   1.767   5.649   3.028 -0.7984 -0.0489  0.1429
   36CHL1   H7B 2603   1.768   5.477   2.988  3.2049 -0.9276  2.4688
   36CHL1    C8 2604   1.960   5.539   3.016 -0.4071 -0.2641 -0.6842
   36CHL1    H8 2605   2.032   5.623   3.008 -0.2912  0.1990  3.2281
   36CHL1   C14 2606   1.952   5.478   3.157  0.3455 -0.0726  0.3646
   36CHL1   H14 2607   1.900   5.380   3.144  1.1409 -0.4747  0.1222
   36CHL1   C15 2608   1.873   5.551   3.273 -0.0039 -0.1559 -0.1731
   36CHL1  H15A 2609   1.900   5.659   3.267  1.9832 -0.5949  0.0942
   36CHL1  H15B 2610   1.762   5.541   3.278 -0.2201  1.0567 -1.7073
   36CHL1   C16 2611   1.943   5.488   3.393  0.4753 -0.2612 -0.3828
   36CHL1  H16A 2612   1.995   5.557   3.463  0.9989 -0.6023 -0.4245
   36CHL1  H16B 2613   1.878   5.411   3.440 -0.4609  0.0097 -1.2185
   36CHL1   C17 2614   2.050   5.379   3.342  0.3567  0.5164 -0.2569
   36CHL1   H17 2615   1.999   5.283   3.318 -0.8972  0.6156  1.7672
   36CHL1   C13 2616   2.086   5.444   3.203 -0.4905 -1.0252 -0.1552
   36CHL1   C18 2617   2.171   5.568   3.230 -0.1737 -0.7850  0.1306
   36CHL1  H18A 2618   2.129   5.641   3.303  0.3082  0.5314 -0.8525
   36CHL1  H18B 2619   2.270   5.534   3.264  1.1996 -0.1814 -2.8893
   36CHL1  H18C 2620   2.189   5.620   3.133 -0.5067 -0.2725  0.3361
   36CHL1   C12 2621   2.162   5.342   3.120  0.4107 -0.0679  0.5228
   36CHL1  H12A 2622   2.262   5.325   3.165  0.0702 -2.6720  0.4507
   36CHL1  H12B 2623   2.104   5.247   3.124  1.2837 -0.5738  1.9458
   36CHL1   C11 2624   2.171   5.394   2.976 -0.0556  0.1699  0.3582
   36CHL1  H11A 2625   2.245   5.477   2.974  1.4803 -1.1072  1.4736
   36CHL1  H11B 2626   2.206   5.313   2.910 -0.4863  0.8728 -0.7621
   36CHL1    C9 2627   2.028   5.437   2.918 -0.3256  0.4113  0.1388
   36CHL1    H9 2628   1.958   5.351   2.918  0.2905 -0.1180  1.3324
   36CHL1   C10 2629   2.040   5.493   2.775  0.0873  0.3495 -0.6785
   36CHL1   C19 2630   2.161   5.585   2.757  0.6385  0.3100 -0.2656
   36CHL1  H19A 2631   2.154   5.630   2.656  1.9816 -1.9832 -1.4660
   36CHL1  H19B 2632   2.152   5.660   2.839  0.9678 -1.4030  1.4058
   36CHL1  H19C 2633   2.255   5.527   2.767 -0.3533 -1.1440  1.1836
   36CHL1    C1 2634   2.046   5.371   2.681  0.4875  0.2273 -0.1350
   36CHL1   H1A 2635   2.131   5.301   2.698  0.4202  0.0511 -0.5066
   36CHL1   H1B 2636   1.958   5.309   2.709  1.0124 -0.8429 -0.8112
   36CHL1    C2 2637   2.023   5.398   2.527 -0.0357 -0.6332  0.2982
   36CHL1   H2A 2638   2.009   5.301   2.474  3.7767  0.1393 -2.5094
   36CHL1   H2B 2639   2.109   5.444   2.474  0.6948 -2.7825 -0.5023
   36CHL1   C20 2640   2.167   5.352   3.446 -0.4864  0.2439 -0.4258
   36CHL1   H20 2641   2.238   5.438   3.450  0.2795 -0.3661 -0.5669
   36CHL1   C21 2642   2.259   5.237   3.405  0.4387  0.0845 -0.1789
   36CHL1  H21A 2643   2.315   5.186   3.487  0.9143  0.5046 -0.2326
   36CHL1  H21B 2644   2.336   5.263   3.329  0.0616 -1.9491 -1.3346
   36CHL1  H21C 2645   2.208   5.159   3.345  1.0168  1.0183 -1.9513
   36CHL1   C22 2646   2.116   5.334   3.591  0.1213  0.3359  0.3248
   36CHL1  H22A 2647   2.032   5.405   3.607  1.1653  1.6508  0.1430
   36CHL1  H22B 2648   2.055   5.242   3.576 -0.6811  1.3341 -3.6589
   36CHL1   C23 2649   2.215   5.329   3.702  0.6222 -0.3952 -0.3039
   36CHL1  H23A 2650   2.284   5.249   3.669 -0.7642 -1.5354 -0.5614
   36CHL1  H23B 2651   2.274   5.422   3.707  0.1548 -0.1101 -0.0267
   36CHL1   C24 2652   2.145   5.285   3.829 -0.0408 -0.1003 -0.3023
   36CHL1  H24A 2653   2.041   5.322   3.837  0.0637 -0.1175  4.6536
   36CHL1  H24B 2654   2.135   5.175   3.842  0.4686  0.1123  2.5574
   36CHL1   C25 2655   2.224   5.326   3.956 -0.4202  0.1753 -0.7913
   36CHL1   H25 2656   2.239   5.436   3.944  1.7748  0.0745  0.4130
   36CHL1   C26 2657   2.147   5.295   4.086  0.4871 -0.0390 -0.2424
   36CHL1  H26A 2658   2.046   5.339   4.070  0.6435  1.0788  1.5598
   36CHL1  H26B 2659   2.133   5.189   4.116 -0.5121  0.3037  0.5761
   36CHL1  H26C 2660   2.198   5.351   4.168  2.0314 -1.9422  0.1668
   36CHL1   C27 2661   2.364   5.257   3.967 -0.2868  0.2684  0.2053
   36CHL1  H27A 2662   2.358   5.166   4.030  4.8286  0.1331  0.9137
   36CHL1  H27B 2663   2.405   5.231   3.867  2.2247 -1.0955  1.5098
   36CHL1  H27C 2664   2.433   5.314   4.033 -0.9360 -1.8237  2.8579
   37CHL1    C3 2665   1.320   4.951   2.440  0.6452  0.3482  0.6119
   37CHL1    H3 2666   1.362   4.848   2.446 -0.1456 -0.0847 -0.9168
   37CHL1    O3 2667   1.259   4.970   2.313 -0.2245  0.1697  0.3230
   37CHL1   H3' 2668   1.275   5.064   2.296  1.6736  0.0683  1.2484
   37CHL1    C4 2669   1.211   4.979   2.535 -0.5758  0.3383  0.0166
   37CHL1   H4A 2670   1.174   5.082   2.520 -0.2009  0.8431  2.3165
   37CHL1   H4B 2671   1.125   4.913   2.512  0.2611 -0.9328  0.4243
   37CHL1    C5 2672   1.268   4.955   2.674 -0.0580  0.6976 -0.0224
   37CHL1    C6 2673   1.236   4.855   2.752  0.0376  0.6175 -0.6671
   37CHL1    H6 2674   1.165   4.775   2.726  1.3135 -1.0391  0.7119
   37CHL1    C7 2675   1.281   4.846   2.899 -0.3731 -0.1091  1.3253
   37CHL1   H7A 2676   1.201   4.817   2.970  1.1847 -1.3211  2.6599
   37CHL1   H7B 2677   1.353   4.763   2.914  0.4098 -0.0839 -1.6537
   37CHL1    C8 2678   1.344   4.980   2.951  0.3503 -0.1121  0.3869
   37CHL1    H8 2679   1.265   5.054   2.971  0.0569 -1.0322  3.0420
   37CHL1   C14 2680   1.431   4.955   3.078 -0.6183 -0.0172  0.2888
   37CHL1   H14 2681   1.514   4.893   3.039 -1.0139  0.4067 -1.3256
   37CHL1   C15 2682   1.357   4.883   3.196 -0.3539 -0.1195  0.0076
   37CHL1  H15A 2683   1.260   4.936   3.205  0.5416  1.4892  0.7940
   37CHL1  H15B 2684   1.344   4.774   3.180  1.6048 -0.6765  1.7362
   37CHL1   C16 2685   1.440   4.917   3.320  0.3971  0.4845 -0.1767
   37CHL1  H16A 2686   1.379   4.966   3.399 -0.7449  1.4220 -1.5785
   37CHL1  H16B 2687   1.488   4.828   3.364 -0.0399  0.1339 -0.4052
   37CHL1   C17 2688   1.554   5.014   3.266  0.7905 -0.2267 -1.1921
   37CHL1   H17 2689   1.644   4.954   3.240 -0.1502 -1.6348 -1.3098
   37CHL1   C13 2690   1.500   5.076   3.139 -0.6701 -0.1922  0.1511
   37CHL1   C18 2691   1.397   5.188   3.174 -0.2208  0.2952  0.7991
   37CHL1  H18A 2692   1.314   5.148   3.237  0.6951  0.1674  1.9697
   37CHL1  H18B 2693   1.439   5.280   3.219  1.8161  1.0579 -2.3691
   37CHL1  H18C 2694   1.357   5.237   3.083 -1.0069  3.1377  2.5616
   37CHL1   C12 2695   1.600   5.132   3.035 -0.1127 -0.7586 -0.2580
   37CHL1  H12A 2696   1.648   5.227   3.067  2.2308 -2.3204  1.1746
   37CHL1  H12B 2697   1.685   5.063   3.018  0.9798 -0.4467  3.2123
   37CHL1   C11 2698   1.536   5.152   2.900  0.4065  0.2316  0.2154
   37CHL1  H11A 2699   1.481   5.247   2.917 -0.4514 -0.0258 -1.0810
   37CHL1  H11B 2700   1.618   5.171   2.827 -0.4224 -0.7054 -0.9883
   37CHL1    C9 2701   1.441   5.034   2.845  0.4568  0.0165 -0.4065
   37CHL1    H9 2702   1.513   4.952   2.825  0.2732  0.1046 -1.5166
   37CHL1   C10 2703   1.380   5.053   2.710  0.1454 -0.4140 -0.3170
   37CHL1   C19 2704   1.309   5.193   2.717  0.4146 -0.0366 -0.2352
   37CHL1  H19A 2705   1.242   5.221   2.633  0.1407 -3.3260 -1.2550
   37CHL1  H19B 2706   1.254   5.190   2.813 -0.0971  0.8759 -0.4883
   37CHL1  H19C 2707   1.377   5.278   2.739  0.2519 -0.5265  2.4541
   37CHL1    C1 2708   1.490   5.057   2.600  0.4954  0.2622 -0.1896
   37CHL1   H1A 2709   1.562   5.142   2.605 -0.0953  0.7757 -0.2874
   37CHL1   H1B 2710   1.544   4.962   2.582  0.1336 -0.0874  0.5510
   37CHL1    C2 2711   1.425   5.057   2.456  0.1998  0.1354  0.5707
   37CHL1   H2A 2712   1.500   5.047   2.375 -1.1855  0.3303 -0.7625
   37CHL1   H2B 2713   1.384   5.159   2.444  2.5416  0.8762 -2.3713
   37CHL1   C20 2714   1.604   5.095   3.382  0.4083 -0.7486 -0.1402
   37CHL1   H20 2715   1.514   5.152   3.414 -1.4990 -2.5777 -1.9587
   37CHL1   C21 2716   1.704   5.198   3.332 -0.2864 -0.2639 -0.1287
   37CHL1  H21A 2717   1.751   5.265   3.408  0.0117 -0.2060 -0.3638
   37CHL1  H21B 2718   1.664   5.277   3.265  1.4299 -0.7882 -1.8555
   37CHL1  H21C 2719   1.789   5.146   3.283  0.8445 -0.8611  2.3118
   37CHL1   C22 2720   1.666   5.006   3.501 -0.3058  0.7483  0.0035
   37CHL1  H22A 2721   1.588   4.936   3.539  1.7321 -1.3294  0.5746
   37CHL1  H22B 2722   1.746   4.938   3.467  0.5348  1.1208  1.1874
   37CHL1   C23 2723   1.694   5.086   3.630 -0.0777 -0.0464 -0.9063
   37CHL1  H23A 2724   1.782   5.151   3.612  1.5753 -1.5831  1.0616
   37CHL1  H23B 2725   1.602   5.145   3.654 -0.7313 -0.5685 -2.0557
   37CHL1   C24 2726   1.724   4.985   3.747 -0.3339  0.4365 -0.6295
   37CHL1  H24A 2727   1.633   4.926   3.774  0.4139 -0.4010  0.1337
   37CHL1  H24B 2728   1.808   4.917   3.723  0.0485  0.1732  1.2746
   37CHL1   C25 2729   1.768   5.058   3.878 -0.0196  0.6446  0.2203
   37CHL1   H25 2730   1.870   5.100   3.863 -0.2929  1.3664  0.3187
   37CHL1   C26 2731   1.676   5.172   3.932  0.0356 -0.4068  0.2042
   37CHL1  H26A 2732   1.644   5.251   3.860  0.6560 -0.7374 -0.4458
   37CHL1  H26B 2733   1.585   5.122   3.971  1.0526 -4.7269 -2.3231
   37CHL1  H26C 2734   1.736   5.216   4.015  2.2019 -1.2350 -0.8462
   37CHL1   C27 2735   1.796   4.951   3.988  0.3025 -0.4191  0.5282
   37CHL1  H27A 2736   1.871   4.879   3.950 -0.2839 -0.1844 -1.1454
   37CHL1  H27B 2737   1.836   4.990   4.084  2.5705 -1.1022 -0.0849
   37CHL1  H27C 2738   1.707   4.889   4.011 -0.8271  0.4418 -1.3044
   38CHL1    C3 2739   4.704   1.221   2.555 -0.3537 -0.0220  0.0736
   38CHL1    H3 2740   4.630   1.299   2.582 -0.9808 -1.1246  1.6849
   38CHL1    O3 2741   4.728   1.218   2.414  0.6260 -0.6358  0.4152
   38CHL1   H3' 2742   4.758   1.304   2.383  1.2367 -1.3311 -0.9939
   38CHL1    C4 2743   4.843   1.255   2.613  0.2861 -0.2629  0.2452
   38CHL1   H4A 2744   4.931   1.203   2.570  1.8830  1.7638  0.9076
   38CHL1   H4B 2745   4.860   1.359   2.578 -1.0545 -0.2961 -0.5745
   38CHL1    C5 2746   4.858   1.241   2.763 -0.2035 -0.4499  0.0261
   38CHL1    C6 2747   4.897   1.338   2.839  0.6628 -0.4804  0.5920
   38CHL1    H6 2748   4.922   1.433   2.789  0.5837 -0.7117  0.1034
   38CHL1    C7 2749   4.908   1.339   2.989 -0.2499  0.1296 -0.0928
   38CHL1   H7A 2750   5.000   1.393   3.016  0.1472 -1.1158  1.1352
   38CHL1   H7B 2751   4.833   1.403   3.040  1.2604  0.7052  1.4606
   38CHL1    C8 2752   4.905   1.193   3.044  0.6120 -0.5119  0.0087
   38CHL1    H8 2753   5.003   1.156   3.008 -0.2647 -2.6452 -0.3578
   38CHL1   C14 2754   4.896   1.184   3.193  0.0728  0.6140 -0.2179
   38CHL1   H14 2755   4.794   1.223   3.214 -0.0132  0.5414 -0.5018
   38CHL1   C15 2756   4.981   1.273   3.282 -0.3063  0.4300 -0.6575
   38CHL1  H15A 2757   5.079   1.292   3.232 -0.9441  0.1615 -2.0557
   38CHL1  H15B 2758   4.925   1.368   3.297 -1.0605 -0.2306  0.8437
   38CHL1   C16 2759   4.978   1.204   3.417 -0.0177 -0.2877 -0.4208
   38CHL1  H16A 2760   5.085   1.181   3.438  0.7386  1.1007 -2.4416
   38CHL1  H16B 2761   4.932   1.268   3.494  0.0633  2.0900 -2.2505
   38CHL1   C17 2762   4.894   1.073   3.404 -0.3658  0.7767  0.1214
   38CHL1   H17 2763   4.789   1.102   3.423 -1.1734 -1.6451 -0.2405
   38CHL1   C13 2764   4.902   1.046   3.253  0.2773  0.8410  0.1640
   38CHL1   C18 2765   5.038   0.977   3.221 -0.3883 -0.0109 -0.1709
   38CHL1  H18A 2766   5.053   0.987   3.111  0.1306 -1.8043 -0.2816
   38CHL1  H18B 2767   5.120   1.033   3.271  0.2855 -0.6729 -0.5155
   38CHL1  H18C 2768   5.042   0.869   3.245 -1.0103 -0.0325 -0.1377
   38CHL1   C12 2769   4.780   0.971   3.198  0.3596  0.4271  0.5448
   38CHL1  H12A 2770   4.790   0.865   3.229 -1.0956  0.0223 -0.2815
   38CHL1  H12B 2771   4.679   0.993   3.240 -0.2766 -0.8693 -0.2414
   38CHL1   C11 2772   4.777   0.968   3.046  0.1892 -0.4297  0.0551
   38CHL1  H11A 2773   4.861   0.904   3.010 -0.2405  0.2322 -2.2870
   38CHL1  H11B 2774   4.678   0.929   3.015 -1.7036  2.0210  2.5194
   38CHL1    C9 2775   4.795   1.111   2.975 -0.0984 -1.3917  0.1134
   38CHL1    H9 2776   4.702   1.167   2.998  1.7787  1.3614  1.6031
   38CHL1   C10 2777   4.818   1.111   2.818 -0.1594  0.9556  0.1094
   38CHL1   C19 2778   4.923   1.007   2.780 -0.0723 -0.0070 -0.9934
   38CHL1  H19A 2779   5.018   1.051   2.816 -0.7258  1.6179 -1.1777
   38CHL1  H19B 2780   4.912   0.901   2.812 -1.8389  0.9188  1.9447
   38CHL1  H19C 2781   4.924   0.992   2.670  2.4792  2.3911 -1.3966
   38CHL1    C1 2782   4.678   1.067   2.752 -0.6327 -0.1509 -0.4548
   38CHL1   H1A 2783   4.657   0.963   2.784 -0.1037 -0.2708 -0.5039
   38CHL1   H1B 2784   4.603   1.136   2.798  3.8334  4.3891  0.8513
   38CHL1    C2 2785   4.653   1.085   2.598 -0.1442 -0.3833 -0.3693
   38CHL1   H2A 2786   4.546   1.076   2.571 -0.6615  3.9671 -0.3761
   38CHL1   H2B 2787   4.715   1.004   2.554  0.5082 -0.1930  0.1912
   38CHL1   C20 2788   4.930   0.964   3.505 -0.2872 -0.5506 -0.7574
   38CHL1   H20 2789   5.009   0.903   3.457  1.8093  1.6427 -0.3065
   38CHL1   C21 2790   4.810   0.870   3.527  0.1153 -0.0550 -0.6461
   38CHL1  H21A 2791   4.838   0.802   3.609 -0.2278  0.8934  0.2749
   38CHL1  H21B 2792   4.801   0.809   3.434 -1.4502 -0.6331 -0.1427
   38CHL1  H21C 2793   4.712   0.917   3.551  0.1041 -1.5715  2.7674
   38CHL1   C22 2794   4.988   1.017   3.649 -0.0394 -0.6249 -0.0606
   38CHL1  H22A 2795   5.036   0.931   3.701  1.7461  0.7115  0.6274
   38CHL1  H22B 2796   5.075   1.081   3.622  0.0248 -0.5587  0.2987
   38CHL1   C23 2797   4.881   1.088   3.732  0.0086  0.1851 -0.1490
   38CHL1  H23A 2798   4.798   1.135   3.674  0.0254  0.4372  0.0326
   38CHL1  H23B 2799   4.831   1.009   3.792  0.8244  0.5997  1.1048
   38CHL1   C24 2800   4.940   1.179   3.836  0.7794  0.0486  0.4274
   38CHL1  H24A 2801   4.998   1.106   3.896 -0.3520 -0.2194  1.2146
   38CHL1  H24B 2802   5.009   1.260   3.804  0.1526  0.0907 -0.9135
   38CHL1   C25 2803   4.825   1.252   3.913 -0.5828  0.3259 -0.5915
   38CHL1   H25 2804   4.754   1.169   3.935 -0.1256  0.2096  0.5365
   38CHL1   C26 2805   4.869   1.314   4.045 -0.1933 -0.3412 -0.3682
   38CHL1  H26A 2806   4.933   1.404   4.029  0.2603 -0.4755  0.6654
   38CHL1  H26B 2807   4.784   1.341   4.111  0.0836  0.0189 -0.1577
   38CHL1  H26C 2808   4.936   1.246   4.100 -0.8801 -0.0251  0.8911
   38CHL1   C27 2809   4.737   1.347   3.835 -0.1547 -0.8066 -0.0814
   38CHL1  H27A 2810   4.804   1.403   3.767  1.5251 -1.5153  0.9291
   38CHL1  H27B 2811   4.668   1.280   3.779  2.6938 -3.3063 -0.9114
   38CHL1  H27C 2812   4.693   1.422   3.903  0.9382 -0.6008  0.4215
   39CHL1    C3 2813   1.246   1.615   2.558  1.1275  0.4561  0.5781
   39CHL1    H3 2814   1.286   1.518   2.595  0.2466 -0.4274 -0.7300
   39CHL1    O3 2815   1.290   1.638   2.428 -0.2488  0.5763  0.3678
   39CHL1   H3' 2816   1.291   1.561   2.370  2.2864 -1.0470  2.3057
   39CHL1    C4 2817   1.089   1.614   2.569 -0.1193  0.0021 -0.4908
   39CHL1   H4A 2818   1.061   1.713   2.528 -3.5667 -0.0427  1.4155
   39CHL1   H4B 2819   1.030   1.541   2.510 -2.4279  0.3967  1.2197
   39CHL1    C5 2820   1.046   1.596   2.716 -0.2148  0.0368 -0.0653
   39CHL1    C6 2821   0.962   1.499   2.747 -0.6673  0.9000 -0.0157
   39CHL1    H6 2822   0.904   1.445   2.671  2.7357  0.5044 -2.5406
   39CHL1    C7 2823   0.922   1.471   2.893  0.2625 -0.1732  0.6764
   39CHL1   H7A 2824   0.819   1.429   2.900  0.7118 -1.8102 -1.3864
   39CHL1   H7B 2825   0.997   1.402   2.939  2.1242  0.7849 -0.7962
   39CHL1    C8 2826   0.946   1.592   2.991 -0.2170 -0.2942 -0.1361
   39CHL1    H8 2827   0.874   1.671   2.959  0.7917  0.6833 -0.0608
   39CHL1   C14 2828   0.931   1.554   3.136 -0.0510  0.0641  0.3097
   39CHL1   H14 2829   1.016   1.487   3.159  0.7346  0.3670 -1.5272
   39CHL1   C15 2830   0.804   1.476   3.172 -0.4307 -0.8456 -0.1080
   39CHL1  H15A 2831   0.712   1.513   3.121  1.7106 -0.0298 -3.7712
   39CHL1  H15B 2832   0.815   1.370   3.139 -0.3266 -0.1109 -2.6996
   39CHL1   C16 2833   0.796   1.500   3.324 -0.6699 -0.4434 -0.1228
   39CHL1  H16A 2834   0.705   1.559   3.348 -0.1964  0.3680 -0.2643
   39CHL1  H16B 2835   0.811   1.403   3.376  0.7447  0.7200  1.7929
   39CHL1   C17 2836   0.916   1.595   3.366  0.2405  0.1860  0.4060
   39CHL1   H17 2837   1.002   1.527   3.384  0.6213  0.8548  1.1835
   39CHL1   C13 2838   0.952   1.669   3.233  0.0088 -0.7068 -0.0521
   39CHL1   C18 2839   0.837   1.775   3.213 -0.4347  0.0887  0.6311
   39CHL1  H18A 2840   0.839   1.847   3.297  0.8694  1.7305 -0.7201
   39CHL1  H18B 2841   0.860   1.835   3.122  0.0402  1.2476  1.4984
   39CHL1  H18C 2842   0.747   1.712   3.198  0.4620 -1.0861 -0.0204
   39CHL1   C12 2843   1.095   1.727   3.219  0.4347  0.6721  0.4348
   39CHL1  H12A 2844   1.125   1.811   3.285  2.6378 -0.0550  0.4523
   39CHL1  H12B 2845   1.151   1.635   3.249 -0.8456 -0.8326 -1.5354
   39CHL1   C11 2846   1.128   1.762   3.070 -0.3603  0.1232 -0.1435
   39CHL1  H11A 2847   1.074   1.857   3.053 -0.8533 -0.5204 -2.5025
   39CHL1  H11B 2848   1.236   1.784   3.055 -0.6073  1.2202 -0.3982
   39CHL1    C9 2849   1.090   1.648   2.965 -0.0497 -0.1020  0.2636
   39CHL1    H9 2850   1.164   1.567   2.979 -0.4253 -0.7434 -1.3068
   39CHL1   C10 2851   1.115   1.689   2.817  0.3797 -0.6435  0.3335
   39CHL1   C19 2852   1.049   1.828   2.787 -0.0488  0.0762 -0.0653
   39CHL1  H19A 2853   0.937   1.826   2.790 -0.0746 -1.7322 -1.0507
   39CHL1  H19B 2854   1.099   1.907   2.848 -0.6244  0.0813  0.4116
   39CHL1  H19C 2855   1.067   1.862   2.683  0.5582  0.0904  0.0418
   39CHL1    C1 2856   1.266   1.695   2.789  0.1249 -0.3705  0.8094
   39CHL1   H1A 2857   1.313   1.771   2.855  0.9603 -0.7694  0.6935
   39CHL1   H1B 2858   1.305   1.595   2.818  0.7441 -1.2047 -2.4423
   39CHL1    C2 2859   1.310   1.719   2.647  0.7983  0.3758 -0.2602
   39CHL1   H2A 2860   1.421   1.713   2.656  0.8077 -1.3997 -1.1613
   39CHL1   H2B 2861   1.285   1.817   2.602  3.1829  0.3648 -1.8096
   39CHL1   C20 2862   0.890   1.679   3.494 -0.1839 -0.0137  0.7467
   39CHL1   H20 2863   0.813   1.757   3.474 -1.4688 -2.0039 -3.1627
   39CHL1   C21 2864   1.017   1.753   3.540 -0.1248  0.3701  0.1349
   39CHL1  H21A 2865   1.042   1.842   3.479  0.5539  0.5605  0.6775
   39CHL1  H21B 2866   1.108   1.690   3.540  0.3864  0.9409  3.0369
   39CHL1  H21C 2867   1.022   1.793   3.643  3.2118 -2.3211  1.2049
   39CHL1   C22 2868   0.831   1.596   3.606 -0.0669  0.4224  0.6821
   39CHL1  H22A 2869   0.810   1.655   3.698  1.0332  0.2184  1.0736
   39CHL1  H22B 2870   0.735   1.546   3.581 -0.4294  1.6614 -0.5414
   39CHL1   C23 2871   0.919   1.482   3.658 -0.2983 -0.0239  0.6952
   39CHL1  H23A 2872   0.922   1.398   3.586 -1.7345 -1.5771  2.3612
   39CHL1  H23B 2873   1.026   1.511   3.647 -0.5947  0.5036 -1.1309
   39CHL1   C24 2874   0.879   1.438   3.795 -0.3806 -0.3762  1.2965
   39CHL1  H24A 2875   0.839   1.529   3.844 -2.7694 -0.5714 -0.0939
   39CHL1  H24B 2876   0.805   1.355   3.785  0.2702 -0.7700 -0.7158
   39CHL1   C25 2877   0.989   1.390   3.880  0.2475  0.1404  0.0611
   39CHL1   H25 2878   1.083   1.441   3.851  1.4128 -1.4919  0.8377
   39CHL1   C26 2879   0.951   1.412   4.022 -0.2705 -0.8837  0.6494
   39CHL1  H26A 2880   1.029   1.374   4.092  1.5212  1.7966  0.2430
   39CHL1  H26B 2881   0.926   1.518   4.044 -1.5881 -0.4585 -2.4484
   39CHL1  H26C 2882   0.861   1.356   4.055 -1.0136 -0.1295 -0.0622
   39CHL1   C27 2883   1.007   1.234   3.856  0.3080 -0.2142  0.0277
   39CHL1  H27A 2884   0.909   1.184   3.841  0.8296 -0.9028 -1.2722
   39CHL1  H27B 2885   1.056   1.221   3.757 -1.9419  0.3433 -1.2106
   39CHL1  H27C 2886   1.059   1.205   3.950 -0.9383 -3.2145 -0.1075
   40CHL1    C3 2887   1.500   1.171   2.349  0.6322 -0.3185  0.1520
   40CHL1    H3 2888   1.451   1.267   2.321 -1.9279 -0.5206  3.3654
   40CHL1    O3 2889   1.548   1.096   2.240  0.0857 -0.0896 -0.3394
   40CHL1   H3' 2890   1.596   1.152   2.179 -3.4490  1.7683 -1.6853
   40CHL1    C4 2891   1.614   1.198   2.440  0.4823 -0.0396  0.0024
   40CHL1   H4A 2892   1.675   1.106   2.451 -1.3622 -1.3289 -0.2045
   40CHL1   H4B 2893   1.679   1.270   2.385 -1.0042  2.3119  1.1465
   40CHL1    C5 2894   1.581   1.264   2.574 -0.2302 -0.0947 -0.3132
   40CHL1    C6 2895   1.620   1.384   2.610 -0.3776  0.1257 -1.2010
   40CHL1    H6 2896   1.679   1.454   2.550 -0.5509 -0.2419 -1.8068
   40CHL1    C7 2897   1.582   1.441   2.742  0.4401 -0.2895  0.1151
   40CHL1   H7A 2898   1.668   1.494   2.788  0.6742 -1.2011  0.7684
   40CHL1   H7B 2899   1.508   1.522   2.727  1.4864  0.4952 -1.1109
   40CHL1    C8 2900   1.526   1.339   2.843 -0.5521  0.0164  0.0788
   40CHL1    H8 2901   1.606   1.273   2.882  0.8193  1.0387 -0.9032
   40CHL1   C14 2902   1.468   1.398   2.976  0.5938 -0.1354  0.0411
   40CHL1   H14 2903   1.386   1.469   2.951 -1.0459 -2.1833 -0.6612
   40CHL1   C15 2904   1.565   1.480   3.054 -0.2987  0.0319  0.3630
   40CHL1  H15A 2905   1.659   1.423   3.072 -0.8072 -0.4407  1.6609
   40CHL1  H15B 2906   1.580   1.584   3.017  0.2294  0.0715  0.6670
   40CHL1   C16 2907   1.499   1.490   3.195  0.3339  0.6352 -1.4652
   40CHL1  H16A 2908   1.581   1.473   3.269 -1.7409  0.3601  0.9278
   40CHL1  H16B 2909   1.464   1.591   3.226 -1.2635 -0.1226 -0.6579
   40CHL1   C17 2910   1.383   1.383   3.198  0.2476 -0.3595 -0.0794
   40CHL1   H17 2911   1.293   1.436   3.160  0.3542  0.6070  0.9991
   40CHL1   C13 2912   1.415   1.293   3.073 -0.7721  0.1053  0.0712
   40CHL1   C18 2913   1.520   1.189   3.112  0.3570  1.1100  0.1479
   40CHL1  H18A 2914   1.483   1.101   3.169  1.3502  0.2688 -0.4736
   40CHL1  H18B 2915   1.576   1.136   3.031 -0.6980 -1.0317  0.7506
   40CHL1  H18C 2916   1.598   1.234   3.176  0.9186 -0.3399  0.5144
   40CHL1   C12 2917   1.295   1.228   3.005  0.5133  0.3905 -0.1839
   40CHL1  H12A 2918   1.259   1.144   3.068  2.0666 -0.0221  0.1886
   40CHL1  H12B 2919   1.209   1.296   2.986  0.4324  0.4168  0.2661
   40CHL1   C11 2920   1.336   1.163   2.867  0.5191  0.7295  0.2663
   40CHL1  H11A 2921   1.384   1.069   2.900 -0.2088  0.0751 -0.4770
   40CHL1  H11B 2922   1.245   1.121   2.819 -0.1031  0.7052  1.4273
   40CHL1    C9 2923   1.419   1.258   2.772  0.1231 -0.5417  0.4651
   40CHL1    H9 2924   1.351   1.336   2.732 -0.4414 -1.2938 -0.0651
   40CHL1   C10 2925   1.486   1.178   2.658 -0.0181  0.0623  1.1384
   40CHL1   C19 2926   1.571   1.059   2.707  0.1619 -0.8396 -0.0002
   40CHL1  H19A 2927   1.646   1.110   2.771 -0.5876 -0.2586  0.4470
   40CHL1  H19B 2928   1.509   0.989   2.768 -1.9654  1.5189  0.7486
   40CHL1  H19C 2929   1.610   1.001   2.621  2.7000 -2.4687  2.1015
   40CHL1    C1 2930   1.365   1.134   2.567  0.2638 -0.1154  0.1328
   40CHL1   H1A 2931   1.292   1.071   2.622  0.6449  1.1939  2.2398
   40CHL1   H1B 2932   1.298   1.221   2.549  1.5455  0.8619 -0.1277
   40CHL1    C2 2933   1.397   1.077   2.428  0.1150  0.5817  0.0507
   40CHL1   H2A 2934   1.319   1.044   2.356  0.8654 -0.2570 -0.4096
   40CHL1   H2B 2935   1.459   0.986   2.448 -0.6096  0.2789  0.9985
   40CHL1   C20 2936   1.352   1.319   3.340 -0.6846  0.3697 -0.6763
   40CHL1   H20 2937   1.440   1.254   3.359 -0.5844  0.3331 -1.2423
   40CHL1   C21 2938   1.218   1.249   3.324 -0.1481  0.6123  0.0169
   40CHL1  H21A 2939   1.172   1.206   3.416  1.5883 -1.9130 -0.1996
   40CHL1  H21B 2940   1.249   1.159   3.267  2.6879  1.2985  0.3144
   40CHL1  H21C 2941   1.138   1.308   3.274 -1.5114 -0.7398  0.5450
   40CHL1   C22 2942   1.348   1.433   3.447  0.7554  0.1322 -0.3459
   40CHL1  H22A 2943   1.445   1.484   3.460  1.6862 -1.6973  0.1279
   40CHL1  H22B 2944   1.277   1.507   3.404  0.0787 -0.5508 -0.4333
   40CHL1   C23 2945   1.295   1.391   3.590 -1.0393  0.0977  0.6978
   40CHL1  H23A 2946   1.288   1.482   3.655  1.0218 -0.2981  1.5620
   40CHL1  H23B 2947   1.190   1.356   3.581 -1.2083  0.9247 -1.0107
   40CHL1   C24 2948   1.383   1.287   3.651  0.2898 -0.0477 -1.2515
   40CHL1  H24A 2949   1.325   1.218   3.716  0.5286 -1.3021 -2.3169
   40CHL1  H24B 2950   1.427   1.216   3.577 -1.4212 -2.7590  0.1658
   40CHL1   C25 2951   1.512   1.343   3.718  0.1970  0.3772 -0.0613
   40CHL1   H25 2952   1.547   1.421   3.647 -0.3239 -0.9331 -1.8353
   40CHL1   C26 2953   1.495   1.428   3.845 -0.3273  0.3140 -0.1289
   40CHL1  H26A 2954   1.473   1.363   3.932  1.3682 -1.7505 -1.1592
   40CHL1  H26B 2955   1.588   1.485   3.867 -1.4552  1.4923  1.9024
   40CHL1  H26C 2956   1.409   1.499   3.835 -0.8266 -0.2085  0.3564
   40CHL1   C27 2957   1.618   1.229   3.737  0.2446 -0.8419 -0.1529
   40CHL1  H27A 2958   1.646   1.188   3.638 -4.1236 -2.6326 -0.8566
   40CHL1  H27B 2959   1.706   1.280   3.784  0.1577 -0.3824 -0.4807
   40CHL1  H27C 2960   1.594   1.143   3.803  0.2140 -0.2412  0.6443
   41CHL1    C3 2961   1.478   0.509   2.532 -0.4872 -0.0629 -0.3628
   41CHL1    H3 2962   1.550   0.430   2.561 -0.4836 -0.6472 -1.9009
   41CHL1    O3 2963   1.465   0.489   2.389 -0.7137  0.4200 -0.3985
   41CHL1   H3' 2964   1.420   0.405   2.374 -0.0584  0.2225 -1.3597
   41CHL1    C4 2965   1.343   0.495   2.608  0.1953 -0.5412  0.1147
   41CHL1   H4A 2966   1.283   0.576   2.561  2.8794  1.1341 -0.6788
   41CHL1   H4B 2967   1.310   0.394   2.577 -0.5585  0.1051 -1.3167
   41CHL1    C5 2968   1.349   0.517   2.757  0.0603 -1.0015 -0.2764
   41CHL1    C6 2969   1.336   0.415   2.839 -0.0841 -0.3345 -0.6330
   41CHL1    H6 2970   1.310   0.314   2.802  1.8938 -0.1098 -2.8197
   41CHL1    C7 2971   1.346   0.427   2.989  0.4759  0.1447  0.5067
   41CHL1   H7A 2972   1.263   0.375   3.041 -2.7476  3.1996 -1.1180
   41CHL1   H7B 2973   1.436   0.372   3.023 -0.2460 -0.7311  1.0537
   41CHL1    C8 2974   1.345   0.577   3.046 -0.6889 -0.2573 -0.1540
   41CHL1    H8 2975   1.240   0.612   3.052 -1.2398 -1.8749  0.3450
   41CHL1   C14 2976   1.403   0.581   3.193  0.2736 -0.7758  0.7016
   41CHL1   H14 2977   1.503   0.535   3.181  0.3747  0.0879 -2.6870
   41CHL1   C15 2978   1.328   0.499   3.304 -0.0163 -0.1033 -0.3309
   41CHL1  H15A 2979   1.219   0.516   3.298 -0.0269  1.3901  2.4067
   41CHL1  H15B 2980   1.353   0.391   3.304  0.7213  0.0614 -0.1680
   41CHL1   C16 2981   1.383   0.560   3.435  0.7886 -0.0109 -0.7071
   41CHL1  H16A 2982   1.307   0.571   3.514  0.3754  0.3303 -1.1449
   41CHL1  H16B 2983   1.454   0.489   3.482  0.2407 -0.6737 -0.8650
   41CHL1   C17 2984   1.456   0.686   3.393 -0.5077 -0.6396 -0.5523
   41CHL1   H17 2985   1.561   0.650   3.391 -0.6127 -0.9777 -0.0950
   41CHL1   C13 2986   1.413   0.726   3.249 -0.9814  0.3518  0.3712
   41CHL1   C18 2987   1.270   0.789   3.248 -0.4034 -0.0250  0.1290
   41CHL1  H18A 2988   1.233   0.801   3.144  2.3890 -0.2791 -0.9704
   41CHL1  H18B 2989   1.190   0.733   3.301 -1.3903  2.6604  1.6828
   41CHL1  H18C 2990   1.279   0.893   3.287  1.1215  0.4982 -1.4959
   41CHL1   C12 2991   1.514   0.794   3.164 -0.3907 -0.1902 -0.0682
   41CHL1  H12A 2992   1.518   0.898   3.203 -0.4026 -1.1242  2.6180
   41CHL1  H12B 2993   1.616   0.755   3.181  0.3156  2.2936  2.1314
   41CHL1   C11 2994   1.474   0.804   3.014 -0.1267 -0.0090  0.3890
   41CHL1  H11A 2995   1.385   0.869   2.996 -0.8874 -1.5230 -1.6700
   41CHL1  H11B 2996   1.561   0.838   2.953 -1.3041 -2.4216 -2.8920
   41CHL1    C9 2997   1.439   0.660   2.955  0.0341 -0.3277  0.2498
   41CHL1    H9 2998   1.532   0.599   2.964 -1.3974 -2.5283  1.1641
   41CHL1   C10 2999   1.415   0.650   2.798  0.1484 -0.3267  0.1094
   41CHL1   C19 3000   1.305   0.759   2.769  0.0293  0.1357 -0.4069
   41CHL1  H19A 3001   1.350   0.857   2.797  1.0866 -0.6400  0.7490
   41CHL1  H19B 3002   1.292   0.769   2.660 -0.9924 -1.4660 -0.4616
   41CHL1  H19C 3003   1.214   0.735   2.828  0.6304 -0.0153  0.4822
   41CHL1    C1 3004   1.546   0.676   2.721  0.0785 -0.3051 -0.3177
   41CHL1   H1A 3005   1.577   0.780   2.744  1.7699 -1.1649  1.6070
   41CHL1   H1B 3006   1.621   0.604   2.761  1.3786  0.4731 -1.2500
   41CHL1    C2 3007   1.547   0.648   2.567  0.1137  1.0538  0.1791
   41CHL1   H2A 3008   1.656   0.648   2.542 -0.4120  1.5982 -2.3737
   41CHL1   H2B 3009   1.498   0.733   2.515 -0.3887  1.2145  0.9042
   41CHL1   C20 3010   1.444   0.799   3.502  0.4908  0.3262 -0.3372
   41CHL1   H20 3011   1.336   0.815   3.523  0.5475  0.7954 -0.3967
   41CHL1   C21 3012   1.512   0.930   3.456  0.2112 -0.4158  0.4493
   41CHL1  H21A 3013   1.610   0.911   3.406  0.2942 -0.9455  0.8051
   41CHL1  H21B 3014   1.506   1.004   3.539 -0.8475 -0.3369  0.3081
   41CHL1  H21C 3015   1.446   0.969   3.376  1.7034  1.3605 -0.0034
   41CHL1   C22 3016   1.517   0.762   3.634 -0.1607 -0.2560  0.6471
   41CHL1  H22A 3017   1.513   0.652   3.648  0.5414 -0.6952 -2.1157
   41CHL1  H22B 3018   1.625   0.781   3.620  0.2137 -0.8911  2.3691
   41CHL1   C23 3019   1.459   0.833   3.759 -0.2556  0.1625  0.8594
   41CHL1  H23A 3020   1.523   0.811   3.848 -2.0312  1.1168  2.4474
   41CHL1  H23B 3021   1.463   0.943   3.744 -0.6462  0.0901  0.2050
   41CHL1   C24 3022   1.328   0.774   3.803  0.1288  0.9338 -0.0807
   41CHL1  H24A 3023   1.247   0.797   3.730 -0.4327  0.0929  0.2658
   41CHL1  H24B 3024   1.349   0.665   3.798 -1.1114  0.7388 -3.2401
   41CHL1   C25 3025   1.287   0.811   3.946 -0.5710 -0.4372 -0.4731
   41CHL1   H25 3026   1.368   0.790   4.020  0.3737  1.1297 -1.0090
   41CHL1   C26 3027   1.246   0.960   3.961  0.0459  0.3889  0.6236
   41CHL1  H26A 3028   1.147   0.968   3.911  0.2234 -1.5117 -0.0958
   41CHL1  H26B 3029   1.232   0.985   4.068  0.3271 -1.0083  1.0091
   41CHL1  H26C 3030   1.322   1.031   3.922 -0.2324 -0.7087 -2.1010
   41CHL1   C27 3031   1.173   0.712   3.979  0.5525 -0.0627  0.5914
   41CHL1  H27A 3032   1.150   0.730   4.086  2.4109  3.7497  0.5058
   41CHL1  H27B 3033   1.090   0.726   3.906  1.1421  0.0140 -0.0809
   41CHL1  H27C 3034   1.211   0.609   3.959 -1.8239 -0.8306 -0.3900
   42CHL1    C3 3035   4.215   1.279   2.685 -0.0326 -0.1707  0.0568
   42CHL1    H3 3036   4.176   1.382   2.691  0.2260 -0.1098  0.8763
   42CHL1    O3 3037   4.240   1.246   2.554  0.4473 -0.0867 -0.1259
   42CHL1   H3' 3038   4.285   1.317   2.508 -1.4177  0.6587 -0.9160
   42CHL1    C4 3039   4.348   1.260   2.754  0.0698  0.1514  0.0938
   42CHL1   H4A 3040   4.387   1.160   2.724  0.5002 -0.3011  2.0049
   42CHL1   H4B 3041   4.432   1.316   2.708  0.5561 -1.0901 -0.5835
   42CHL1    C5 3042   4.345   1.267   2.904  0.3577  0.2776  0.0874
   42CHL1    C6 3043   4.425   1.341   2.977 -0.0004  0.4614  0.1023
   42CHL1    H6 3044   4.497   1.411   2.931 -0.4568  0.9819  0.1669
   42CHL1    C7 3045   4.446   1.324   3.126  0.6635 -0.4817  0.7527
   42CHL1   H7A 3046   4.554   1.333   3.150  0.3870  1.5558  1.4304
   42CHL1   H7B 3047   4.399   1.407   3.181 -0.6250 -1.0470  0.5318
   42CHL1    C8 3048   4.390   1.196   3.185  0.4382 -0.6662 -0.4850
   42CHL1    H8 3049   4.461   1.115   3.157  3.0778  0.7036  1.7830
   42CHL1   C14 3050   4.379   1.205   3.336  0.3690 -0.0175  0.3700
   42CHL1   H14 3051   4.328   1.300   3.362  1.2751 -0.3102  3.6419
   42CHL1   C15 3052   4.512   1.227   3.410 -0.3273 -0.4188 -0.2538
   42CHL1  H15A 3053   4.596   1.166   3.372  0.8778  1.5266 -0.8748
   42CHL1  H15B 3054   4.546   1.333   3.404  0.3054 -0.5983  0.1026
   42CHL1   C16 3055   4.474   1.195   3.560 -0.3051 -0.0374 -0.1861
   42CHL1  H16A 3056   4.555   1.136   3.607 -1.5689 -1.0259  0.8248
   42CHL1  H16B 3057   4.471   1.290   3.617 -0.0563  0.0989 -0.3937
   42CHL1   C17 3058   4.336   1.134   3.558  0.7050 -0.4511 -0.4441
   42CHL1   H17 3059   4.258   1.213   3.571 -0.4294 -1.0502 -3.0237
   42CHL1   C13 3060   4.312   1.088   3.407 -0.0006 -0.0057  0.5386
   42CHL1   C18 3061   4.398   0.954   3.381  0.5740 -0.0566  0.3133
   42CHL1  H18A 3062   4.342   0.875   3.435  0.5931  0.5980  1.3254
   42CHL1  H18B 3063   4.396   0.938   3.271 -2.4044  1.7268 -0.0223
   42CHL1  H18C 3064   4.504   0.957   3.413  1.1301 -1.4583 -1.2730
   42CHL1   C12 3065   4.171   1.070   3.350 -0.0110 -0.6583  0.4324
   42CHL1  H12A 3066   4.117   0.986   3.398 -0.7630 -1.1631 -1.2549
   42CHL1  H12B 3067   4.119   1.164   3.380 -0.5083 -1.6450  2.8794
   42CHL1   C11 3068   4.169   1.057   3.196  0.1185  0.3560 -0.1303
   42CHL1  H11A 3069   4.229   0.965   3.179 -1.7823 -1.2622  1.3914
   42CHL1  H11B 3070   4.071   1.030   3.151  0.7635 -2.8179  0.1578
   42CHL1    C9 3071   4.243   1.179   3.124  0.1269 -0.1887 -0.8600
   42CHL1    H9 3072   4.180   1.269   3.142  0.4166  0.1555 -1.5442
   42CHL1   C10 3073   4.252   1.166   2.971  0.1432 -0.6347 -0.2623
   42CHL1   C19 3074   4.297   1.016   2.940 -0.3249  0.1022  0.3572
   42CHL1  H19A 3075   4.332   1.000   2.835 -0.6260  1.7624 -0.0260
   42CHL1  H19B 3076   4.381   0.981   3.003 -0.2476  1.7791  1.2404
   42CHL1  H19C 3077   4.210   0.953   2.969 -0.3583  0.2759  0.6275
   42CHL1    C1 3078   4.112   1.192   2.902  0.0121  0.3425 -0.7677
   42CHL1   H1A 3079   4.038   1.120   2.941  3.1589 -2.2366  0.9388
   42CHL1   H1B 3080   4.078   1.294   2.930  3.9317  1.6777 -0.2495
   42CHL1    C2 3081   4.111   1.183   2.749 -0.2436  0.4043 -0.0167
   42CHL1   H2A 3082   4.009   1.193   2.705  0.1854  2.4919 -0.6308
   42CHL1   H2B 3083   4.146   1.083   2.715 -0.9706  0.9258 -2.5090
   42CHL1   C20 3084   4.309   1.045   3.682  0.1069  0.4004  0.1010
   42CHL1   H20 3085   4.360   0.947   3.670 -0.7995 -0.2572  1.3904
   42CHL1   C21 3086   4.154   1.007   3.681 -0.4752 -0.1392  0.2438
   42CHL1  H21A 3087   4.126   0.952   3.588 -1.8129  2.2000 -0.8430
   42CHL1  H21B 3088   4.086   1.094   3.696  0.3201  0.5382  0.0020
   42CHL1  H21C 3089   4.130   0.929   3.756 -2.4165 -0.5373 -0.7368
   42CHL1   C22 3090   4.342   1.109   3.815 -0.1548 -1.8367  0.0365
   42CHL1  H22A 3091   4.450   1.130   3.804 -0.3149 -0.8082  0.3400
   42CHL1  H22B 3092   4.284   1.200   3.841  1.1803 -1.2755  1.2419
   42CHL1   C23 3093   4.324   1.011   3.930 -0.7437  0.1632 -0.4008
   42CHL1  H23A 3094   4.215   0.994   3.947 -0.8074  1.0714  0.1999
   42CHL1  H23B 3095   4.377   0.916   3.909 -1.7249 -0.7978  1.2364
   42CHL1   C24 3096   4.401   1.056   4.059 -0.5032  0.0260  0.2212
   42CHL1  H24A 3097   4.383   0.993   4.149  0.1318  1.1203  1.1527
   42CHL1  H24B 3098   4.509   1.058   4.033 -0.3956  0.5841  0.6917
   42CHL1   C25 3099   4.375   1.202   4.095 -0.3915 -0.5148 -0.1576
   42CHL1   H25 3100   4.405   1.274   4.016  0.9506 -1.9835 -1.0376
   42CHL1   C26 3101   4.229   1.227   4.135  0.0683  0.0598 -0.5549
   42CHL1  H26A 3102   4.223   1.311   4.208 -1.2039  1.6990 -2.4464
   42CHL1  H26B 3103   4.177   1.245   4.038 -0.5202  1.3281 -0.0289
   42CHL1  H26C 3104   4.180   1.138   4.180 -0.8641  0.5678 -0.5216
   42CHL1   C27 3105   4.473   1.235   4.204  0.2072  0.0998  0.6076
   42CHL1  H27A 3106   4.459   1.155   4.280  0.7259 -1.1391 -0.5683
   42CHL1  H27B 3107   4.579   1.224   4.172 -0.4267 -0.2459 -1.5598
   42CHL1  H27C 3108   4.455   1.336   4.246  0.9801  1.2448 -1.6385
   43CHL1    C3 3109   4.716   0.553   2.458  0.4540  0.4459 -0.5902
   43CHL1    H3 3110   4.770   0.460   2.488 -0.8765  0.2925  1.5180
   43CHL1    O3 3111   4.754   0.598   2.329  0.0443 -0.1606 -0.3055
   43CHL1   H3' 3112   4.714   0.535   2.269  1.4474  0.6921 -2.2380
   43CHL1    C4 3113   4.564   0.544   2.468 -0.1183  0.3779  0.1952
   43CHL1   H4A 3114   4.516   0.638   2.433 -1.1820 -1.1537 -2.9075
   43CHL1   H4B 3115   4.538   0.461   2.398  0.0533  0.8012 -0.3828
   43CHL1    C5 3116   4.513   0.511   2.606  0.4463 -0.4020 -0.1484
   43CHL1    C6 3117   4.437   0.402   2.631  0.2746 -0.5053  0.0195
   43CHL1    H6 3118   4.410   0.338   2.546 -0.1934 -1.3362  0.7733
   43CHL1    C7 3119   4.382   0.370   2.768 -0.1206 -0.5074  0.6293
   43CHL1   H7A 3120   4.274   0.360   2.747  0.4088 -0.6942 -2.5851
   43CHL1   H7B 3121   4.427   0.274   2.804 -0.4327 -0.6641  0.6052
   43CHL1    C8 3122   4.407   0.480   2.873 -0.2846 -0.1109  0.5001
   43CHL1    H8 3123   4.337   0.566   2.859  1.3061  0.8823 -2.1936
   43CHL1   C14 3124   4.390   0.420   3.011  0.1875  0.4330  0.5227
   43CHL1   H14 3125   4.473   0.346   3.013 -1.5553 -1.8357 -2.2563
   43CHL1   C15 3126   4.261   0.348   3.049 -0.5285  0.7294 -0.4776
   43CHL1  H15A 3127   4.183   0.413   3.005 -0.3411  0.5285 -1.1207
   43CHL1  H15B 3128   4.254   0.256   2.988  0.1286  1.4660 -1.6825
   43CHL1   C16 3129   4.260   0.336   3.202  0.3480  0.2741  0.8624
   43CHL1  H16A 3130   4.163   0.369   3.245 -0.0332  0.0310  0.2070
   43CHL1  H16B 3131   4.279   0.231   3.235 -2.8322 -0.7360 -0.1923
   43CHL1   C17 3132   4.374   0.422   3.252 -0.0620 -0.5218 -0.3350
   43CHL1   H17 3133   4.459   0.351   3.265 -0.7085 -1.2943 -0.2204
   43CHL1   C13 3134   4.416   0.515   3.132  0.2208 -0.3853  0.3518
   43CHL1   C18 3135   4.315   0.643   3.126 -0.4461  0.8085 -0.3225
   43CHL1  H18A 3136   4.209   0.614   3.140 -0.5422  1.7473  1.1205
   43CHL1  H18B 3137   4.345   0.703   3.215  1.0183 -0.8224  0.3460
   43CHL1  H18C 3138   4.332   0.698   3.031 -1.6926 -0.1629 -1.1428
   43CHL1   C12 3139   4.569   0.558   3.122  0.2761  1.1055  0.6940
   43CHL1  H12A 3140   4.591   0.627   3.206 -0.6249  1.8979  0.2995
   43CHL1  H12B 3141   4.623   0.461   3.127 -0.5182  0.5494 -1.0625
   43CHL1   C11 3142   4.589   0.625   2.986 -0.4208  0.0380  0.0812
   43CHL1  H11A 3143   4.532   0.720   2.993 -0.1544  0.2003  0.0613
   43CHL1  H11B 3144   4.696   0.650   2.969 -0.8259  2.0363  0.1894
   43CHL1    C9 3145   4.540   0.542   2.861 -0.0358  0.0866  0.4763
   43CHL1    H9 3146   4.596   0.446   2.860 -3.4559 -2.0679 -0.5013
   43CHL1   C10 3147   4.567   0.600   2.723 -0.4562  0.3586  0.4112
   43CHL1   C19 3148   4.491   0.737   2.719 -0.1838 -0.2147 -0.4845
   43CHL1  H19A 3149   4.536   0.791   2.805  1.7520 -2.2524 -0.1391
   43CHL1  H19B 3150   4.500   0.805   2.631 -3.5811 -2.0158 -2.4344
   43CHL1  H19C 3151   4.382   0.720   2.737 -0.2087 -0.7788 -1.1699
   43CHL1    C1 3152   4.719   0.616   2.704 -0.0704 -0.2099  0.0415
   43CHL1   H1A 3153   4.750   0.697   2.773 -1.1359 -0.7037  1.1334
   43CHL1   H1B 3154   4.769   0.523   2.739  0.8293  0.1046 -0.3812
   43CHL1    C2 3155   4.761   0.657   2.557 -0.1128  0.1904  0.1734
   43CHL1   H2A 3156   4.869   0.682   2.550 -0.1645  0.2352 -0.4620
   43CHL1   H2B 3157   4.714   0.757   2.546 -0.2087  0.3476  1.7217
   43CHL1   C20 3158   4.347   0.485   3.391 -0.2127  1.2874 -0.8256
   43CHL1   H20 3159   4.264   0.559   3.384 -0.5063  1.0387 -0.0322
   43CHL1   C21 3160   4.468   0.559   3.449  0.2258  0.2507  0.0511
   43CHL1  H21A 3161   4.515   0.631   3.380  0.3452  0.2007  0.0806
   43CHL1  H21B 3162   4.541   0.477   3.465  0.1208  0.3726  1.2581
   43CHL1  H21C 3163   4.461   0.613   3.546  2.7665 -0.9811  1.0006
   43CHL1   C22 3164   4.299   0.378   3.499  0.3674  0.0611  0.4266
   43CHL1  H22A 3165   4.195   0.350   3.473  1.0458 -2.3086  0.0720
   43CHL1  H22B 3166   4.357   0.284   3.483 -0.3658 -0.4013  0.4728
   43CHL1   C23 3167   4.298   0.421   3.645  0.3964  0.5239 -0.1730
   43CHL1  H23A 3168   4.397   0.442   3.691  0.5429  2.2385 -1.1555
   43CHL1  H23B 3169   4.232   0.510   3.653  1.4282  1.5479 -2.2267
   43CHL1   C24 3170   4.248   0.311   3.743 -0.0837  0.2944 -0.3621
   43CHL1  H24A 3171   4.137   0.312   3.743 -0.1506  2.2394  2.0395
   43CHL1  H24B 3172   4.284   0.210   3.717  0.1589  0.4674 -0.7097
   43CHL1   C25 3173   4.282   0.348   3.889 -0.5647  0.1884  0.2931
   43CHL1   H25 3174   4.391   0.369   3.900 -0.4713 -0.9889  2.0179
   43CHL1   C26 3175   4.202   0.466   3.943 -0.3325 -0.0004 -0.8763
   43CHL1  H26A 3176   4.236   0.502   4.042  1.5152  1.9988 -2.1349
   43CHL1  H26B 3177   4.221   0.553   3.877  1.5450 -0.5948 -1.1868
   43CHL1  H26C 3178   4.094   0.444   3.938 -0.1400 -1.5469  0.6587
   43CHL1   C27 3179   4.246   0.235   3.981 -0.1432 -0.7777 -0.0177
   43CHL1  H27A 3180   4.138   0.216   3.969  0.0154 -1.6867 -0.0995
   43CHL1  H27B 3181   4.295   0.142   3.943 -0.6924 -0.7505 -0.7937
   43CHL1  H27C 3182   4.266   0.258   4.088 -1.3413  5.1787 -0.7470
   44CHL1    C3 3183   6.894   5.489   2.789  0.4879 -0.0089 -0.1856
   44CHL1    H3 3184   6.798   5.445   2.822  1.2899 -1.7952 -0.1080
   44CHL1    O3 3185   6.921   5.449   2.659  0.4369  0.3914 -0.1004
   44CHL1   H3' 3186   6.922   5.353   2.653 -1.4260  0.3542 -0.6577
   44CHL1    C4 3187   6.891   5.646   2.810  0.2096  0.4020  0.3937
   44CHL1   H4A 3188   6.990   5.687   2.781  0.2201 -0.0118 -0.1856
   44CHL1   H4B 3189   6.814   5.694   2.745  1.1441 -1.5406 -2.3366
   44CHL1    C5 3190   6.872   5.688   2.947  0.1017 -0.0766 -0.5148
   44CHL1    C6 3191   6.759   5.746   2.988 -0.0690 -0.4667 -0.4141
   44CHL1    H6 3192   6.674   5.766   2.922 -1.8332  0.5624  2.0599
   44CHL1    C7 3193   6.744   5.792   3.130 -0.7042  0.2228 -0.5691
   44CHL1   H7A 3194   6.716   5.899   3.132 -0.0920  0.4869 -3.0194
   44CHL1   H7B 3195   6.663   5.729   3.174  1.3401  0.8473  4.8160
   44CHL1    C8 3196   6.873   5.785   3.220  0.4190  0.1131  0.9680
   44CHL1    H8 3197   6.931   5.873   3.185  0.8182 -0.0692  1.1711
   44CHL1   C14 3198   6.831   5.790   3.367 -0.3594  0.3764  0.5283
   44CHL1   H14 3199   6.767   5.700   3.376  0.1961 -0.0605  0.1390
   44CHL1   C15 3200   6.729   5.904   3.408 -0.2411 -0.1686  0.2654
   44CHL1  H15A 3201   6.767   6.006   3.387  1.6890 -0.7424  0.7153
   44CHL1  H15B 3202   6.629   5.893   3.361 -0.0053  0.6303 -0.4482
   44CHL1   C16 3203   6.734   5.890   3.564  0.1659  0.6070 -0.0071
   44CHL1  H16A 3204   6.754   5.994   3.598 -0.5343  1.1713 -1.2597
   44CHL1  H16B 3205   6.637   5.856   3.608 -0.2294 -1.6437 -2.3545
   44CHL1   C17 3206   6.839   5.784   3.602  0.3855  0.4291  0.1216
   44CHL1   H17 3207   6.772   5.696   3.606  0.3426  0.5002  1.3910
   44CHL1   C13 3208   6.929   5.765   3.474 -0.1723  0.2973 -0.7404
   44CHL1   C18 3209   7.027   5.883   3.468 -0.8052 -0.1110  0.5476
   44CHL1  H18A 3210   7.121   5.878   3.527 -0.5612  1.0504  0.2852
   44CHL1  H18B 3211   7.065   5.891   3.364 -1.4872  0.8876  0.3627
   44CHL1  H18C 3212   6.974   5.979   3.480  0.7179  0.7607  0.5991
   44CHL1   C12 3213   7.008   5.632   3.449 -0.3448 -0.2403  0.9039
   44CHL1  H12A 3214   7.099   5.628   3.513  1.2635 -0.7924 -1.3211
   44CHL1  H12B 3215   6.956   5.534   3.455  0.3365 -0.6269  0.5148
   44CHL1   C11 3216   7.060   5.629   3.303 -0.5437  0.4493  0.0362
   44CHL1  H11A 3217   7.134   5.711   3.288  1.0854 -0.7819  1.0378
   44CHL1  H11B 3218   7.108   5.531   3.283 -2.3609 -0.6284  0.7027
   44CHL1    C9 3219   6.947   5.658   3.194  0.3507  0.9300 -0.4003
   44CHL1    H9 3220   6.870   5.577   3.200  1.3684 -0.1256 -1.0891
   44CHL1   C10 3221   6.984   5.639   3.041 -0.4980 -0.0865  0.0514
   44CHL1   C19 3222   7.117   5.707   3.012  1.4494 -0.1478  0.0130
   44CHL1  H19A 3223   7.156   5.693   2.909  0.1298 -0.7411 -0.4228
   44CHL1  H19B 3224   7.100   5.813   3.041 -0.9495 -0.3867 -0.2874
   44CHL1  H19C 3225   7.200   5.683   3.082 -0.2415 -2.3545  1.4161
   44CHL1    C1 3226   7.004   5.486   3.023 -0.0827 -0.3757  0.2899
   44CHL1   H1A 3227   7.088   5.459   3.091 -1.2202  1.7612  2.6913
   44CHL1   H1B 3228   6.913   5.438   3.066 -0.5011  1.1895  1.2258
   44CHL1    C2 3229   7.010   5.439   2.874 -0.1043  0.2279 -0.4901
   44CHL1   H2A 3230   7.026   5.329   2.874  1.9578  0.4974 -0.1136
   44CHL1   H2B 3231   7.101   5.477   2.823  2.1306 -2.3851  1.2814
   44CHL1   C20 3232   6.902   5.795   3.740 -0.2646 -0.3729  0.6784
   44CHL1   H20 3233   6.984   5.870   3.738 -1.5786  1.2123  2.5290
   44CHL1   C21 3234   6.951   5.652   3.790 -0.3558 -0.4904  0.3681
   44CHL1  H21A 3235   6.871   5.577   3.773 -0.0532 -0.8064  0.3380
   44CHL1  H21B 3236   7.041   5.616   3.736 -1.4081 -0.0657 -1.7889
   44CHL1  H21C 3237   6.973   5.650   3.899 -0.2735  1.6231  0.4375
   44CHL1   C22 3238   6.812   5.865   3.845  0.2862 -0.0044 -0.4434
   44CHL1  H22A 3239   6.785   5.965   3.805  1.5959  0.6583  0.2687
   44CHL1  H22B 3240   6.716   5.809   3.850  0.1742  0.1409 -0.9226
   44CHL1   C23 3241   6.887   5.887   3.977 -0.2449  0.0375  0.4463
   44CHL1  H23A 3242   6.919   5.795   4.032  1.0318  0.2781  0.1349
   44CHL1  H23B 3243   6.978   5.943   3.949 -0.9072  2.0669  2.1417
   44CHL1   C24 3244   6.802   5.975   4.076  0.6890  0.0515  0.1715
   44CHL1  H24A 3245   6.876   6.042   4.127  0.1247 -1.3395  3.0124
   44CHL1  H24B 3246   6.725   6.030   4.017  0.9924 -0.4939 -0.7575
   44CHL1   C25 3247   6.723   5.909   4.187  0.1132  0.2613  0.2093
   44CHL1   H25 3248   6.800   5.852   4.244 -1.4828  0.1868  2.4340
   44CHL1   C26 3249   6.665   6.012   4.285 -0.0015  0.5023  0.4128
   44CHL1  H26A 3250   6.622   5.963   4.375  1.8704  1.5078  1.9309
   44CHL1  H26B 3251   6.741   6.092   4.303  1.0131 -0.4598  0.5234
   44CHL1  H26C 3252   6.578   6.056   4.233 -1.4334 -0.1272  2.1885
   44CHL1   C27 3253   6.626   5.800   4.136  0.1290  1.2015  0.0004
   44CHL1  H27A 3254   6.669   5.730   4.062  1.8176  0.6662  1.4347
   44CHL1  H27B 3255   6.579   5.732   4.211 -0.7867 -0.0568 -1.6499
   44CHL1  H27C 3256   6.540   5.842   4.079 -0.0266 -0.8423 -1.3499
   45CHL1    C3 3257   3.938   6.297   2.362  0.9388  0.1280  0.0876
   45CHL1    H3 3258   3.900   6.401   2.367 -0.4141 -0.3963  2.2071
   45CHL1    O3 3259   3.986   6.252   2.236  0.0986  0.7053 -0.2983
   45CHL1   H3' 3260   4.072   6.290   2.213  0.0898  0.1888 -1.2303
   45CHL1    C4 3261   4.043   6.288   2.469 -0.5781 -0.1476  0.0624
   45CHL1   H4A 3262   4.077   6.182   2.469  0.2477  0.0912  1.4994
   45CHL1   H4B 3263   4.125   6.360   2.450 -1.2024  0.2125 -1.4757
   45CHL1    C5 3264   4.007   6.298   2.611 -0.0959  0.3180 -0.1616
   45CHL1    C6 3265   4.079   6.380   2.690  1.1835 -0.1359 -0.1699
   45CHL1    H6 3266   4.162   6.437   2.647  1.2621  1.1654  1.6014
   45CHL1    C7 3267   4.050   6.403   2.837 -0.0971 -0.1174  0.3303
   45CHL1   H7A 3268   4.147   6.400   2.892  0.6930 -0.7780 -1.0508
   45CHL1   H7B 3269   3.999   6.499   2.859 -0.0967 -0.7572  3.6133
   45CHL1    C8 3270   3.956   6.284   2.890  0.2213 -0.2898  0.5064
   45CHL1    H8 3271   4.020   6.195   2.902 -0.1122 -0.4415  1.2086
   45CHL1   C14 3272   3.916   6.321   3.033  0.2470 -0.4702  0.5396
   45CHL1   H14 3273   3.845   6.404   3.010 -0.1212 -1.4410 -2.3502
   45CHL1   C15 3274   4.024   6.367   3.131  0.1702  0.6500 -0.0909
   45CHL1  H15A 3275   4.103   6.290   3.119 -0.9047 -0.6230  0.7886
   45CHL1  H15B 3276   4.054   6.470   3.099 -0.1501  0.5579 -0.7062
   45CHL1   C16 3277   3.968   6.350   3.270 -0.2158 -0.3536 -0.0804
   45CHL1  H16A 3278   4.017   6.278   3.338 -0.1093  0.0275  0.2530
   45CHL1  H16B 3279   3.953   6.446   3.324 -0.5158 -1.0294  1.0874
   45CHL1   C17 3280   3.826   6.281   3.244  0.0644  0.5634 -0.0259
   45CHL1   H17 3281   3.750   6.362   3.238 -0.1432  0.3780  0.1001
   45CHL1   C13 3282   3.835   6.214   3.100 -0.4759 -0.7701 -0.2205
   45CHL1   C18 3283   3.909   6.077   3.111  0.4254 -1.0528 -0.0115
   45CHL1  H18A 3284   3.847   6.005   3.169 -0.6871  1.0368  1.5870
   45CHL1  H18B 3285   3.931   6.043   3.008 -0.6753  2.1958 -1.4530
   45CHL1  H18C 3286   4.002   6.085   3.172 -0.0909 -1.0697  0.7960
   45CHL1   C12 3287   3.710   6.205   3.008  0.4338  0.2203 -0.1286
   45CHL1  H12A 3288   3.647   6.122   3.046  0.3637 -0.1403 -1.0051
   45CHL1  H12B 3289   3.649   6.297   3.005  0.5423  0.3566  1.1711
   45CHL1   C11 3290   3.743   6.164   2.864  0.5796  0.2558  0.0356
   45CHL1  H11A 3291   3.785   6.062   2.876  2.0625  0.7920 -0.4108
   45CHL1  H11B 3292   3.649   6.148   2.807  0.8384  0.4006 -0.4408
   45CHL1    C9 3293   3.837   6.263   2.805  0.4366  0.2716  0.4708
   45CHL1    H9 3294   3.787   6.361   2.791 -0.6828 -0.5756 -2.1213
   45CHL1   C10 3295   3.883   6.229   2.658  0.1180  0.6023  0.3956
   45CHL1   C19 3296   3.905   6.073   2.666  0.3889 -0.1791  0.0417
   45CHL1  H19A 3297   3.965   6.042   2.577  1.8541  2.7249 -0.1250
   45CHL1  H19B 3298   3.957   6.056   2.762 -1.7821 -0.3860  1.2293
   45CHL1  H19C 3299   3.810   6.016   2.665  1.0769 -1.3806 -1.8420
   45CHL1    C1 3300   3.773   6.259   2.548 -0.7393  0.4243 -0.5483
   45CHL1   H1A 3301   3.688   6.192   2.575  2.2828 -2.8099  1.7418
   45CHL1   H1B 3302   3.750   6.368   2.554  2.4751  1.1295  0.8659
   45CHL1    C2 3303   3.818   6.216   2.400 -0.2689 -0.6783 -0.5620
   45CHL1   H2A 3304   3.735   6.219   2.327 -1.7237  0.4143  1.0499
   45CHL1   H2B 3305   3.852   6.110   2.400 -1.1802 -0.9815 -1.3720
   45CHL1   C20 3306   3.778   6.185   3.355  0.6436 -0.4835 -0.2927
   45CHL1   H20 3307   3.846   6.097   3.364 -0.0890 -0.9945  0.4748
   45CHL1   C21 3308   3.631   6.138   3.320  0.5231 -0.1879  0.2043
   45CHL1  H21A 3309   3.629   6.057   3.243  2.3745  0.9410 -1.1282
   45CHL1  H21B 3310   3.572   6.223   3.279  1.7973  0.2095 -0.8774
   45CHL1  H21C 3311   3.574   6.102   3.408 -0.3133  1.1546  0.2324
   45CHL1   C22 3312   3.763   6.260   3.494  0.7570 -0.8351  0.9992
   45CHL1  H22A 3313   3.794   6.365   3.477 -1.1461 -0.0249  2.1505
   45CHL1  H22B 3314   3.655   6.264   3.521  0.0636 -1.7707 -1.4088
   45CHL1   C23 3315   3.843   6.192   3.598 -0.8467  0.4734  0.2727
   45CHL1  H23A 3316   3.793   6.096   3.622 -0.9430  0.5700  0.4551
   45CHL1  H23B 3317   3.942   6.154   3.563 -0.2165  2.3902 -0.1606
   45CHL1   C24 3318   3.857   6.278   3.720  0.0377  0.3511 -0.8268
   45CHL1  H24A 3319   3.908   6.374   3.695  0.0355  0.4990 -0.2796
   45CHL1  H24B 3320   3.755   6.303   3.757  0.2909  1.4160 -0.8017
   45CHL1   C25 3321   3.948   6.212   3.828  0.6032  0.4673 -0.1948
   45CHL1   H25 3322   3.886   6.122   3.850  0.4298  0.2092 -1.6580
   45CHL1   C26 3323   4.092   6.204   3.783 -0.4588  0.5877 -0.0820
   45CHL1  H26A 3324   4.107   6.158   3.682  1.2436  0.2457  0.2894
   45CHL1  H26B 3325   4.146   6.300   3.794 -1.0763  0.8020  1.1870
   45CHL1  H26C 3326   4.142   6.139   3.858 -1.5068  1.0084  1.0041
   45CHL1   C27 3327   3.956   6.284   3.962  0.0780 -0.1554  0.1200
   45CHL1  H27A 3328   3.974   6.393   3.950  2.0726 -0.6461 -2.0368
   45CHL1  H27B 3329   3.854   6.289   4.006 -0.9291  0.7870 -2.1565
   45CHL1  H27C 3330   4.028   6.239   4.033  0.6107  1.7369  0.8474
   46CHL1    C3 3331   4.318   6.897   2.579 -0.2806 -0.1353  0.4412
   46CHL1    H3 3332   4.269   6.993   2.605  3.1890  1.8535  0.2136
   46CHL1    O3 3333   4.355   6.894   2.443  0.0741  0.3503  0.8138
   46CHL1   H3' 3334   4.428   6.956   2.445 -0.0850  0.6199  4.0599
   46CHL1    C4 3335   4.446   6.877   2.669 -0.1558 -0.4552 -0.0492
   46CHL1   H4A 3336   4.491   6.781   2.636  0.3450  0.4351 -2.1126
   46CHL1   H4B 3337   4.519   6.958   2.645 -0.3755 -0.7520 -1.8808
   46CHL1    C5 3338   4.417   6.884   2.818 -0.2238 -0.3684  0.3000
   46CHL1    C6 3339   4.466   6.983   2.900  0.3362  0.5796  0.3611
   46CHL1    H6 3340   4.539   7.051   2.853  1.7759 -0.8638  0.4284
   46CHL1    C7 3341   4.437   6.997   3.048 -0.1213  0.2837 -0.3757
   46CHL1   H7A 3342   4.525   7.017   3.112 -0.2285  0.9668 -0.4396
   46CHL1   H7B 3343   4.368   7.083   3.060 -0.6202  0.0241 -1.2479
   46CHL1    C8 3344   4.370   6.869   3.099  0.2736 -0.0991 -0.2148
   46CHL1    H8 3345   4.441   6.785   3.115 -0.8122 -0.4128  4.5602
   46CHL1   C14 3346   4.309   6.901   3.233  0.2562 -0.2069 -0.2771
   46CHL1   H14 3347   4.239   6.986   3.220 -1.3416 -1.5154 -0.5354
   46CHL1   C15 3348   4.399   6.972   3.344  0.6379  1.0395  0.6360
   46CHL1  H15A 3349   4.492   6.911   3.357 -1.1410 -1.9707  0.1891
   46CHL1  H15B 3350   4.435   7.072   3.314  0.9272  0.3010 -1.6863
   46CHL1   C16 3351   4.312   6.958   3.463 -0.4813 -0.1861  0.0702
   46CHL1  H16A 3352   4.379   6.904   3.533  0.8627  0.0797 -0.9698
   46CHL1  H16B 3353   4.298   7.062   3.501  1.3146  1.2594 -2.8789
   46CHL1   C17 3354   4.189   6.875   3.429  0.9381 -1.0239 -0.7703
   46CHL1   H17 3355   4.113   6.950   3.398  1.4279  0.1212  0.6617
   46CHL1   C13 3356   4.225   6.795   3.302  0.2211 -0.3750  0.5228
   46CHL1   C18 3357   4.307   6.675   3.334  0.3288 -0.0259  0.0541
   46CHL1  H18A 3358   4.357   6.624   3.248  0.1132 -1.0449  0.5183
   46CHL1  H18B 3359   4.397   6.699   3.395  0.6358 -1.2884  0.1400
   46CHL1  H18C 3360   4.249   6.599   3.390 -1.2492 -0.6814 -2.3061
   46CHL1   C12 3361   4.118   6.747   3.194  0.3834  0.6380 -0.3907
   46CHL1  H12A 3362   4.069   6.657   3.237  0.0470  1.0215  0.0352
   46CHL1  H12B 3363   4.040   6.824   3.181  0.8938  0.8236 -2.7699
   46CHL1   C11 3364   4.183   6.709   3.059  0.2094  0.4060  1.1147
   46CHL1  H11A 3365   4.253   6.627   3.084 -0.6144 -0.2519  1.3212
   46CHL1  H11B 3366   4.103   6.671   2.991 -0.3574  1.4340  1.1705
   46CHL1    C9 3367   4.262   6.820   2.996 -0.3886 -0.4164 -0.0061
   46CHL1    H9 3368   4.198   6.911   2.995  1.8410  1.2399 -0.1961
   46CHL1   C10 3369   4.309   6.787   2.849 -1.0094  0.0417  0.0260
   46CHL1   C19 3370   4.361   6.644   2.857 -0.1551  1.1625  0.5988
   46CHL1  H19A 3371   4.412   6.629   2.955  1.8588 -0.2759 -0.6237
   46CHL1  H19B 3372   4.281   6.568   2.848  0.0902  0.9601  0.1215
   46CHL1  H19C 3373   4.428   6.614   2.774 -1.0567  0.2982  0.1651
   46CHL1    C1 3374   4.188   6.795   2.756  0.0523  0.1992  0.3736
   46CHL1   H1A 3375   4.135   6.698   2.763 -0.5564  0.3138 -1.9101
   46CHL1   H1B 3376   4.118   6.878   2.781  0.2555  0.5415 -0.1720
   46CHL1    C2 3377   4.208   6.799   2.609  0.3793  0.4488 -0.1136
   46CHL1   H2A 3378   4.109   6.821   2.561 -0.5972 -0.0949  1.5836
   46CHL1   H2B 3379   4.247   6.700   2.577  0.4191  0.1386  0.8735
   46CHL1   C20 3380   4.130   6.803   3.543  0.1774  0.2837 -0.5411
   46CHL1   H20 3381   4.209   6.729   3.569 -0.1800 -0.5900 -1.8487
   46CHL1   C21 3382   4.002   6.725   3.506 -0.2870  0.1163 -0.1536
   46CHL1  H21A 3383   4.016   6.637   3.439 -0.1213  0.1029 -0.1014
   46CHL1  H21B 3384   3.929   6.791   3.453 -2.4721 -2.7829 -1.0377
   46CHL1  H21C 3385   3.949   6.684   3.595 -1.5649  2.4984  0.2591
   46CHL1   C22 3386   4.101   6.909   3.662  0.0830 -0.0381 -0.5353
   46CHL1  H22A 3387   4.203   6.948   3.685  0.0447  0.3770 -1.0524
   46CHL1  H22B 3388   4.041   7.000   3.638  0.4768  0.3319 -0.1502
   46CHL1   C23 3389   4.032   6.843   3.784 -0.2029  0.1898  0.8605
   46CHL1  H23A 3390   3.923   6.831   3.769 -0.3070  0.5146  1.3269
   46CHL1  H23B 3391   4.073   6.740   3.789  2.4811  1.2067  1.2502
   46CHL1   C24 3392   4.062   6.907   3.919  0.0129  0.1851  0.1897
   46CHL1  H24A 3393   4.166   6.903   3.957  0.8727  0.8057 -1.9682
   46CHL1  H24B 3394   4.036   7.015   3.920  3.0977  1.0178  0.3693
   46CHL1   C25 3395   3.966   6.851   4.030  0.1456  0.0106  0.4068
   46CHL1   H25 3396   3.867   6.891   4.000  0.2001 -0.0371  0.1659
   46CHL1   C26 3397   3.964   6.699   4.028 -0.3057  0.2735 -0.1185
   46CHL1  H26A 3398   3.913   6.658   4.118  1.5931  2.1165  1.9314
   46CHL1  H26B 3399   3.917   6.664   3.934  2.5908  0.2071 -1.6348
   46CHL1  H26C 3400   4.071   6.669   4.036 -0.7753 -0.9383  3.0287
   46CHL1   C27 3401   4.002   6.906   4.173 -0.1163 -0.1129 -0.5248
   46CHL1  H27A 3402   3.983   7.014   4.163 -1.8154 -0.3792 -0.4327
   46CHL1  H27B 3403   3.937   6.862   4.252  1.5819 -1.3963  0.2309
   46CHL1  H27C 3404   4.108   6.882   4.198  0.0505  0.7741 -0.3681
   47CHL1    C3 3405   6.902   0.699   2.412  0.4589 -0.8084  0.0644
   47CHL1    H3 3406   6.804   0.657   2.443  0.4903 -1.4429 -0.6972
   47CHL1    O3 3407   6.910   0.693   2.270 -0.1331  0.3491  0.0531
   47CHL1   H3' 3408   7.000   0.693   2.238 -0.1308  0.4290  0.0583
   47CHL1    C4 3409   6.889   0.845   2.448 -0.1602 -0.4418  0.2900
   47CHL1   H4A 3410   6.961   0.913   2.398 -0.6203 -0.7428 -0.8054
   47CHL1   H4B 3411   6.791   0.879   2.408  0.2595  0.0125 -0.3670
   47CHL1    C5 3412   6.891   0.867   2.600 -0.1590  0.2703 -0.0648
   47CHL1    C6 3413   6.807   0.948   2.661  0.7033 -0.5802 -0.1478
   47CHL1    H6 3414   6.734   1.009   2.606  0.3790  0.2766  1.1601
   47CHL1    C7 3415   6.808   0.964   2.813 -0.9056  0.3045  0.5431
   47CHL1   H7A 3416   6.793   1.069   2.847 -2.4663  0.9399 -1.8569
   47CHL1   H7B 3417   6.724   0.906   2.856 -1.6422 -0.2163 -1.5056
   47CHL1    C8 3418   6.926   0.897   2.891  0.1689 -0.3123 -0.2060
   47CHL1    H8 3419   7.011   0.968   2.897 -0.0328 -0.0380 -0.5281
   47CHL1   C14 3420   6.887   0.865   3.036  0.1201 -0.3393 -0.0504
   47CHL1   H14 3421   6.799   0.798   3.042  1.1251 -1.6609  0.2082
   47CHL1   C15 3422   6.836   0.987   3.123  0.4787 -0.4967 -0.0964
   47CHL1  H15A 3423   6.908   1.071   3.122  2.5287 -2.1299  1.2654
   47CHL1  H15B 3424   6.738   1.023   3.086  0.1439 -1.8220 -0.5598
   47CHL1   C16 3425   6.835   0.930   3.271 -0.9675  0.3644  0.0480
   47CHL1  H16A 3426   6.887   1.007   3.333  1.2743 -2.0893  1.4395
   47CHL1  H16B 3427   6.730   0.909   3.300 -1.0394  0.4618 -0.1397
   47CHL1   C17 3428   6.915   0.795   3.256 -0.4940 -0.5871  0.2621
   47CHL1   H17 3429   6.838   0.715   3.251 -0.2933 -0.8451  1.1129
   47CHL1   C13 3430   6.992   0.795   3.120  0.2287  1.3233  0.5322
   47CHL1   C18 3431   7.116   0.884   3.126 -0.4822  0.7696 -0.4493
   47CHL1  H18A 3432   7.204   0.841   3.179 -0.3597  1.4241 -0.1084
   47CHL1  H18B 3433   7.163   0.914   3.029 -1.4180  0.6347 -0.9486
   47CHL1  H18C 3434   7.081   0.973   3.183 -0.6670  0.4059  0.0078
   47CHL1   C12 3435   7.023   0.663   3.053 -0.6321 -0.2004 -0.1456
   47CHL1  H12A 3436   7.116   0.617   3.091 -0.7438  0.9104  1.5555
   47CHL1  H12B 3437   6.941   0.589   3.068 -0.1631 -1.1140 -1.7734
   47CHL1   C11 3438   7.062   0.687   2.904 -0.1478 -0.2466  0.1342
   47CHL1  H11A 3439   7.160   0.738   2.908 -0.4040  0.2961 -0.4337
   47CHL1  H11B 3440   7.087   0.585   2.867  4.4279  0.3860  0.9326
   47CHL1    C9 3441   6.957   0.767   2.824 -0.3970 -0.1595  0.1989
   47CHL1    H9 3442   6.864   0.706   2.827 -1.9940  2.0597 -0.5329
   47CHL1   C10 3443   6.994   0.781   2.672  0.1264  0.0931 -0.4404
   47CHL1   C19 3444   7.131   0.845   2.655  0.4062  0.6078 -0.3221
   47CHL1  H19A 3445   7.127   0.947   2.699 -1.8183 -0.4251  2.1131
   47CHL1  H19B 3446   7.215   0.786   2.698  1.1290  2.5901  1.1704
   47CHL1  H19C 3447   7.161   0.851   2.548 -1.5127 -0.2754 -0.9448
   47CHL1    C1 3448   6.997   0.633   2.627 -0.6053 -0.2996  0.0297
   47CHL1   H1A 3449   7.085   0.582   2.673 -0.2696  1.8277  1.8978
   47CHL1   H1B 3450   6.904   0.580   2.658 -0.6397 -0.6890 -0.7278
   47CHL1    C2 3451   7.013   0.626   2.471  0.0964  0.6770  0.9614
   47CHL1   H2A 3452   6.999   0.519   2.443  0.0320  1.3710 -1.8574
   47CHL1   H2B 3453   7.116   0.653   2.440 -0.5709  1.0037 -1.0696
   47CHL1   C20 3454   6.996   0.771   3.387 -0.3185 -0.4493  0.4047
   47CHL1   H20 3455   7.086   0.836   3.390 -0.1315 -0.5486 -1.5224
   47CHL1   C21 3456   7.041   0.627   3.374 -0.0360 -0.5149 -0.0851
   47CHL1  H21A 3457   7.127   0.630   3.305 -0.6307  3.5107 -0.9152
   47CHL1  H21B 3458   6.967   0.564   3.320 -0.3517  0.2779 -0.5945
   47CHL1  H21C 3459   7.055   0.571   3.469 -1.2188 -0.1219  0.3425
   47CHL1   C22 3460   6.921   0.790   3.523 -0.2499 -0.2035 -1.1341
   47CHL1  H22A 3461   6.997   0.760   3.599 -1.8497 -0.9111  0.2320
   47CHL1  H22B 3462   6.886   0.894   3.541 -1.4849 -0.6149 -1.1135
   47CHL1   C23 3463   6.804   0.700   3.545  0.2449 -0.1561 -0.8278
   47CHL1  H23A 3464   6.719   0.735   3.482  1.1199  1.3054 -1.2310
   47CHL1  H23B 3465   6.817   0.593   3.519 -0.3690 -0.0304 -1.7229
   47CHL1   C24 3466   6.763   0.709   3.696 -0.0835 -0.5608 -0.2018
   47CHL1  H24A 3467   6.852   0.687   3.759  0.5569  0.5231 -0.6939
   47CHL1  H24B 3468   6.733   0.814   3.718  0.0796 -0.4930 -0.2915
   47CHL1   C25 3469   6.653   0.609   3.738  0.2321 -0.4271 -0.5258
   47CHL1   H25 3470   6.684   0.511   3.696  1.7544  0.4578 -1.5732
   47CHL1   C26 3471   6.632   0.601   3.889  0.2064 -0.2788  0.2299
   47CHL1  H26A 3472   6.727   0.560   3.930 -0.4309  0.5981  2.7927
   47CHL1  H26B 3473   6.607   0.692   3.948 -2.2012  0.7797 -2.2097
   47CHL1  H26C 3474   6.567   0.518   3.926  0.9937 -1.3483 -0.7382
   47CHL1   C27 3475   6.519   0.637   3.678 -0.0180  0.5225 -0.3232
   47CHL1  H27A 3476   6.477   0.731   3.719  1.4129  0.6212  0.9927
   47CHL1  H27B 3477   6.528   0.632   3.567  0.2308 -1.9332 -0.2470
   47CHL1  H27C 3478   6.454   0.555   3.716 -0.9383  0.9702 -0.9110
   48CHL1    C3 3479   1.998   0.271   2.556 -0.3738  0.0339  0.0324
   48CHL1    H3 3480   2.092   0.214   2.572  0.2023  0.6612 -1.0444
   48CHL1    O3 3481   1.994   0.290   2.418  0.0145 -0.0470 -0.2573
   48CHL1   H3' 3482   1.910   0.336   2.409 -0.2684 -0.1581  1.4652
   48CHL1    C4 3483   1.876   0.184   2.596  0.3321  0.5139 -0.9812
   48CHL1   H4A 3484   1.784   0.242   2.575  0.4290  0.4315 -1.6264
   48CHL1   H4B 3485   1.879   0.084   2.549  0.9713 -1.7733  3.3559
   48CHL1    C5 3486   1.883   0.159   2.744 -0.3634 -0.0205 -0.1939
   48CHL1    C6 3487   1.888   0.036   2.794  0.3256 -0.3374 -0.0790
   48CHL1    H6 3488   1.887  -0.051   2.727 -1.1099 -1.1172  0.9143
   48CHL1    C7 3489   1.867   0.001   2.942 -0.5683 -0.3194  0.0362
   48CHL1   H7A 3490   1.808  -0.093   2.942  0.2155 -0.8419 -1.3256
   48CHL1   H7B 3491   1.969  -0.028   2.978 -0.7814  0.8381  1.7152
   48CHL1    C8 3492   1.823   0.120   3.031  0.1679  0.8009  0.2265
   48CHL1    H8 3493   1.717   0.145   3.009 -0.2947 -1.2326 -0.0466
   48CHL1   C14 3494   1.846   0.099   3.183  0.2760 -0.8496  0.8696
   48CHL1   H14 3495   1.954   0.081   3.200  0.2072 -2.1141  0.0909
   48CHL1   C15 3496   1.772  -0.026   3.232 -0.2987  0.1559  0.0709
   48CHL1  H15A 3497   1.671  -0.026   3.185 -0.7117  1.5196  0.9243
   48CHL1  H15B 3498   1.837  -0.114   3.207  2.3786  1.6110  1.4733
   48CHL1   C16 3499   1.780  -0.016   3.384  0.2596 -0.3844 -0.1808
   48CHL1  H16A 3500   1.679  -0.039   3.425  0.3794  0.5565  0.6955
   48CHL1  H16B 3501   1.855  -0.085   3.427 -0.2478 -0.8934 -0.0945
   48CHL1   C17 3502   1.832   0.135   3.413  0.0635  0.4577 -1.2125
   48CHL1   H17 3503   1.941   0.134   3.436 -0.2414  0.8316  0.3536
   48CHL1   C13 3504   1.819   0.216   3.279  0.1432  0.3063  0.4355
   48CHL1   C18 3505   1.667   0.259   3.256  0.0888 -0.3047  0.0577
   48CHL1  H18A 3506   1.596   0.175   3.272  0.5452 -0.8980 -0.9045
   48CHL1  H18B 3507   1.623   0.338   3.320 -2.2754 -1.3593 -0.1410
   48CHL1  H18C 3508   1.648   0.289   3.150  1.2570 -0.7506 -0.3007
   48CHL1   C12 3509   1.925   0.323   3.238 -0.2590  0.7577 -0.4113
   48CHL1  H12A 3510   1.902   0.410   3.303  3.0041  2.0098 -0.7003
   48CHL1  H12B 3511   2.028   0.288   3.260 -1.3069 -0.4735  3.1009
   48CHL1   C11 3512   1.901   0.359   3.088  0.3095  0.5761  0.4385
   48CHL1  H11A 3513   1.808   0.421   3.086 -0.0928 -0.0150  0.4454
   48CHL1  H11B 3514   1.980   0.425   3.048 -1.5691  1.7877 -1.5393
   48CHL1    C9 3515   1.909   0.241   2.988  0.1683  0.3997 -0.0909
   48CHL1    H9 3516   2.017   0.213   2.996  0.7616  2.1760 -1.3833
   48CHL1   C10 3517   1.886   0.285   2.842 -0.3914  0.7826  0.3696
   48CHL1   C19 3518   1.743   0.346   2.827  0.3572 -0.1127 -0.1742
   48CHL1  H19A 3519   1.714   0.435   2.888 -0.3198  0.8618 -1.8528
   48CHL1  H19B 3520   1.731   0.384   2.724 -1.0137 -0.0533 -0.0036
   48CHL1  H19C 3521   1.668   0.266   2.844  1.4009 -1.0524  0.1603
   48CHL1    C1 3522   1.992   0.384   2.784  0.3150 -0.1640  0.0541
   48CHL1   H1A 3523   1.975   0.483   2.832  2.1723 -0.2833  1.0373
   48CHL1   H1B 3524   2.093   0.346   2.812  1.2265  2.0983  0.0334
   48CHL1    C2 3525   1.996   0.399   2.632 -0.4180 -0.8936 -0.9939
   48CHL1   H2A 3526   2.088   0.450   2.595 -0.7635  0.6797  0.2180
   48CHL1   H2B 3527   1.910   0.461   2.599 -1.7512 -0.7918  2.3329
   48CHL1   C20 3528   1.759   0.199   3.534  0.2814  0.0217  0.5510
   48CHL1   H20 3529   1.652   0.183   3.510  0.7946 -0.2664 -1.7850
   48CHL1   C21 3530   1.790   0.346   3.550 -0.2374 -0.5004  0.2185
   48CHL1  H21A 3531   1.742   0.405   3.469 -0.0589  0.8718  1.0803
   48CHL1  H21B 3532   1.900   0.362   3.552 -0.1181 -1.2775  0.2517
   48CHL1  H21C 3533   1.756   0.388   3.647 -0.9775 -2.6179  0.9383
   48CHL1   C22 3534   1.771   0.133   3.674  0.4767 -0.7988  0.3639
   48CHL1  H22A 3535   1.720   0.205   3.741 -0.4768  0.7246 -1.8574
   48CHL1  H22B 3536   1.711   0.039   3.672 -0.0801 -0.4452  0.0724
   48CHL1   C23 3537   1.912   0.112   3.724  1.0587  0.6411  0.2979
   48CHL1  H23A 3538   1.934   0.007   3.694 -3.2577 -0.3306 -0.1895
   48CHL1  H23B 3539   1.989   0.185   3.693  0.4827  0.7515 -0.9381
   48CHL1   C24 3540   1.908   0.103   3.880 -0.7015 -0.5278 -0.5586
   48CHL1  H24A 3541   1.892   0.204   3.924 -1.4886  0.0560 -2.0951
   48CHL1  H24B 3542   1.825   0.040   3.918 -0.8123  0.4557  0.9158
   48CHL1   C25 3543   2.038   0.037   3.942  0.2727 -0.9401 -0.3654
   48CHL1   H25 3544   2.067  -0.055   3.888  1.5844  0.1671 -1.6492
   48CHL1   C26 3545   2.158   0.133   3.920 -0.2914 -0.0537  0.3651
   48CHL1  H26A 3546   2.135   0.232   3.965  0.1203 -1.1164  3.0905
   48CHL1  H26B 3547   2.249   0.093   3.970  0.3581 -1.0700 -1.5193
   48CHL1  H26C 3548   2.190   0.137   3.814  2.3941  2.5824  1.1387
   48CHL1   C27 3549   2.020   0.015   4.090 -0.0020  0.2600 -0.2349
   48CHL1  H27A 3550   1.972  -0.084   4.105 -0.6622  0.8414  1.8388
   48CHL1  H27B 3551   2.116   0.011   4.145 -0.4023  2.2500  0.6878
   48CHL1  H27C 3552   1.951   0.094   4.126  0.2674 -0.1033  1.1135
   49CHL1    C3 3553   6.854   4.610   2.681 -0.0924 -0.0652 -0.5156
   49CHL1    H3 3554   6.850   4.720   2.665 -0.1331 -0.2933 -2.2361
   49CHL1    O3 3555   6.920   4.564   2.563 -0.2323 -0.7385  0.0153
   49CHL1   H3' 3556   6.886   4.475   2.555  0.0604 -0.7687 -1.0450
   49CHL1    C4 3557   6.943   4.570   2.805 -0.2088  0.0649 -0.3847
   49CHL1   H4A 3558   6.978   4.465   2.792  0.7540  0.4916 -1.3529
   49CHL1   H4B 3559   7.031   4.636   2.792 -0.2062  0.1717  0.1708
   49CHL1    C5 3560   6.867   4.597   2.933 -1.3087 -0.4596  0.3667
   49CHL1    C6 3561   6.925   4.671   3.032 -0.2186  0.6045 -0.0815
   49CHL1    H6 3562   7.026   4.711   3.019  1.0596 -2.5067 -0.6890
   49CHL1    C7 3563   6.854   4.693   3.167 -0.0199 -0.3585  0.5312
   49CHL1   H7A 3564   6.928   4.669   3.246 -0.0330  1.6241  1.2010
   49CHL1   H7B 3565   6.832   4.801   3.181 -1.2702 -0.7247  1.7026
   49CHL1    C8 3566   6.716   4.610   3.179  0.8000 -0.3942 -0.3451
   49CHL1    H8 3567   6.750   4.511   3.215 -0.5764 -0.8271 -0.1768
   49CHL1   C14 3568   6.633   4.670   3.293  0.0243  1.1692 -0.1122
   49CHL1   H14 3569   6.592   4.764   3.251  0.6146 -0.3114 -4.5837
   49CHL1   C15 3570   6.699   4.698   3.423 -0.5861  0.8522 -0.3316
   49CHL1  H15A 3571   6.767   4.612   3.444  0.0180  1.3359 -0.2590
   49CHL1  H15B 3572   6.760   4.791   3.418  2.6082 -0.9819  1.3072
   49CHL1   C16 3573   6.589   4.707   3.523 -0.0288 -0.0318 -0.9730
   49CHL1  H16A 3574   6.599   4.633   3.606  0.7998 -0.5606 -1.5338
   49CHL1  H16B 3575   6.587   4.810   3.564 -0.0103  0.0656 -1.2169
   49CHL1   C17 3576   6.454   4.672   3.446  0.0263  0.1872  0.5871
   49CHL1   H17 3577   6.400   4.760   3.406  0.5355 -1.2211 -3.6542
   49CHL1   C13 3578   6.505   4.591   3.321 -0.1459  0.0347 -0.3269
   49CHL1   C18 3579   6.540   4.450   3.368 -0.7426  0.1453  0.2207
   49CHL1  H18A 3580   6.448   4.390   3.380 -2.1864  2.1080 -0.4899
   49CHL1  H18B 3581   6.602   4.395   3.295 -3.0000 -0.5247 -1.2938
   49CHL1  H18C 3582   6.591   4.451   3.466 -1.8018 -1.7039  0.8330
   49CHL1   C12 3583   6.420   4.598   3.187  0.2041  0.9518  0.5338
   49CHL1  H12A 3584   6.319   4.553   3.196 -0.5143  2.6405  1.3270
   49CHL1  H12B 3585   6.401   4.706   3.171 -0.4481  0.6452 -0.8670
   49CHL1   C11 3586   6.491   4.541   3.067  0.4014  0.7064  0.0456
   49CHL1  H11A 3587   6.502   4.433   3.091  0.1451  0.2954 -1.5728
   49CHL1  H11B 3588   6.422   4.567   2.983 -0.5784  2.1549  1.2393
   49CHL1    C9 3589   6.638   4.598   3.051 -0.1868 -0.5213 -0.2912
   49CHL1    H9 3590   6.625   4.707   3.030 -0.7685 -0.6020 -0.3533
   49CHL1   C10 3591   6.716   4.543   2.928 -0.1671  0.5443  0.3464
   49CHL1   C19 3592   6.715   4.392   2.934  0.3665 -0.0125 -0.1891
   49CHL1  H19A 3593   6.608   4.365   2.921 -0.2075  2.7296 -1.7890
   49CHL1  H19B 3594   6.781   4.341   2.861  1.3886  1.0994 -0.0785
   49CHL1  H19C 3595   6.740   4.354   3.036  2.3583 -1.1638 -1.0549
   49CHL1    C1 3596   6.637   4.594   2.806 -0.7447 -0.0845 -0.5322
   49CHL1   H1A 3597   6.534   4.553   2.816 -1.2534  0.6782 -2.2617
   49CHL1   H1B 3598   6.627   4.704   2.819 -1.5945 -0.3801  1.9089
   49CHL1    C2 3599   6.710   4.558   2.676  0.6868  0.1178 -0.2237
   49CHL1   H2A 3600   6.662   4.616   2.595  0.2783 -0.8008 -0.6580
   49CHL1   H2B 3601   6.695   4.451   2.649  0.0701 -0.5168  2.2640
   49CHL1   C20 3602   6.349   4.615   3.544  0.7478  0.9505 -0.1008
   49CHL1   H20 3603   6.384   4.521   3.592  0.0641  1.2006  0.9424
   49CHL1   C21 3604   6.229   4.560   3.456 -0.5573 -0.0040  0.3337
   49CHL1  H21A 3605   6.180   4.644   3.402 -1.0820  0.6804  1.8182
   49CHL1  H21B 3606   6.147   4.516   3.516 -0.4506 -0.9734 -0.2006
   49CHL1  H21C 3607   6.259   4.478   3.387 -3.3984 -0.7653 -0.1036
   49CHL1   C22 3608   6.305   4.711   3.658 -0.2851  0.2208  0.9255
   49CHL1  H22A 3609   6.386   4.783   3.681 -0.8157  0.5981  1.6491
   49CHL1  H22B 3610   6.218   4.763   3.612 -0.3516 -0.8849 -0.2774
   49CHL1   C23 3611   6.280   4.647   3.795 -0.3330  0.2783 -0.4533
   49CHL1  H23A 3612   6.182   4.594   3.791  0.1910 -0.7859  0.3174
   49CHL1  H23B 3613   6.347   4.563   3.822 -0.4842  0.8003  1.6674
   49CHL1   C24 3614   6.284   4.751   3.902  0.1808 -0.0107  0.6892
   49CHL1  H24A 3615   6.369   4.819   3.881 -0.2470  1.1815  2.5464
   49CHL1  H24B 3616   6.195   4.818   3.894 -0.9678 -1.5584 -0.0072
   49CHL1   C25 3617   6.299   4.692   4.048 -0.0694  0.0138  0.2092
   49CHL1   H25 3618   6.396   4.639   4.054  0.9002  1.6600 -0.0336
   49CHL1   C26 3619   6.312   4.803   4.161  0.0515 -0.1435  0.6480
   49CHL1  H26A 3620   6.211   4.848   4.172  0.0313 -0.0737  0.2047
   49CHL1  H26B 3621   6.343   4.755   4.256 -1.3374 -2.8469 -0.1467
   49CHL1  H26C 3622   6.393   4.873   4.132 -0.1898 -0.1476 -0.0741
   49CHL1   C27 3623   6.174   4.606   4.087 -0.7939  0.7156  0.4028
   49CHL1  H27A 3624   6.177   4.560   4.188  0.4813  1.2797  0.6466
   49CHL1  H27B 3625   6.084   4.669   4.071  0.3215  2.0019 -1.0987
   49CHL1  H27C 3626   6.164   4.531   4.006 -0.4593 -0.3591  1.3306
   50CHL1    C3 3627   5.233   6.073   2.516  0.1200  0.4728 -0.2118
   50CHL1    H3 3628   5.148   6.009   2.484 -0.3828  0.1565  1.6170
   50CHL1    O3 3629   5.300   6.120   2.399  0.0122 -0.0116 -0.1620
   50CHL1   H3' 3630   5.341   6.043   2.360 -1.5563  0.6004 -3.3025
   50CHL1    C4 3631   5.170   6.193   2.587  0.1092 -0.4421 -0.3405
   50CHL1   H4A 3632   5.238   6.278   2.608  0.5511 -0.7228 -0.6106
   50CHL1   H4B 3633   5.094   6.241   2.521  2.1218  2.2279 -0.8856
   50CHL1    C5 3634   5.107   6.163   2.722  0.4260 -0.4081 -0.1416
   50CHL1    C6 3635   4.982   6.205   2.749 -0.4893 -0.3597  0.8564
   50CHL1    H6 3636   4.918   6.257   2.677  1.8884  0.9946 -0.4033
   50CHL1    C7 3637   4.928   6.186   2.887  1.0931  0.3081  0.1264
   50CHL1   H7A 3638   4.876   6.281   2.912  0.4362  0.1754 -0.6942
   50CHL1   H7B 3639   4.853   6.104   2.881 -0.1855  1.2688  2.0392
   50CHL1    C8 3640   5.023   6.146   2.998  0.5643 -0.0419  0.2057
   50CHL1    H8 3641   5.071   6.240   3.032  1.0778  0.3883 -1.6085
   50CHL1   C14 3642   4.936   6.081   3.114 -0.2896  0.8107 -0.2388
   50CHL1   H14 3643   4.892   5.989   3.069  2.6959 -0.6244 -0.4191
   50CHL1   C15 3644   4.811   6.157   3.172 -0.0843 -0.2282  0.1923
   50CHL1  H15A 3645   4.837   6.265   3.181 -1.6547  0.1368  0.5329
   50CHL1  H15B 3646   4.729   6.138   3.100 -0.2461  1.6989 -0.1930
   50CHL1   C16 3647   4.784   6.085   3.308  0.3571 -0.1719  0.1800
   50CHL1  H16A 3648   4.772   6.159   3.390  0.4144 -0.4340  0.4269
   50CHL1  H16B 3649   4.699   6.015   3.295  0.2963 -0.2794  1.0586
   50CHL1   C17 3650   4.902   5.988   3.330 -0.1422 -0.3760 -0.3116
   50CHL1   H17 3651   4.873   5.885   3.300  0.2984 -0.0503 -1.9742
   50CHL1   C13 3652   5.010   6.045   3.240 -0.6814  0.0021  0.5185
   50CHL1   C18 3653   5.080   6.167   3.303 -0.0498  0.6250 -0.3150
   50CHL1  H18A 3654   5.020   6.260   3.292 -1.0054  0.1299  0.5910
   50CHL1  H18B 3655   5.109   6.158   3.410 -1.4330 -0.9128 -0.0289
   50CHL1  H18C 3656   5.174   6.187   3.247 -0.3708 -2.6384 -2.2567
   50CHL1   C12 3657   5.119   5.939   3.180 -0.7707  0.0824 -0.1444
   50CHL1  H12A 3658   5.193   5.924   3.261 -0.6034  1.6551  0.0069
   50CHL1  H12B 3659   5.055   5.856   3.142 -0.8448  1.0693 -2.3155
   50CHL1   C11 3660   5.213   5.988   3.063  0.0634  0.4434  0.5878
   50CHL1  H11A 3661   5.275   6.069   3.108  0.1782 -0.0405  1.3140
   50CHL1  H11B 3662   5.274   5.906   3.022 -0.2765  1.7510 -2.8243
   50CHL1    C9 3663   5.122   6.035   2.954  1.0147  0.1081 -0.2646
   50CHL1    H9 3664   5.056   5.952   2.919 -0.8868  1.1371  0.7161
   50CHL1   C10 3665   5.193   6.092   2.827 -0.8114  0.2562  0.3647
   50CHL1   C19 3666   5.315   6.176   2.870  0.5079 -0.6614 -0.5359
   50CHL1  H19A 3667   5.369   6.235   2.793  0.4208  0.8046  0.4894
   50CHL1  H19B 3668   5.282   6.253   2.943  1.8947 -0.4279 -0.1112
   50CHL1  H19C 3669   5.389   6.106   2.915 -2.5448 -2.6988  1.6783
   50CHL1    C1 3670   5.238   5.969   2.738  0.0043  0.3116 -0.3973
   50CHL1   H1A 3671   5.292   5.895   2.802 -4.1245 -3.7580 -1.0684
   50CHL1   H1B 3672   5.142   5.923   2.706 -0.7559  2.0127 -0.6571
   50CHL1    C2 3673   5.321   5.985   2.609 -0.6353  0.5102  0.6131
   50CHL1   H2A 3674   5.351   5.890   2.560 -0.8769  1.6711 -1.9331
   50CHL1   H2B 3675   5.412   6.050   2.614 -0.3859  0.4158 -1.8699
   50CHL1   C20 3676   4.934   5.977   3.486  0.2507  0.3517 -0.3925
   50CHL1   H20 3677   4.934   6.081   3.526 -2.6659  0.3325 -0.0851
   50CHL1   C21 3678   5.065   5.899   3.505  0.5717 -0.2928 -0.4708
   50CHL1  H21A 3679   5.081   5.881   3.614 -1.0389 -1.0971 -0.3300
   50CHL1  H21B 3680   5.153   5.948   3.459 -0.6174 -0.1430 -2.6971
   50CHL1  H21C 3681   5.050   5.804   3.450 -1.9722 -0.4313  0.3255
   50CHL1   C22 3682   4.810   5.909   3.565 -0.2196 -0.4925  0.1289
   50CHL1  H22A 3683   4.712   5.959   3.550 -0.4274 -0.6700  0.8820
   50CHL1  H22B 3684   4.805   5.803   3.532 -1.0682 -1.0900  2.0811
   50CHL1   C23 3685   4.834   5.901   3.720  0.5199 -0.7540  0.1615
   50CHL1  H23A 3686   4.742   5.849   3.753 -0.5799  0.0221 -1.5375
   50CHL1  H23B 3687   4.926   5.847   3.750  1.5395  0.4037 -0.7623
   50CHL1   C24 3688   4.826   6.042   3.786 -0.1000  0.2114  0.0354
   50CHL1  H24A 3689   4.900   6.118   3.751 -0.2547  0.0174 -0.7334
   50CHL1  H24B 3690   4.722   6.076   3.765  0.3668  0.1498 -2.8378
   50CHL1   C25 3691   4.821   6.038   3.944 -0.1565  0.1468 -0.4718
   50CHL1   H25 3692   4.769   5.942   3.967  1.2232 -0.5448 -0.1111
   50CHL1   C26 3693   4.959   6.025   4.008  0.2624  0.4175  1.0927
   50CHL1  H26A 3694   5.016   6.109   3.963  1.1488 -1.0920 -0.7117
   50CHL1  H26B 3695   4.972   6.032   4.118  1.0452  0.7442  0.9874
   50CHL1  H26C 3696   5.023   5.942   3.973  0.7110  1.5491 -0.9662
   50CHL1   C27 3697   4.738   6.147   4.001  0.1323  0.1753  0.4292
   50CHL1  H27A 3698   4.629   6.137   3.986  0.1172  1.2200 -0.2886
   50CHL1  H27B 3699   4.756   6.137   4.110  0.3643  1.4646  0.5300
   50CHL1  H27C 3700   4.769   6.253   3.986 -0.8676  0.4580  0.2780
   51CHL1    C3 3701   5.073   6.659   2.584  0.0962 -0.4155  0.2760
   51CHL1    H3 3702   5.152   6.730   2.617 -0.1565  1.0901 -2.1053
   51CHL1    O3 3703   5.096   6.631   2.447 -0.3214  0.3367 -0.0080
   51CHL1   H3' 3704   5.014   6.584   2.429  0.9083 -2.6233  1.6011
   51CHL1    C4 3705   5.064   6.534   2.661  0.5508  0.2242  0.1612
   51CHL1   H4A 3706   4.985   6.474   2.611  1.6504  0.2105 -1.6610
   51CHL1   H4B 3707   5.155   6.471   2.665  0.7452  0.4521 -0.5398
   51CHL1    C5 3708   5.033   6.559   2.807 -0.6440 -0.0710 -0.5402
   51CHL1    C6 3709   5.118   6.515   2.903 -0.7259 -0.3856 -0.1844
   51CHL1    H6 3710   5.200   6.447   2.874  0.2874  0.2985  0.9859
   51CHL1    C7 3711   5.106   6.543   3.050 -0.6649 -0.1456  0.5253
   51CHL1   H7A 3712   5.126   6.456   3.115  0.4573 -0.3820 -0.1112
   51CHL1   H7B 3713   5.167   6.629   3.086 -3.0589  1.9590 -0.1046
   51CHL1    C8 3714   4.961   6.584   3.086 -0.0338 -0.5192  0.7372
   51CHL1    H8 3715   4.894   6.496   3.075  0.1797 -0.5758 -0.2012
   51CHL1   C14 3716   4.947   6.647   3.226 -0.4482 -0.1096 -0.0571
   51CHL1   H14 3717   5.007   6.740   3.220 -1.9135  0.8561 -0.1142
   51CHL1   C15 3718   5.015   6.568   3.339 -0.2097 -0.0140 -0.0960
   51CHL1  H15A 3719   4.967   6.469   3.325  0.1988 -0.1013 -0.8991
   51CHL1  H15B 3720   5.126   6.562   3.340 -0.1213 -0.7601  4.3108
   51CHL1   C16 3721   4.957   6.630   3.465  0.3110 -0.3256  0.1159
   51CHL1  H16A 3722   4.921   6.549   3.532  0.7834 -0.3889  0.2956
   51CHL1  H16B 3723   5.027   6.698   3.519  0.9534 -0.8117 -0.1107
   51CHL1   C17 3724   4.843   6.725   3.416 -0.0482 -0.2831 -0.1158
   51CHL1   H17 3725   4.889   6.824   3.395  0.3326 -0.5588 -0.6275
   51CHL1   C13 3726   4.804   6.676   3.275 -0.4758 -0.2126 -0.3202
   51CHL1   C18 3727   4.713   6.554   3.281 -0.0789 -0.0315  0.0255
   51CHL1  H18A 3728   4.621   6.580   3.338  0.3887  1.6201  0.0955
   51CHL1  H18B 3729   4.685   6.518   3.180 -1.9177  0.5539  0.2916
   51CHL1  H18C 3730   4.766   6.472   3.333 -1.0498  0.4824  1.9296
   51CHL1   C12 3731   4.758   6.794   3.178 -0.0856  0.1562 -1.0500
   51CHL1  H12A 3732   4.657   6.827   3.211 -0.6398 -0.9984 -1.5581
   51CHL1  H12B 3733   4.834   6.875   3.184  1.3818 -1.2981  1.4221
   51CHL1   C11 3734   4.764   6.754   3.025  0.8082 -0.1341 -0.0653
   51CHL1  H11A 3735   4.688   6.675   3.011  1.2686 -0.9281  1.7256
   51CHL1  H11B 3736   4.735   6.844   2.966  0.3235 -0.3475 -0.1542
   51CHL1    C9 3737   4.898   6.689   2.985 -0.0555  1.0692 -0.2833
   51CHL1    H9 3738   4.975   6.769   2.992  1.6003 -0.4266 -0.8298
   51CHL1   C10 3739   4.907   6.641   2.834  0.2671 -0.1387  0.1269
   51CHL1   C19 3740   4.787   6.547   2.795  0.7757 -0.1991  0.7273
   51CHL1  H19A 3741   4.779   6.458   2.861  1.5621 -0.8154  0.0133
   51CHL1  H19B 3742   4.696   6.608   2.812 -0.5920 -2.3314  1.5298
   51CHL1  H19C 3743   4.790   6.513   2.689 -3.1606 -0.4363  0.5361
   51CHL1    C1 3744   4.905   6.763   2.744 -0.4239 -0.5791  0.5775
   51CHL1   H1A 3745   4.801   6.803   2.753 -1.0216 -1.3839 -2.0133
   51CHL1   H1B 3746   4.972   6.840   2.787 -0.1370 -0.6921  0.3302
   51CHL1    C2 3747   4.937   6.732   2.602  0.0152 -0.8409  0.9834
   51CHL1   H2A 3748   4.944   6.828   2.546  2.3961 -0.2811  2.0943
   51CHL1   H2B 3749   4.865   6.664   2.552 -0.7153  0.9330 -0.5239
   51CHL1   C20 3750   4.731   6.751   3.527  0.4216 -0.2554 -0.1774
   51CHL1   H20 3751   4.631   6.750   3.478 -0.6312  0.6608  1.8244
   51CHL1   C21 3752   4.743   6.891   3.587  0.1194  0.3080 -0.3315
   51CHL1  H21A 3753   4.687   6.907   3.682  3.2832  5.9176  0.9971
   51CHL1  H21B 3754   4.693   6.959   3.515 -1.1538 -0.5692 -0.3148
   51CHL1  H21C 3755   4.847   6.928   3.601 -0.1240  0.8101  0.1930
   51CHL1   C22 3756   4.721   6.642   3.637  0.2301 -0.5432 -0.1323
   51CHL1  H22A 3757   4.719   6.539   3.595  1.6229 -1.4870  1.9595
   51CHL1  H22B 3758   4.807   6.641   3.706  1.5090  0.1918 -1.6460
   51CHL1   C23 3759   4.590   6.652   3.723  0.2865  0.2993 -0.2650
   51CHL1  H23A 3760   4.590   6.742   3.788 -0.5380 -0.1883  0.4444
   51CHL1  H23B 3761   4.509   6.655   3.647  0.0200 -2.1126 -0.1587
   51CHL1   C24 3762   4.563   6.531   3.817 -0.4236 -0.1540  0.0494
   51CHL1  H24A 3763   4.573   6.442   3.752  0.0746 -1.2742  1.6193
   51CHL1  H24B 3764   4.629   6.524   3.905 -1.0665 -0.4675  0.5122
   51CHL1   C25 3765   4.416   6.528   3.876 -0.7756  0.0719  0.8095
   51CHL1   H25 3766   4.416   6.606   3.955  2.3714 -0.7207  1.7319
   51CHL1   C26 3767   4.303   6.559   3.773 -0.4144  0.3793 -0.0103
   51CHL1  H26A 3768   4.312   6.667   3.747 -1.7416  0.3064 -0.8932
   51CHL1  H26B 3769   4.326   6.489   3.690 -0.0190 -0.6766  0.9555
   51CHL1  H26C 3770   4.208   6.529   3.822  0.5187 -0.0648  1.6226
   51CHL1   C27 3771   4.398   6.395   3.948  0.5055  0.2237  0.7725
   51CHL1  H27A 3772   4.479   6.365   4.017  1.0270  0.3927  0.2445
   51CHL1  H27B 3773   4.303   6.401   4.005 -0.4432 -1.1996 -0.5538
   51CHL1  H27C 3774   4.390   6.318   3.867 -3.6412 -1.5908  2.6442
   52CHL1    C3 3775   6.698   6.682   2.645  0.2095 -0.8949  0.4284
   52CHL1    H3 3776   6.635   6.716   2.731  1.8642  1.8620  0.6824
   52CHL1    O3 3777   6.632   6.679   2.520 -0.2147  0.0988 -0.2001
   52CHL1   H3' 3778   6.588   6.593   2.517 -0.5021  0.0486  2.8516
   52CHL1    C4 3779   6.804   6.795   2.631  0.3238 -0.8158  0.5875
   52CHL1   H4A 3780   6.868   6.787   2.541  0.3752 -0.4765  0.5940
   52CHL1   H4B 3781   6.750   6.891   2.618  4.0534  1.0919 -3.0670
   52CHL1    C5 3782   6.903   6.799   2.748 -0.2692  0.1578 -0.7591
   52CHL1    C6 3783   6.911   6.907   2.821 -0.1147  0.0990 -0.2658
   52CHL1    H6 3784   6.846   6.991   2.793  1.1121  0.5973 -1.7304
   52CHL1    C7 3785   6.994   6.923   2.945 -0.3433  0.0735 -0.3366
   52CHL1   H7A 3786   7.058   7.014   2.948 -0.5544  0.2132  2.7649
   52CHL1   H7B 3787   6.940   6.915   3.042  0.8778 -1.0864  0.2807
   52CHL1    C8 3788   7.106   6.810   2.963 -0.4172 -0.0408  0.3483
   52CHL1    H8 3789   7.188   6.843   2.897 -1.8878  1.9554 -0.5845
   52CHL1   C14 3790   7.160   6.811   3.100  0.7395  0.0193  0.5442
   52CHL1   H14 3791   7.068   6.794   3.160  1.2411  0.4648  1.4587
   52CHL1   C15 3792   7.226   6.934   3.166  0.9965  0.5150  0.0106
   52CHL1  H15A 3793   7.286   6.982   3.086 -0.6678 -1.1859 -2.4060
   52CHL1  H15B 3794   7.146   7.007   3.191 -0.3756 -1.7016  2.6248
   52CHL1   C16 3795   7.311   6.870   3.284 -0.7464 -0.1033  0.0547
   52CHL1  H16A 3796   7.419   6.894   3.281 -0.2066 -1.8833  2.5062
   52CHL1  H16B 3797   7.279   6.921   3.377 -0.4044 -0.2183  0.2359
   52CHL1   C17 3798   7.297   6.712   3.277  0.3341 -0.2334 -0.3531
   52CHL1   H17 3799   7.213   6.681   3.344  0.0172  1.0429 -0.1185
   52CHL1   C13 3800   7.253   6.689   3.131  0.4045 -0.3409 -0.0239
   52CHL1   C18 3801   7.375   6.697   3.040  0.7474  0.3909 -0.4969
   52CHL1  H18A 3802   7.435   6.606   3.060 -1.0982 -0.2226  3.1060
   52CHL1  H18B 3803   7.346   6.716   2.934 -1.4764  0.4979  0.0816
   52CHL1  H18C 3804   7.445   6.780   3.063  0.0721  0.4459  1.5420
   52CHL1   C12 3805   7.178   6.562   3.100 -0.4419  0.5056 -0.1224
   52CHL1  H12A 3806   7.244   6.474   3.112  0.5711  1.3823  0.9615
   52CHL1  H12B 3807   7.091   6.549   3.169  1.1535  0.4504  1.9679
   52CHL1   C11 3808   7.126   6.557   2.957 -0.5817  0.2415 -0.1023
   52CHL1  H11A 3809   7.209   6.549   2.883  0.0238 -0.3592  0.6313
   52CHL1  H11B 3810   7.075   6.458   2.949 -0.2421  0.0331  0.2860
   52CHL1    C9 3811   7.039   6.677   2.926 -0.4660 -0.4241  0.3813
   52CHL1    H9 3812   6.957   6.672   3.001 -1.4276 -4.1573 -0.6782
   52CHL1   C10 3813   6.967   6.665   2.789  0.5888 -0.1327 -0.0795
   52CHL1   C19 3814   7.069   6.637   2.667 -0.0002  0.2412 -0.1949
   52CHL1  H19A 3815   7.135   6.720   2.636  0.3240  0.6047  1.3834
   52CHL1  H19B 3816   7.139   6.562   2.709  1.0642  0.6276 -1.2402
   52CHL1  H19C 3817   7.013   6.599   2.579 -0.7268  0.9429 -0.0491
   52CHL1    C1 3818   6.860   6.549   2.781  0.7118  0.0751  0.6644
   52CHL1   H1A 3819   6.920   6.455   2.780 -0.2677 -0.5517 -0.7078
   52CHL1   H1B 3820   6.798   6.548   2.873 -0.2641 -1.4789  0.0341
   52CHL1    C2 3821   6.767   6.544   2.666  0.2119  0.5532  0.8277
   52CHL1   H2A 3822   6.679   6.481   2.690 -1.9252  3.2803  0.7119
   52CHL1   H2B 3823   6.815   6.504   2.574 -1.7800 -1.4823  0.6086
   52CHL1   C20 3824   7.430   6.655   3.325 -0.5604 -0.1018 -0.3088
   52CHL1   H20 3825   7.505   6.692   3.252  0.1819  2.0451  1.4437
   52CHL1   C21 3826   7.417   6.500   3.330 -0.0676  0.2245 -0.7880
   52CHL1  H21A 3827   7.317   6.463   3.362  0.7095 -1.1664  0.1340
   52CHL1  H21B 3828   7.491   6.454   3.399 -1.5830  1.9746  2.2570
   52CHL1  H21C 3829   7.429   6.468   3.225 -0.9167 -0.0421 -0.8102
   52CHL1   C22 3830   7.472   6.712   3.462 -0.2215 -0.1014  0.0018
   52CHL1  H22A 3831   7.573   6.671   3.485  0.4350  0.0279 -2.3875
   52CHL1  H22B 3832   7.498   6.819   3.445  2.4752 -0.8900 -1.3757
   52CHL1   C23 3833   7.376   6.694   3.583 -0.2495 -0.0155  0.3831
   52CHL1  H23A 3834   7.293   6.767   3.584 -0.6971 -0.4864  2.2626
   52CHL1  H23B 3835   7.320   6.600   3.562  0.9089 -0.7535  0.4707
   52CHL1   C24 3836   7.467   6.694   3.715 -0.3784 -0.4485  0.0152
   52CHL1  H24A 3837   7.545   6.618   3.694  0.0030  0.1275 -0.6612
   52CHL1  H24B 3838   7.514   6.794   3.720  0.7810 -1.0288  2.2903
   52CHL1   C25 3839   7.395   6.659   3.845 -0.1043  0.1379 -0.1747
   52CHL1   H25 3840   7.358   6.555   3.837 -2.8177  1.0959 -1.1008
   52CHL1   C26 3841   7.479   6.689   3.974 -0.1770  0.5208  0.3048
   52CHL1  H26A 3842   7.450   6.625   4.060  1.7809 -1.7633 -0.6266
   52CHL1  H26B 3843   7.583   6.659   3.950 -0.9382 -0.9382 -1.4324
   52CHL1  H26C 3844   7.484   6.797   3.999 -1.2260  0.3537  1.3267
   52CHL1   C27 3845   7.264   6.743   3.863 -0.4934 -0.4088 -0.1353
   52CHL1  H27A 3846   7.219   6.729   3.963 -2.1093  1.5069 -0.5156
   52CHL1  H27B 3847   7.298   6.848   3.850  0.7972 -0.3172  3.1269
   52CHL1  H27C 3848   7.186   6.715   3.789 -0.3005  1.0720 -0.9308
   53CHL1    C3 3849   0.692   6.381   2.464 -0.1272  0.4421 -0.5555
   53CHL1    H3 3850   0.752   6.291   2.438  1.4848  1.8201 -1.9210
   53CHL1    O3 3851   0.698   6.461   2.349 -0.3944  0.0913 -0.5179
   53CHL1   H3' 3852   0.633   6.526   2.377  1.3249  1.0482  1.5520
   53CHL1    C4 3853   0.548   6.332   2.484  0.3427 -0.4153 -0.3986
   53CHL1   H4A 3854   0.483   6.423   2.487  1.0720  0.1504 -1.3099
   53CHL1   H4B 3855   0.519   6.280   2.391 -1.8331  0.3343 -0.2021
   53CHL1    C5 3856   0.534   6.255   2.610 -0.1687  0.6457 -0.4270
   53CHL1    C6 3857   0.469   6.136   2.613  0.5796 -0.0717 -0.6804
   53CHL1    H6 3858   0.434   6.092   2.518  2.4117  0.8107 -1.8279
   53CHL1    C7 3859   0.447   6.053   2.740  0.4676  0.0878  0.8775
   53CHL1   H7A 3860   0.350   5.998   2.737  1.0263 -0.8624 -0.4764
   53CHL1   H7B 3861   0.517   5.967   2.739 -0.8561 -1.0340  1.7623
   53CHL1    C8 3862   0.482   6.132   2.873 -0.6963 -0.0719  0.0139
   53CHL1    H8 3863   0.394   6.194   2.899 -0.7810 -0.4840  0.7407
   53CHL1   C14 3864   0.493   6.047   2.992 -0.2866 -0.1234 -0.1256
   53CHL1   H14 3865   0.590   5.996   2.975  0.7618  1.2183  1.5123
   53CHL1   C15 3866   0.395   5.933   3.017 -0.5273 -0.0855  0.3080
   53CHL1  H15A 3867   0.291   5.973   3.013 -1.6139 -2.7287  0.5123
   53CHL1  H15B 3868   0.397   5.848   2.945  1.5987 -0.2881  0.5422
   53CHL1   C16 3869   0.425   5.887   3.160  0.3951 -0.3056 -0.0652
   53CHL1  H16A 3870   0.335   5.883   3.225  0.0102 -0.5524 -0.6022
   53CHL1  H16B 3871   0.468   5.785   3.166  1.7935  0.1757 -1.4054
   53CHL1   C17 3872   0.524   5.988   3.224 -0.3497 -0.3376  0.4222
   53CHL1   H17 3873   0.627   5.951   3.203  0.6371  2.3261  0.1481
   53CHL1   C13 3874   0.516   6.109   3.133  0.5166 -0.2045 -0.0084
   53CHL1   C18 3875   0.392   6.185   3.173 -1.2977 -1.0185 -0.1898
   53CHL1  H18A 3876   0.395   6.225   3.277 -1.0398 -2.5694  0.4323
   53CHL1  H18B 3877   0.376   6.273   3.107  0.5437 -0.0064  0.6284
   53CHL1  H18C 3878   0.299   6.125   3.161 -2.7296  1.2247 -1.1369
   53CHL1   C12 3879   0.639   6.193   3.121  0.2296  0.2729  0.8134
   53CHL1  H12A 3880   0.653   6.262   3.207 -0.6583  1.3953  0.0781
   53CHL1  H12B 3881   0.728   6.128   3.109  0.9391  0.8105  2.6886
   53CHL1   C11 3882   0.632   6.291   3.000 -0.4249 -0.2240  0.3408
   53CHL1  H11A 3883   0.545   6.355   3.026  0.0551 -0.4347  2.6107
   53CHL1  H11B 3884   0.728   6.347   3.000  0.6050 -1.8224 -1.8802
   53CHL1    C9 3885   0.603   6.221   2.861 -0.3489  0.0879 -0.1168
   53CHL1    H9 3886   0.689   6.153   2.841  0.8736  1.9521 -1.4768
   53CHL1   C10 3887   0.599   6.315   2.734 -0.0247 -0.1671  0.4657
   53CHL1   C19 3888   0.501   6.427   2.771  0.4859 -0.7510  0.1201
   53CHL1  H19A 3889   0.520   6.477   2.868 -0.2328  1.3504 -0.7529
   53CHL1  H19B 3890   0.497   6.518   2.707 -0.8167  0.6054  2.0088
   53CHL1  H19C 3891   0.397   6.393   2.793  0.1036  0.4059  0.1730
   53CHL1    C1 3892   0.739   6.367   2.708 -0.3382 -0.5358  0.5925
   53CHL1   H1A 3893   0.770   6.429   2.796  0.9762 -2.6627  1.7139
   53CHL1   H1B 3894   0.813   6.284   2.713  1.8725  1.1503 -1.7567
   53CHL1    C2 3895   0.749   6.454   2.588  0.4128 -0.3812  0.5883
   53CHL1   H2A 3896   0.854   6.481   2.564 -0.3837  1.6084 -0.8328
   53CHL1   H2B 3897   0.689   6.545   2.608 -1.1151 -1.4020  0.9027
   53CHL1   C20 3898   0.514   6.011   3.379  0.0390 -0.1146  0.2932
   53CHL1   H20 3899   0.421   6.064   3.411  0.5360  0.6773  0.4661
   53CHL1   C21 3900   0.623   6.100   3.427 -0.8529 -0.0781 -0.0338
   53CHL1  H21A 3901   0.627   6.099   3.538 -0.4196  4.2538  0.1617
   53CHL1  H21B 3902   0.595   6.204   3.397 -1.3141 -0.3823 -0.6745
   53CHL1  H21C 3903   0.724   6.090   3.383 -1.2646 -0.0634 -0.9996
   53CHL1   C22 3904   0.512   5.877   3.455  0.1642 -0.3784  0.7434
   53CHL1  H22A 3905   0.422   5.827   3.415  0.5303  0.2469 -0.9550
   53CHL1  H22B 3906   0.596   5.811   3.424  1.2533  1.0681  0.4647
   53CHL1   C23 3907   0.496   5.889   3.606 -0.2122  0.2547  0.7718
   53CHL1  H23A 3908   0.595   5.899   3.655  0.6592 -1.0846 -0.6254
   53CHL1  H23B 3909   0.441   5.979   3.641 -0.9129  0.7040 -1.3596
   53CHL1   C24 3910   0.444   5.764   3.670 -0.2559 -0.0341 -0.8106
   53CHL1  H24A 3911   0.343   5.743   3.629  0.4391 -0.9590 -2.1358
   53CHL1  H24B 3912   0.511   5.677   3.652 -3.7398 -2.5260 -2.9373
   53CHL1   C25 3913   0.431   5.775   3.825 -0.6800  0.5677  0.0571
   53CHL1   H25 3914   0.410   5.673   3.863  1.1072 -1.2693 -3.3891
   53CHL1   C26 3915   0.566   5.789   3.894 -0.5693  0.0546 -0.5242
   53CHL1  H26A 3916   0.634   5.712   3.851 -0.4954 -0.6895  0.8756
   53CHL1  H26B 3917   0.607   5.890   3.876 -1.1269 -0.1071 -3.1053
   53CHL1  H26C 3918   0.553   5.777   4.004 -0.8992  2.2548 -0.2793
   53CHL1   C27 3919   0.323   5.882   3.858 -0.3195  0.2511  0.2673
   53CHL1  H27A 3920   0.315   5.880   3.969  0.8512 -0.8119  0.3549
   53CHL1  H27B 3921   0.363   5.981   3.830  2.1457 -0.9428 -0.7188
   53CHL1  H27C 3922   0.229   5.859   3.802  1.0110 -0.0597 -1.9597
   54CHL1    C3 3923   5.168   0.567   2.660  0.0931  0.1114  0.4007
   54CHL1    H3 3924   5.180   0.458   2.674  0.8615  0.4114  2.3819
   54CHL1    O3 3925   5.116   0.593   2.525  0.0567  0.4305 -0.6962
   54CHL1   H3' 3926   5.123   0.688   2.511  1.2417  0.3901 -0.4990
   54CHL1    C4 3927   5.071   0.629   2.766 -0.0337 -0.2164 -1.0913
   54CHL1   H4A 3928   5.048   0.736   2.751 -1.1809 -0.4314 -0.9488
   54CHL1   H4B 3929   4.973   0.584   2.742 -1.1889  1.2169  0.7201
   54CHL1    C5 3930   5.105   0.591   2.909 -0.1891 -0.2602 -0.1685
   54CHL1    C6 3931   5.027   0.512   2.984 -0.2989  0.6018  0.1290
   54CHL1    H6 3932   4.934   0.467   2.945  0.4125 -0.4906 -0.3330
   54CHL1    C7 3933   5.050   0.498   3.131 -0.4417  0.3272  0.2731
   54CHL1   H7A 3934   4.966   0.547   3.185 -0.2906 -0.3921  1.1826
   54CHL1   H7B 3935   5.058   0.392   3.162 -1.6675  0.6066  1.6548
   54CHL1    C8 3936   5.176   0.572   3.183 -0.5526  0.6774 -0.1803
   54CHL1    H8 3937   5.140   0.676   3.200  1.7417  1.6812 -1.0423
   54CHL1   C14 3938   5.220   0.522   3.325  0.3521 -0.1853  1.1347
   54CHL1   H14 3939   5.242   0.415   3.304  1.1119  0.4086 -1.3867
   54CHL1   C15 3940   5.115   0.540   3.438  0.3787 -0.9557 -0.6087
   54CHL1  H15A 3941   5.075   0.644   3.432  1.0303 -0.6728 -0.1667
   54CHL1  H15B 3942   5.034   0.466   3.420 -1.0338  0.4054 -0.2116
   54CHL1   C16 3943   5.198   0.511   3.563 -0.3169  0.3746 -0.3323
   54CHL1  H16A 3944   5.166   0.579   3.645 -1.4209 -1.9452  1.2752
   54CHL1  H16B 3945   5.179   0.404   3.586 -1.0757  0.4176 -0.7199
   54CHL1   C17 3946   5.345   0.526   3.526 -0.1345  0.1487 -0.5360
   54CHL1   H17 3947   5.381   0.426   3.496  1.4579 -0.1481  1.9816
   54CHL1   C13 3948   5.344   0.586   3.378  0.2471 -0.0238 -0.5657
   54CHL1   C18 3949   5.321   0.742   3.389 -0.6291  0.2633 -0.3792
   54CHL1  H18A 3950   5.242   0.776   3.460  1.9032  0.7711  2.4027
   54CHL1  H18B 3951   5.412   0.788   3.433 -1.1310 -0.9356  2.0916
   54CHL1  H18C 3952   5.290   0.786   3.292 -1.8028  2.4291  0.9170
   54CHL1   C12 3953   5.460   0.556   3.273  0.2105 -0.9025 -0.1772
   54CHL1  H12A 3954   5.551   0.602   3.317 -1.0822  0.2863  1.3784
   54CHL1  H12B 3955   5.467   0.446   3.264 -2.6527 -1.0107 -2.8110
   54CHL1   C11 3956   5.426   0.618   3.133  0.0133 -0.5897 -0.1840
   54CHL1  H11A 3957   5.430   0.728   3.140 -1.1603 -0.6268  1.9483
   54CHL1  H11B 3958   5.501   0.576   3.062 -0.5347 -0.3082 -0.9452
   54CHL1    C9 3959   5.289   0.569   3.076 -0.3095  0.2732  0.5539
   54CHL1    H9 3960   5.306   0.461   3.055  2.2147  0.9453 -1.4336
   54CHL1   C10 3961   5.248   0.640   2.945 -0.5951  0.5998 -0.1630
   54CHL1   C19 3962   5.248   0.797   2.963 -0.8506  0.8342 -0.6008
   54CHL1  H19A 3963   5.209   0.824   3.063 -0.4009 -1.3118  0.1905
   54CHL1  H19B 3964   5.354   0.830   2.953 -0.7618  1.6973  2.4201
   54CHL1  H19C 3965   5.187   0.856   2.890  0.4835  2.6481 -0.3393
   54CHL1    C1 3966   5.354   0.602   2.826  0.1469 -0.0100  0.1762
   54CHL1   H1A 3967   5.439   0.664   2.861  0.3384 -0.6607  0.8798
   54CHL1   H1B 3968   5.368   0.493   2.845 -0.8074  0.1803  2.1695
   54CHL1    C2 3969   5.296   0.640   2.687 -0.6010  0.3064 -0.2665
   54CHL1   H2A 3970   5.364   0.626   2.601  0.1116  2.5916 -0.1224
   54CHL1   H2B 3971   5.280   0.750   2.688  0.2356  0.5191 -2.9609
   54CHL1   C20 3972   5.425   0.597   3.633  0.0966 -0.1518  0.5235
   54CHL1   H20 3973   5.389   0.702   3.648  0.8078  0.2941 -0.7750
   54CHL1   C21 3974   5.572   0.607   3.598 -0.1175  0.2454  0.3136
   54CHL1  H21A 3975   5.600   0.503   3.571 -2.1704 -0.3064  0.1217
   54CHL1  H21B 3976   5.629   0.641   3.687 -0.2928 -2.2370  1.4543
   54CHL1  H21C 3977   5.579   0.671   3.507 -2.6184 -1.1626 -0.9662
   54CHL1   C22 3978   5.404   0.535   3.774 -0.7480  0.1781 -0.0856
   54CHL1  H22A 3979   5.482   0.579   3.840  0.0032  1.1732 -1.5901
   54CHL1  H22B 3980   5.305   0.562   3.818 -0.6797  0.0506  0.1539
   54CHL1   C23 3981   5.420   0.383   3.777 -0.8508  0.1225 -0.3215
   54CHL1  H23A 3982   5.339   0.331   3.720 -1.5926  0.4105  0.4456
   54CHL1  H23B 3983   5.524   0.357   3.749 -1.0714 -3.5070  1.7098
   54CHL1   C24 3984   5.394   0.334   3.922 -0.3874  0.7789 -0.2653
   54CHL1  H24A 3985   5.459   0.400   3.984  0.6174  0.0820 -0.5576
   54CHL1  H24B 3986   5.292   0.367   3.951 -0.5118  0.1158  0.0663
   54CHL1   C25 3987   5.438   0.185   3.946 -0.5860 -0.2395 -0.2269
   54CHL1   H25 3988   5.379   0.125   3.873 -1.7021 -1.3490  1.5023
   54CHL1   C26 3989   5.585   0.173   3.915 -0.1287  0.3154 -0.0388
   54CHL1  H26A 3990   5.610   0.212   3.814  1.2535 -1.4352 -0.4211
   54CHL1  H26B 3991   5.661   0.229   3.975  1.2632  0.3296 -1.7311
   54CHL1  H26C 3992   5.613   0.066   3.922 -1.3903 -0.0581 -0.4238
   54CHL1   C27 3993   5.412   0.133   4.085  0.3788 -0.1528 -0.8695
   54CHL1  H27A 3994   5.307   0.097   4.092  0.6571 -0.8614 -0.1988
   54CHL1  H27B 3995   5.468   0.039   4.103 -0.7161 -0.9894 -1.6790
   54CHL1  H27C 3996   5.426   0.211   4.162  3.4459  0.7689 -2.2356
   55CHL1    C3 3997   5.926   1.388   2.432 -1.0070 -0.2767  0.3222
   55CHL1    H3 3998   5.915   1.499   2.423 -0.5896 -0.0092  2.6699
   55CHL1    O3 3999   5.965   1.329   2.307  0.3613  0.1640  0.6522
   55CHL1   H3' 4000   6.036   1.366   2.255  0.7028 -0.4773  0.6547
   55CHL1    C4 4001   6.041   1.358   2.534 -0.4848 -0.3797  0.0319
   55CHL1   H4A 4002   6.049   1.247   2.535 -0.3193 -0.3638  0.8058
   55CHL1   H4B 4003   6.133   1.403   2.493 -0.5111 -0.2232  0.1465
   55CHL1    C5 4004   6.019   1.391   2.681 -0.4925 -0.3189 -0.0918
   55CHL1    C6 4005   6.120   1.454   2.743 -1.2059  0.3330  0.1783
   55CHL1    H6 4006   6.210   1.482   2.686  0.0276 -0.7943  1.4945
   55CHL1    C7 4007   6.118   1.480   2.894 -0.1136  0.3352  0.1926
   55CHL1   H7A 4008   6.219   1.447   2.927 -0.0701 -0.8544 -1.0252
   55CHL1   H7B 4009   6.105   1.587   2.921  1.0797 -0.0229  2.3842
   55CHL1    C8 4010   6.002   1.391   2.966  0.9343  0.0746  0.1516
   55CHL1    H8 4011   6.045   1.288   2.970  0.5815 -0.0924 -0.3187
   55CHL1   C14 4012   5.981   1.459   3.099 -0.0008  0.5299 -0.0851
   55CHL1   H14 4013   5.940   1.561   3.087 -2.8575 -0.1150  2.7603
   55CHL1   C15 4014   6.103   1.482   3.188  0.0101 -0.1097 -0.4562
   55CHL1  H15A 4015   6.174   1.397   3.190  1.0362  0.7251  1.8695
   55CHL1  H15B 4016   6.163   1.572   3.162  0.9079 -0.2843  0.9349
   55CHL1   C16 4017   6.038   1.486   3.333 -0.4939 -0.3241  0.8318
   55CHL1  H16A 4018   6.076   1.392   3.379  0.9374  0.7647  1.9641
   55CHL1  H16B 4019   6.061   1.570   3.401  1.3919  0.4368 -0.6433
   55CHL1   C17 4020   5.888   1.479   3.308  0.5618  0.0080 -0.2026
   55CHL1   H17 4021   5.843   1.579   3.290  0.2055  0.3479  2.2234
   55CHL1   C13 4022   5.863   1.405   3.178 -0.5302  1.3905  0.0876
   55CHL1   C18 4023   5.883   1.247   3.199  0.2005 -0.1792 -0.4548
   55CHL1  H18A 4024   5.870   1.187   3.107 -4.1681  1.1464 -0.9255
   55CHL1  H18B 4025   5.973   1.224   3.260  1.8161 -0.9419 -2.9616
   55CHL1  H18C 4026   5.787   1.224   3.251 -0.1701  1.8694 -0.1609
   55CHL1   C12 4027   5.733   1.436   3.093 -0.2910 -0.1710  0.2661
   55CHL1  H12A 4028   5.648   1.393   3.151  1.4434 -3.1704  0.8262
   55CHL1  H12B 4029   5.722   1.546   3.080  0.9564 -0.2457 -2.0175
   55CHL1   C11 4030   5.739   1.371   2.957 -0.0828 -0.2643 -0.0836
   55CHL1  H11A 4031   5.724   1.261   2.971  0.0290 -0.2950 -0.2006
   55CHL1  H11B 4032   5.650   1.395   2.896 -0.7853 -1.0506  0.6096
   55CHL1    C9 4033   5.875   1.406   2.882 -0.1199  0.1722 -0.3450
   55CHL1    H9 4034   5.864   1.515   2.865  0.0491  0.1583 -0.5446
   55CHL1   C10 4035   5.893   1.336   2.744 -0.7331 -0.5103 -0.1432
   55CHL1   C19 4036   5.893   1.181   2.769 -0.3188  0.7097  0.2436
   55CHL1  H19A 4037   5.802   1.150   2.824 -0.5077 -1.0764 -1.0104
   55CHL1  H19B 4038   5.915   1.113   2.684 -0.9347 -0.8400  1.2874
   55CHL1  H19C 4039   5.979   1.156   2.834 -0.0308  1.3468  0.1230
   55CHL1    C1 4040   5.777   1.372   2.639  0.7705  0.2936  0.3746
   55CHL1   H1A 4041   5.679   1.331   2.670  1.7527  0.2010  3.6708
   55CHL1   H1B 4042   5.765   1.483   2.646  0.9903  0.2551  1.4789
   55CHL1    C2 4043   5.797   1.329   2.495 -0.0285  0.3273 -0.6152
   55CHL1   H2A 4044   5.717   1.363   2.426  0.1292  2.8591  0.3498
   55CHL1   H2B 4045   5.816   1.219   2.496  3.7921  0.8001  1.8145
   55CHL1   C20 4046   5.827   1.427   3.437  0.2410 -0.6650 -0.0222
   55CHL1   H20 4047   5.859   1.324   3.463 -1.8395 -1.1383  0.8470
   55CHL1   C21 4048   5.675   1.425   3.429  0.2473  0.2645  0.5422
   55CHL1  H21A 4049   5.639   1.354   3.351 -0.8706  1.2012  0.1781
   55CHL1  H21B 4050   5.641   1.528   3.405 -1.0577 -0.3567 -0.4223
   55CHL1  H21C 4051   5.636   1.376   3.521 -1.7275 -1.0853 -0.9220
   55CHL1   C22 4052   5.869   1.531   3.549 -0.0607  0.6576 -0.2488
   55CHL1  H22A 4053   5.973   1.504   3.579 -0.2513  0.1065 -0.0734
   55CHL1  H22B 4054   5.865   1.634   3.506 -0.2803  0.9835  0.5291
   55CHL1   C23 4055   5.790   1.533   3.679 -0.6705  0.2849 -0.4209
   55CHL1  H23A 4056   5.689   1.577   3.660 -2.5692 -2.7036  1.9236
   55CHL1  H23B 4057   5.767   1.428   3.707 -3.3555  0.8902 -0.0990
   55CHL1   C24 4058   5.860   1.609   3.796 -0.2868 -0.5032 -0.1663
   55CHL1  H24A 4059   5.956   1.561   3.823  1.0969  2.5660  0.8711
   55CHL1  H24B 4060   5.885   1.712   3.761  1.5351 -0.3447  1.4355
   55CHL1   C25 4061   5.777   1.633   3.920  0.8143  0.6106  0.8854
   55CHL1   H25 4062   5.680   1.669   3.880 -0.3357 -1.9308  1.1765
   55CHL1   C26 4063   5.762   1.508   4.005 -0.4223 -0.0036  0.5827
   55CHL1  H26A 4064   5.703   1.423   3.964  2.0852 -1.4723 -0.1620
   55CHL1  H26B 4065   5.855   1.452   4.025 -0.7284  0.1616  2.6570
   55CHL1  H26C 4066   5.724   1.545   4.103  1.6711  1.8185  0.7623
   55CHL1   C27 4067   5.834   1.750   4.003 -0.5529 -0.6624 -0.2407
   55CHL1  H27A 4068   5.938   1.732   4.036  0.0926 -0.4092 -2.0374
   55CHL1  H27B 4069   5.831   1.842   3.940  1.2811 -1.3478 -1.4185
   55CHL1  H27C 4070   5.770   1.774   4.091  0.5209  2.2959 -0.1428
   56CHL1    C3 4071   6.387   0.900   2.500 -0.2714 -0.1272 -0.0444
   56CHL1    H3 4072   6.496   0.919   2.507 -0.3830  1.7101 -2.2813
   56CHL1    O3 4073   6.358   0.871   2.360 -0.2734 -0.0001  0.0918
   56CHL1   H3' 4074   6.329   0.779   2.356 -0.2092 -0.2713  3.0483
   56CHL1    C4 4075   6.358   0.780   2.592  0.5603  0.4942  0.5928
   56CHL1   H4A 4076   6.262   0.732   2.564  1.0131 -1.4328  2.1030
   56CHL1   H4B 4077   6.424   0.693   2.572  1.2737  0.4350  2.9105
   56CHL1    C5 4078   6.376   0.818   2.740  0.0589 -0.2813 -0.2679
   56CHL1    C6 4079   6.449   0.732   2.818  0.4358  0.2332  1.0442
   56CHL1    H6 4080   6.483   0.636   2.777 -1.8518  0.1366 -0.8411
   56CHL1    C7 4081   6.455   0.752   2.965 -1.4336  0.1276 -0.3954
   56CHL1   H7A 4082   6.448   0.654   3.017 -0.4438  0.6878  0.8350
   56CHL1   H7B 4083   6.560   0.788   2.970 -2.1906  2.3337  1.2769
   56CHL1    C8 4084   6.370   0.859   3.037 -0.4458 -0.5245 -0.4033
   56CHL1    H8 4085   6.272   0.809   3.050 -0.6844  0.0226 -0.0768
   56CHL1   C14 4086   6.422   0.899   3.170  0.1459 -0.6542  0.2973
   56CHL1   H14 4087   6.523   0.939   3.147  0.1028  0.2846  1.6393
   56CHL1   C15 4088   6.443   0.784   3.267  0.4891 -0.8851 -0.3287
   56CHL1  H15A 4089   6.345   0.732   3.274 -0.7998  1.0688 -2.4508
   56CHL1  H15B 4090   6.514   0.704   3.237 -0.7154 -2.8180  1.6317
   56CHL1   C16 4091   6.463   0.871   3.401  0.1302 -0.3248 -0.3193
   56CHL1  H16A 4092   6.378   0.837   3.464 -0.8197  0.0670 -1.3495
   56CHL1  H16B 4093   6.561   0.849   3.448 -1.2327 -2.5493  1.7395
   56CHL1   C17 4094   6.427   1.022   3.373  0.3608 -0.0198  0.1028
   56CHL1   H17 4095   6.522   1.076   3.351  0.5024  0.0680  0.8733
   56CHL1   C13 4096   6.348   1.019   3.238 -1.2605 -0.1443  0.1587
   56CHL1   C18 4097   6.201   0.976   3.274 -0.5900 -0.1458  0.6521
   56CHL1  H18A 4098   6.199   0.883   3.336  1.0620  0.0671  1.0670
   56CHL1  H18B 4099   6.149   1.051   3.338  2.1780  2.1750  0.4141
   56CHL1  H18C 4100   6.145   0.953   3.181  1.2587 -1.3307 -0.2280
   56CHL1   C12 4101   6.356   1.147   3.150 -0.7840  0.2826 -0.4455
   56CHL1  H12A 4102   6.304   1.234   3.196 -2.7672 -0.6531 -0.7804
   56CHL1  H12B 4103   6.462   1.174   3.133 -0.7379 -1.0000 -2.5027
   56CHL1   C11 4104   6.297   1.121   3.003  0.4579  0.0962 -0.3752
   56CHL1  H11A 4105   6.187   1.106   3.017  0.7343 -1.1066  0.7050
   56CHL1  H11B 4106   6.314   1.203   2.931 -0.4657 -0.7094 -1.5695
   56CHL1    C9 4107   6.365   0.990   2.941  0.2508  0.5852  0.2389
   56CHL1    H9 4108   6.471   1.020   2.924  0.4537 -0.9159 -1.4741
   56CHL1   C10 4109   6.312   0.942   2.799  0.1816 -0.0001 -0.0983
   56CHL1   C19 4110   6.161   0.915   2.800 -0.0270  0.0903 -0.5219
   56CHL1  H19A 4111   6.133   0.839   2.877  0.2396  0.9931  0.4873
   56CHL1  H19B 4112   6.103   1.008   2.817  0.4082  0.7463 -2.4419
   56CHL1  H19C 4113   6.121   0.886   2.701 -0.5547 -0.5782 -0.1297
   56CHL1    C1 4114   6.348   1.058   2.699  0.4257 -1.0608 -0.2746
   56CHL1   H1A 4115   6.292   1.152   2.717 -0.0656 -1.1472 -1.2900
   56CHL1   H1B 4116   6.457   1.080   2.706  0.3733 -0.5865 -0.8631
   56CHL1    C2 4117   6.312   1.032   2.547  0.1591  0.1937 -0.4124
   56CHL1   H2A 4118   6.346   1.122   2.491  2.1046 -0.6813 -0.6979
   56CHL1   H2B 4119   6.202   1.024   2.533  0.0333  2.9860 -1.7112
   56CHL1   C20 4120   6.363   1.093   3.493 -0.2860  0.2023  0.4408
   56CHL1   H20 4121   6.272   1.033   3.514 -0.4927  0.2444 -0.3035
   56CHL1   C21 4122   6.326   1.245   3.462  0.4924  0.6478 -0.0657
   56CHL1  H21A 4123   6.309   1.299   3.558  1.0743 -2.7519  2.1571
   56CHL1  H21B 4124   6.228   1.239   3.410 -0.5511 -1.3182  1.9171
   56CHL1  H21C 4125   6.408   1.292   3.404 -0.6482  1.7310 -0.8520
   56CHL1   C22 4126   6.457   1.082   3.611 -0.7622 -0.9385 -0.3398
   56CHL1  H22A 4127   6.487   0.977   3.631  2.2077 -0.2248 -0.5938
   56CHL1  H22B 4128   6.551   1.138   3.592 -2.3313  1.4262 -1.6654
   56CHL1   C23 4129   6.390   1.136   3.733 -0.2001 -0.0229 -0.3215
   56CHL1  H23A 4130   6.376   1.246   3.730 -0.4832 -0.0795 -1.3815
   56CHL1  H23B 4131   6.285   1.101   3.733 -0.5017  0.6352 -2.9777
   56CHL1   C24 4132   6.474   1.092   3.862 -0.3123  0.1354  0.5956
   56CHL1  H24A 4133   6.418   1.118   3.954 -0.0280 -0.1605  0.8533
   56CHL1  H24B 4134   6.484   0.982   3.858 -1.6685  0.0350 -1.3712
   56CHL1   C25 4135   6.615   1.157   3.876  0.0660  0.5709 -0.8638
   56CHL1   H25 4136   6.661   1.122   3.781  1.8442 -2.4168  0.9360
   56CHL1   C26 4137   6.611   1.311   3.871  0.1839  0.2055  0.6945
   56CHL1  H26A 4138   6.541   1.346   3.950  0.7237  3.3102 -0.0809
   56CHL1  H26B 4139   6.711   1.355   3.889 -0.1581  0.9494  0.8314
   56CHL1  H26C 4140   6.586   1.356   3.773  0.9851 -2.3218 -0.7702
   56CHL1   C27 4141   6.700   1.091   3.987 -0.0096 -0.1701 -0.2087
   56CHL1  H27A 4142   6.685   0.981   3.993 -0.8352 -0.0865 -0.5612
   56CHL1  H27B 4143   6.806   1.122   3.975 -0.1311 -0.3607 -2.1616
   56CHL1  H27C 4144   6.665   1.127   4.086  1.4335 -0.7684  0.5378
   57OSM      N 4145   3.496   3.762   6.306 -0.2085  0.4520  0.1211
   57OSM    C15 4146   3.416   3.811   6.421 -1.0274  0.4059 -0.7219
   57OSM   H15A 4147   3.439   3.915   6.438  0.2309 -0.0990  0.8732
   57OSM   H15B 4148   3.444   3.762   6.512 -0.8776  0.2359 -0.8594
   57OSM   H15C 4149   3.308   3.812   6.407 -1.1142  0.0473 -0.0976
   57OSM    C14 4150   3.475   3.618   6.279 -0.0955  0.6118 -0.8286
   57OSM   H14A 4151   3.551   3.584   6.209  1.2862 -0.6583  1.1975
   57OSM   H14B 4152   3.380   3.589   6.237 -1.1820  0.9409  1.3053
   57OSM   H14C 4153   3.484   3.559   6.368 -0.2129  3.0420  0.8869
   57OSM    C13 4154   3.461   3.831   6.177 -0.5220  1.2177 -0.0242
   57OSM   H13A 4155   3.461   3.938   6.191  4.0418  1.5734 -1.2636
   57OSM   H13B 4156   3.361   3.808   6.142 -0.6062  3.2932 -1.2971
   57OSM   H13C 4157   3.526   3.803   6.095  0.5680  1.4701  0.7427
   57OSM    C12 4158   3.638   3.788   6.325 -0.3641  0.0027  0.0208
   57OSM   H12A 4159   3.644   3.896   6.329 -1.5010  0.1916 -2.0785
   57OSM   H12B 4160   3.695   3.757   6.239  1.7129  0.6896  1.0629
   57OSM    C11 4161   3.707   3.727   6.447  0.0184 -0.1186  0.4170
   57OSM   H11A 4162   3.673   3.767   6.545  0.5811 -1.3722  1.1524
   57OSM   H11B 4163   3.814   3.757   6.448  0.3481 -1.2628  1.1837
   57OSM      P 4164   3.778   3.485   6.370  0.1532 -0.1350  0.1320
   57OSM    O13 4165   3.895   3.443   6.446  1.1072  0.2552 -0.2550
   57OSM    O14 4166   3.688   3.375   6.334  0.5195 -0.0897  0.1171
   57OSM    O11 4167   3.825   3.567   6.240 -0.2291  0.1867 -0.0630
   57OSM    O12 4168   3.692   3.588   6.456  0.3963  0.4646 -0.6479
   57OSM    C1S 4169   3.957   3.598   6.197  0.2230 -0.3214  0.4115
   57OSM    H1S 4170   4.029   3.514   6.204  2.1996  1.3216  0.7651
   57OSM    H1T 4171   4.008   3.680   6.252  0.6750 -1.0184  1.0364
   57OSM     NF 4172   4.092   3.669   6.007  0.0903 -0.0729  0.3399
   57OSM    HNF 4173   4.114   3.766   5.998  0.2269 -0.2253 -1.2711
   57OSM    C2S 4174   3.955   3.637   6.048  0.2511 -0.1972  0.6297
   57OSM    H2S 4175   3.923   3.542   5.999  1.8320 -0.3007 -0.2563
   57OSM    C3S 4176   3.849   3.744   6.025  0.1616  0.1465  0.4198
   57OSM    H3S 4177   3.864   3.836   6.086 -1.0427  1.0152 -0.5241
   57OSM     O3 4178   3.714   3.692   6.048  0.1656  0.0723 -0.4774
   57OSM    HO3 4179   3.731   3.600   6.067  1.8986  0.4661  0.0744
   57OSM    C4S 4180   3.858   3.783   5.881 -0.6946  1.7541  0.7771
   57OSM    H4S 4181   3.814   3.716   5.806  0.1723  1.9626  0.0660
   57OSM    C5S 4182   3.898   3.898   5.830 -0.0191  0.1094 -0.0684
   57OSM    H5S 4183   3.927   3.983   5.893 -1.9750  2.0549 -1.6575
   57OSM    C6S 4184   3.920   3.918   5.679  0.0022  1.1479 -0.5439
   57OSM    H6S 4185   4.024   3.953   5.668  2.1920 -4.2455  0.1636
   57OSM    H6T 4186   3.872   4.012   5.644  1.1520  1.1356 -2.2480
   57OSM    C7S 4187   3.878   3.809   5.574  0.0653 -0.3723 -0.8654
   57OSM    H7S 4188   3.773   3.777   5.593  0.2857  0.7304  3.1096
   57OSM    H7T 4189   3.933   3.720   5.611 -1.5535 -1.0017  0.1375
   57OSM    C8S 4190   3.904   3.857   5.426  0.5764  0.2320 -0.4712
   57OSM    H8S 4191   3.900   3.762   5.368  2.1641 -0.1077 -0.0687
   57OSM    H8T 4192   4.005   3.900   5.409  0.6740  0.0509 -0.3542
   57OSM    C9S 4193   3.799   3.955   5.366  0.3870 -0.8545  0.1521
   57OSM    H9S 4194   3.791   4.053   5.418 -2.2615 -0.7831 -0.2263
   57OSM    H9T 4195   3.695   3.916   5.378  0.0962 -0.1357  0.0192
   57OSM   C10S 4196   3.833   3.989   5.216 -0.4057 -0.5258  0.2055
   57OSM   H10S 4197   3.846   3.898   5.154  0.4014  1.7850 -3.3430
   57OSM   H10T 4198   3.928   4.047   5.221 -0.8797  0.1630  3.0296
   57OSM   C11S 4199   3.729   4.081   5.155 -0.2314 -0.0758  0.5410
   57OSM   H11S 4200   3.741   4.184   5.196 -1.4601  0.3696 -0.1867
   57OSM   H11T 4201   3.625   4.055   5.183 -0.5549  1.3041  0.6765
   57OSM   C12S 4202   3.744   4.091   4.998  0.6356  0.0517  0.5054
   57OSM   H12S 4203   3.709   3.995   4.956 -2.2994  0.0753  2.5706
   57OSM   H12T 4204   3.851   4.107   4.973  0.3521 -1.3612 -1.9150
   57OSM   C13S 4205   3.654   4.196   4.935 -0.3920  0.0320  0.3523
   57OSM   H13S 4206   3.668   4.297   4.980  1.2053 -0.1958  0.4195
   57OSM   H13T 4207   3.547   4.170   4.951 -0.2931 -0.6207 -0.0230
   57OSM   C14S 4208   3.669   4.191   4.785  0.3064  0.2427 -0.3528
   57OSM   H14S 4209   3.592   4.123   4.743 -0.2754  0.5904  0.1265
   57OSM   H14T 4210   3.772   4.160   4.757  1.5292  3.8378 -0.3625
   57OSM   C15S 4211   3.633   4.330   4.726  0.6634 -0.6492 -0.1460
   57OSM   H15S 4212   3.704   4.409   4.758  0.5876 -0.9037  0.6907
   57OSM   H15T 4213   3.543   4.368   4.780  1.3726  0.2186  0.4711
   57OSM   C16S 4214   3.610   4.327   4.575 -0.8205  0.0253 -0.1247
   57OSM   H16S 4215   3.551   4.236   4.549 -0.0275 -0.7732  0.7449
   57OSM   H16T 4216   3.710   4.318   4.527 -0.5099 -1.2148  0.6870
   57OSM   C17S 4217   3.538   4.446   4.520  0.6472 -0.0993 -0.0712
   57OSM   H17S 4218   3.526   4.436   4.410 -0.2048 -0.1603  0.0238
   57OSM   H17T 4219   3.602   4.531   4.551  0.9547 -0.5225  0.4734
   57OSM   C18S 4220   3.391   4.465   4.566  1.7167  0.0367 -0.1046
   57OSM   H18S 4221   3.394   4.526   4.659 -0.4852  1.4406 -0.8747
   57OSM   H18T 4222   3.331   4.374   4.587  1.1242  0.2066 -1.0111
   57OSM   H18U 4223   3.353   4.526   4.481  1.8187  2.7788  1.6873
   57OSM    C1F 4224   4.179   3.564   5.981  0.5566 -0.5721  0.0625
   57OSM     OF 4225   4.138   3.449   5.993  0.0345  0.9421  0.2308
   57OSM    C2F 4226   4.317   3.598   5.940  0.3641 -0.6772 -0.1417
   57OSM    H2F 4227   4.391   3.555   6.011 -0.0357 -1.1423 -0.0027
   57OSM    H2G 4228   4.322   3.708   5.955  0.7548 -0.7736  0.4757
   57OSM    C3F 4229   4.354   3.574   5.792 -0.6512  0.1273  0.1325
   57OSM    H3F 4230   4.343   3.467   5.763  2.4644  0.2217 -1.8623
   57OSM    H3G 4231   4.462   3.599   5.789 -0.7747  0.5383 -1.4516
   57OSM    C4F 4232   4.284   3.664   5.689 -0.1288  0.7753 -0.3389
   57OSM    H4F 4233   4.293   3.773   5.708  0.4502  0.5982  0.4366
   57OSM    H4G 4234   4.174   3.646   5.694 -0.4487  1.8635 -2.4133
   57OSM    C5F 4235   4.334   3.634   5.546  0.5434 -0.5080  0.3550
   57OSM    H5F 4236   4.310   3.530   5.515 -0.4664 -0.3350  0.5050
   57OSM    H5G 4237   4.444   3.646   5.540  0.3279  0.8022 -2.1798
   57OSM    C6F 4238   4.279   3.733   5.445 -0.5873 -0.0985  0.3430
   57OSM    H6F 4239   4.339   3.826   5.443 -0.1327 -0.3829 -1.5644
   57OSM    H6G 4240   4.172   3.759   5.459  0.2010  2.2222  2.9661
   57OSM    C7F 4241   4.287   3.674   5.301  0.2843  0.3192  0.2804
   57OSM    H7F 4242   4.227   3.581   5.298  1.0411 -0.1521 -1.8194
   57OSM    H7G 4243   4.397   3.657   5.294  0.5681  1.5067  1.3406
   57OSM    C8F 4244   4.237   3.774   5.195 -0.0354  0.1966 -0.3312
   57OSM    H8F 4245   4.137   3.813   5.220  0.2924  0.7200  0.1941
   57OSM    H8G 4246   4.233   3.702   5.111  2.3094 -0.6120  0.1601
   57OSM    C9F 4247   4.337   3.885   5.170  0.5616 -0.3276 -0.1192
   57OSM    H9F 4248   4.440   3.865   5.205  0.6100  1.7256  1.0833
   57OSM   C10F 4249   4.306   4.011   5.134 -0.1251 -0.6266 -0.2564
   57OSM   H10F 4250   4.380   4.093   5.129 -0.6461 -0.1595 -0.3444
   57OSM   C11F 4251   4.170   4.062   5.110  0.4850  0.1911  0.5460
   57OSM   H11F 4252   4.160   4.161   5.160  2.0322  0.7113 -0.1157
   57OSM   H11G 4253   4.089   3.995   5.146  0.4871 -0.1615 -0.1000
   57OSM   C12F 4254   4.159   4.106   4.959  0.1993  0.5243 -0.2080
   57OSM   H12F 4255   4.246   4.169   4.932  1.0954 -0.3186  0.6755
   57OSM   H12G 4256   4.070   4.167   4.931  0.7717  1.6515  0.3737
   57OSM   C13F 4257   4.164   3.982   4.865  0.4745  0.0409  0.0851
   57OSM   H13F 4258   4.251   3.913   4.874 -0.0123 -0.8052 -1.3002
   57OSM   H13G 4259   4.168   4.017   4.760  0.4713 -0.7655 -0.1898
   57OSM   C14F 4260   4.035   3.889   4.873 -0.2319 -0.0969 -0.1818
   57OSM   H14F 4261   3.945   3.951   4.853  1.5978  2.0285 -2.4414
   57OSM   H14G 4262   4.042   3.839   4.972  1.8442  0.5541  0.0461
   57OSM   C15F 4263   4.027   3.771   4.773  0.3731  0.0062 -0.2006
   57OSM   H15F 4264   3.978   3.689   4.831  0.6292  0.3468  0.5062
   57OSM   H15G 4265   4.128   3.735   4.746 -0.3975 -1.0272 -1.8455
   57OSM   C16F 4266   3.949   3.797   4.642  0.2893  0.5060 -0.0636
   57OSM   H16F 4267   4.020   3.849   4.575  1.4821  0.2047  0.9428
   57OSM   H16G 4268   3.869   3.874   4.650  0.4305  0.5139  1.4443
   57OSM   C17F 4269   3.903   3.670   4.581  0.1202  0.7456  1.0522
   57OSM   H17F 4270   3.840   3.710   4.498  0.6529  0.9228  0.7320
   57OSM   H17G 4271   3.850   3.609   4.657 -0.0840 -0.0725  0.2766
   57OSM   C18F 4272   4.013   3.577   4.523 -0.3948 -0.2966  0.0369
   57OSM   H18F 4273   3.976   3.504   4.447 -0.1257  0.1469 -0.5277
   57OSM   H18G 4274   4.063   3.532   4.611 -0.8061 -0.5282  0.1539
   57OSM   H18H 4275   4.078   3.644   4.462 -2.6641  0.2944 -1.8996
   58OSM      N 4276   3.711   3.084   6.743  0.1166  0.0502 -0.0756
   58OSM    C15 4277   3.781   3.188   6.662 -0.0374 -0.0407 -0.0618
   58OSM   H15A 4278   3.770   3.165   6.557 -1.7623  2.6676 -0.5664
   58OSM   H15B 4279   3.886   3.182   6.687  0.6688  1.6971 -2.2595
   58OSM   H15C 4280   3.747   3.287   6.687  1.2420 -0.2197  2.7400
   58OSM    C14 4281   3.772   2.950   6.722  0.1181 -0.9465 -0.0437
   58OSM   H14A 4282   3.744   2.905   6.628 -0.3099 -1.2620  0.2298
   58OSM   H14B 4283   3.735   2.888   6.801 -0.6546 -0.3151  0.1079
   58OSM   H14C 4284   3.879   2.955   6.720  0.1817 -1.4159  1.3804
   58OSM    C13 4285   3.732   3.112   6.892  0.1354 -0.3433  0.0797
   58OSM   H13A 4286   3.678   3.041   6.952  0.9833 -0.6945  0.4323
   58OSM   H13B 4287   3.697   3.212   6.914 -0.9466 -0.9618  1.2838
   58OSM   H13C 4288   3.833   3.103   6.928  0.0229  0.6179  0.6755
   58OSM    C12 4289   3.558   3.086   6.719 -0.7354  0.0240 -1.4905
   58OSM   H12A 4290   3.525   3.189   6.724  0.4164  0.3355  1.8639
   58OSM   H12B 4291   3.520   3.032   6.805 -1.5934  0.7758 -1.3832
   58OSM    C11 4292   3.499   3.023   6.585 -0.5517  0.2091 -0.5201
   58OSM   H11A 4293   3.567   3.055   6.504  0.2712  0.9633  0.4524
   58OSM   H11B 4294   3.396   3.062   6.565 -1.5307 -1.2672  1.3739
   58OSM      P 4295   3.521   2.783   6.482 -0.2044  0.2180 -0.0909
   58OSM    O13 4296   3.650   2.719   6.512 -0.2675 -0.5427 -0.4360
   58OSM    O14 4297   3.397   2.703   6.473 -0.4567  0.2241  0.2349
   58OSM    O11 4298   3.531   2.870   6.350 -0.0466 -0.2354  0.1387
   58OSM    O12 4299   3.496   2.885   6.605  0.4897 -0.1646 -0.0631
   58OSM    C1S 4300   3.650   2.901   6.275 -0.3413  1.2808  0.9345
   58OSM    H1S 4301   3.723   2.819   6.289  1.2222  1.6798 -3.2700
   58OSM    H1T 4302   3.703   2.992   6.311 -0.1969  1.6149 -0.0867
   58OSM     NF 4303   3.741   2.897   6.053  0.0728 -0.9538 -0.5051
   58OSM    HNF 4304   3.782   2.988   6.051  0.6531 -1.1410  1.3719
   58OSM    C2S 4305   3.614   2.904   6.127  0.0452 -0.3239 -0.4626
   58OSM    H2S 4306   3.553   2.815   6.098  0.4396 -1.0729  0.9148
   58OSM    C3S 4307   3.532   3.030   6.088  0.0753  0.3717 -0.4337
   58OSM    H3S 4308   3.606   3.113   6.098 -0.2568  0.4122  3.3059
   58OSM     O3 4309   3.429   3.058   6.183 -0.2625 -0.1300  0.5549
   58OSM    HO3 4310   3.440   2.988   6.248 -1.7189 -0.0548  0.9117
   58OSM    C4S 4311   3.468   3.019   5.955  0.5271 -0.4586  0.0033
   58OSM    H4S 4312   3.426   2.921   5.929 -0.6317  0.0239 -0.0022
   58OSM    C5S 4313   3.471   3.112   5.859  0.1421  0.2655  0.7967
   58OSM    H5S 4314   3.531   3.203   5.874  0.8940  0.0365 -0.6208
   58OSM    C6S 4315   3.414   3.100   5.715 -0.1692 -0.0991 -0.0516
   58OSM    H6S 4316   3.349   3.189   5.704  2.5805  2.3377  1.8840
   58OSM    H6T 4317   3.353   3.007   5.707  2.3129 -2.1748  2.6174
   58OSM    C7S 4318   3.519   3.110   5.602 -0.3259 -0.1432 -0.4025
   58OSM    H7S 4319   3.587   3.022   5.603  0.8057  0.7069  1.1641
   58OSM    H7T 4320   3.570   3.206   5.623  0.6780 -0.7737  0.0806
   58OSM    C8S 4321   3.450   3.129   5.469 -0.6921 -0.1132 -0.0263
   58OSM    H8S 4322   3.400   3.228   5.473 -1.3504 -0.4622  0.6871
   58OSM    H8T 4323   3.371   3.051   5.469  0.2301 -1.0825 -0.5070
   58OSM    C9S 4324   3.542   3.125   5.344 -0.5204 -0.0050 -0.1431
   58OSM    H9S 4325   3.590   3.025   5.345 -1.0519 -0.2866 -0.9187
   58OSM    H9T 4326   3.624   3.196   5.365 -0.6759 -0.1911  1.1710
   58OSM   C10S 4327   3.473   3.172   5.216  0.2316  0.1531 -0.4441
   58OSM   H10S 4328   3.461   3.282   5.222  2.3982  0.3929  0.2290
   58OSM   H10T 4329   3.376   3.121   5.197  0.3589 -0.2155 -0.1067
   58OSM   C11S 4330   3.551   3.141   5.083 -0.1236 -0.5793 -0.3559
   58OSM   H11S 4331   3.579   3.034   5.094  0.8883 -0.5581 -2.2729
   58OSM   H11T 4332   3.644   3.202   5.083  0.7138 -1.7936  0.9637
   58OSM   C12S 4333   3.469   3.171   4.961  0.1879  0.0472  0.0137
   58OSM   H12S 4334   3.536   3.200   4.877  1.4115  2.9458  1.8016
   58OSM   H12T 4335   3.425   3.270   4.987  2.6166  1.6836 -1.6835
   58OSM   C13S 4336   3.374   3.054   4.932  0.6511 -0.9767  1.2956
   58OSM   H13S 4337   3.310   3.044   5.022  0.0104 -1.2239  0.8215
   58OSM   H13T 4338   3.431   2.958   4.936  1.3775 -0.5762  0.8027
   58OSM   C14S 4339   3.290   3.061   4.807 -0.2042  0.5338  0.9760
   58OSM   H14S 4340   3.353   3.075   4.717 -2.4707 -0.0245 -0.7927
   58OSM   H14T 4341   3.212   3.141   4.811 -1.3382 -0.3699 -1.2957
   58OSM   C15S 4342   3.202   2.935   4.792 -0.4138  1.3068  0.4490
   58OSM   H15S 4343   3.111   2.948   4.731 -2.0636 -1.4118  2.1184
   58OSM   H15T 4344   3.164   2.917   4.895  0.2192  2.0036  0.8172
   58OSM   C16S 4345   3.272   2.797   4.755  0.5881 -0.3602  0.0256
   58OSM   H16S 4346   3.300   2.746   4.850 -0.7760 -0.0785  0.6062
   58OSM   H16T 4347   3.362   2.831   4.700 -0.0941  1.9659  0.2114
   58OSM   C17S 4348   3.181   2.707   4.677 -0.8394  0.3276 -0.7443
   58OSM   H17S 4349   3.245   2.619   4.653  0.1559  0.5984  0.8192
   58OSM   H17T 4350   3.156   2.760   4.583  0.7084  3.6158  0.5689
   58OSM   C18S 4351   3.056   2.659   4.758 -0.1270 -0.1398 -0.3362
   58OSM   H18S 4352   3.006   2.748   4.802  2.4988  0.7284  1.0715
   58OSM   H18T 4353   3.081   2.589   4.840  0.5297 -1.0880 -1.3109
   58OSM   H18U 4354   2.992   2.602   4.687  2.1881 -2.0397 -1.0309
   58OSM    C1F 4355   3.815   2.793   6.033  0.0650  0.6449  0.2544
   58OSM     OF 4356   3.773   2.677   6.045  0.1612  0.2614  0.0135
   58OSM    C2F 4357   3.958   2.827   5.993 -0.8913 -0.9885  0.1224
   58OSM    H2F 4358   4.026   2.795   6.075  1.2312  0.8184 -0.8496
   58OSM    H2G 4359   3.978   2.934   5.971  0.0562 -0.9782  0.9780
   58OSM    C3F 4360   4.013   2.750   5.870 -0.1730 -0.3212 -0.4251
   58OSM    H3F 4361   3.981   2.793   5.773  1.7566  0.3259 -0.8080
   58OSM    H3G 4362   4.005   2.641   5.886 -2.9682 -0.2876 -1.1269
   58OSM    C4F 4363   4.165   2.765   5.869  0.2092  0.5887  0.3989
   58OSM    H4F 4364   4.205   2.722   5.963 -0.8035  0.5361  0.8245
   58OSM    H4G 4365   4.185   2.874   5.872 -0.3040  0.7340  4.2198
   58OSM    C5F 4366   4.222   2.697   5.736 -0.1697 -0.0101 -0.7295
   58OSM    H5F 4367   4.184   2.593   5.745  0.5127 -0.2562 -0.6200
   58OSM    H5G 4368   4.332   2.694   5.748 -0.0438  3.1380 -0.1457
   58OSM    C6F 4369   4.178   2.766   5.610  0.4389 -1.0206 -0.2823
   58OSM    H6F 4370   4.178   2.877   5.613  1.9598 -1.0002 -0.5241
   58OSM    H6G 4371   4.069   2.741   5.609  0.0937  0.3524  0.6633
   58OSM    C7F 4372   4.248   2.696   5.495 -0.5267  0.0197 -0.4332
   58OSM    H7F 4373   4.356   2.693   5.523 -1.0102 -1.0510  1.4880
   58OSM    H7G 4374   4.247   2.767   5.410  3.5067  0.3628 -0.3751
   58OSM    C8F 4375   4.205   2.555   5.457 -0.4505  1.3634 -0.2863
   58OSM    H8F 4376   4.107   2.578   5.410 -0.8623  0.8970  0.3160
   58OSM    H8G 4377   4.181   2.493   5.547  0.0454  1.1893 -0.2731
   58OSM    C9F 4378   4.291   2.490   5.358 -0.3288  0.1151 -0.8818
   58OSM    H9F 4379   4.337   2.394   5.388 -1.3623  0.3640  1.6944
   58OSM   C10F 4380   4.301   2.520   5.229  0.2164  0.0041  0.4030
   58OSM   H10F 4381   4.371   2.461   5.168 -1.8756 -1.3560 -0.8250
   58OSM   C11F 4382   4.229   2.631   5.160 -0.2062 -0.3880 -0.2201
   58OSM   H11F 4383   4.300   2.717   5.162  0.3727 -0.7943 -2.1066
   58OSM   H11G 4384   4.136   2.661   5.213 -0.1299  0.6483 -0.6416
   58OSM   C12F 4385   4.192   2.605   5.008 -0.5277  0.1179 -0.3497
   58OSM   H12F 4386   4.105   2.668   4.978 -0.3000  0.1731 -0.9118
   58OSM   H12G 4387   4.155   2.501   4.995  2.5685 -1.1698  0.2351
   58OSM   C13F 4388   4.317   2.618   4.926  0.2097 -0.4519  0.1593
   58OSM   H13F 4389   4.405   2.558   4.959 -0.2490 -2.3606 -1.8161
   58OSM   H13G 4390   4.341   2.726   4.938 -1.5018  0.0287 -0.5546
   58OSM   C14F 4391   4.296   2.621   4.768  0.0591  0.1714 -0.0736
   58OSM   H14F 4392   4.373   2.691   4.730 -2.2304  3.1661  0.5109
   58OSM   H14G 4393   4.201   2.676   4.757  0.7622  0.8670 -3.7256
   58OSM   C15F 4394   4.304   2.483   4.697 -0.2972  0.3168  0.6494
   58OSM   H15F 4395   4.221   2.418   4.734 -0.1950 -0.5698 -0.6048
   58OSM   H15G 4396   4.400   2.436   4.726  0.5095  1.4358 -0.1319
   58OSM   C16F 4397   4.298   2.498   4.549 -0.2071 -0.2439  0.6301
   58OSM   H16F 4398   4.383   2.558   4.508  0.9961 -2.4603 -0.3102
   58OSM   H16G 4399   4.201   2.544   4.522 -0.4082 -0.4313  1.0357
   58OSM   C17F 4400   4.303   2.360   4.476 -0.4719  0.2683 -0.0841
   58OSM   H17F 4401   4.281   2.360   4.367 -0.3903  0.3354 -0.1004
   58OSM   H17G 4402   4.237   2.291   4.534 -0.6436  0.4707 -0.0391
   58OSM   C18F 4403   4.437   2.306   4.490 -0.7440  0.4531 -0.3140
   58OSM   H18F 4404   4.504   2.375   4.434  0.5956  1.2315  2.1271
   58OSM   H18G 4405   4.443   2.202   4.453 -0.6360 -0.7017  2.7006
   58OSM   H18H 4406   4.473   2.293   4.594  0.3687 -0.8793 -0.8332
   59OSM      N 4407   3.864   4.404   6.808  0.1464  0.2674  0.1733
   59OSM    C15 4408   4.012   4.363   6.819  0.6155  0.0836 -0.3930
   59OSM   H15A 4409   4.049   4.342   6.720  1.8994  2.1879 -0.4108
   59OSM   H15B 4410   4.043   4.277   6.878  0.4036  0.7737  0.7623
   59OSM   H15C 4411   4.078   4.444   6.846  3.2512 -1.7685 -0.8085
   59OSM    C14 4412   3.789   4.278   6.791  0.1595 -1.0112 -0.3125
   59OSM   H14A 4413   3.685   4.302   6.776  0.8577  4.1514  1.2029
   59OSM   H14B 4414   3.798   4.216   6.879 -1.5523  0.2559  0.8153
   59OSM   H14C 4415   3.829   4.219   6.710  2.1499 -1.2150  0.7494
   59OSM    C13 4416   3.828   4.453   6.943 -0.6158 -0.1766  0.7814
   59OSM   H13A 4417   3.852   4.372   7.010 -0.2550 -1.0862 -0.4167
   59OSM   H13B 4418   3.721   4.474   6.946 -0.9381 -0.8162 -2.4718
   59OSM   H13C 4419   3.884   4.543   6.961  1.0907 -1.1299  0.3770
   59OSM    C12 4420   3.833   4.507   6.704 -0.3107  0.3369  0.1132
   59OSM   H12A 4421   3.892   4.595   6.725  1.0886 -0.5767  0.1535
   59OSM   H12B 4422   3.728   4.530   6.700 -0.0265  1.6509 -0.3144
   59OSM    C11 4423   3.856   4.482   6.553  0.8842 -0.0500 -0.4045
   59OSM   H11A 4424   3.844   4.581   6.505  3.4184  1.7010  2.2426
   59OSM   H11B 4425   3.781   4.406   6.522 -0.4532 -0.6393  3.6427
   59OSM      P 4426   4.019   4.303   6.453 -0.0163  0.2727  0.2490
   59OSM    O13 4427   4.167   4.273   6.460  0.1602 -0.9497  0.1842
   59OSM    O14 4428   3.925   4.207   6.508 -0.5027  0.2667  0.5034
   59OSM    O11 4429   3.977   4.337   6.308  0.3946  0.5821 -0.9418
   59OSM    O12 4430   3.991   4.440   6.523 -0.6181  0.4717 -0.1142
   59OSM    C1S 4431   4.064   4.353   6.199 -0.0903 -0.0889 -0.4719
   59OSM    H1S 4432   4.094   4.249   6.175 -2.4685 -1.4775  2.0627
   59OSM    H1T 4433   4.157   4.409   6.223 -0.3091  0.9954 -2.0200
   59OSM     NF 4434   4.055   4.422   5.966 -0.3902  0.2319  0.3786
   59OSM    HNF 4435   4.098   4.510   5.946  2.2399 -1.1705 -0.6235
   59OSM    C2S 4436   3.980   4.419   6.085 -0.0509 -0.2429  0.5723
   59OSM    H2S 4437   3.886   4.360   6.071 -1.5112  2.5359 -3.1410
   59OSM    C3S 4438   3.924   4.560   6.126  0.3486 -0.1169 -0.4280
   59OSM    H3S 4439   4.012   4.628   6.136  1.2870 -1.2923 -0.4381
   59OSM     O3 4440   3.842   4.564   6.250 -1.1315  0.4690  0.5684
   59OSM    HO3 4441   3.877   4.482   6.286 -3.0522 -0.4410  0.4898
   59OSM    C4S 4442   3.828   4.600   6.016 -0.1975  0.1788  0.4189
   59OSM    H4S 4443   3.734   4.544   6.005 -1.5211  2.5537 -1.2773
   59OSM    C5S 4444   3.845   4.713   5.945 -0.3385 -0.2723  0.5325
   59OSM    H5S 4445   3.939   4.770   5.947 -1.5831  2.0202 -1.0859
   59OSM    C6S 4446   3.743   4.769   5.848 -0.0033  0.1876 -0.3570
   59OSM    H6S 4447   3.693   4.849   5.905 -1.0243 -1.0329  0.5167
   59OSM    H6T 4448   3.656   4.701   5.831  0.8628 -0.5852 -1.9518
   59OSM    C7S 4449   3.794   4.833   5.715 -0.4852  0.2895  0.3240
   59OSM    H7S 4450   3.856   4.758   5.663 -1.3432  0.3651 -0.8488
   59OSM    H7T 4451   3.859   4.920   5.740 -1.8121  1.7692 -1.1239
   59OSM    C8S 4452   3.695   4.879   5.615 -0.3154  0.8423  0.1636
   59OSM    H8S 4453   3.645   4.971   5.652 -0.5820  0.4890  0.7007
   59OSM    H8T 4454   3.622   4.797   5.596  2.1114 -1.5496  0.5137
   59OSM    C9S 4455   3.752   4.918   5.475 -0.5524 -0.2469 -0.5702
   59OSM    H9S 4456   3.791   4.826   5.428 -0.3800 -0.2006 -0.5206
   59OSM    H9T 4457   3.841   4.984   5.488 -0.6379  0.0728 -1.5728
   59OSM   C10S 4458   3.658   4.993   5.383  0.4001  0.9856  0.2273
   59OSM   H10S 4459   3.622   5.085   5.435 -0.9853  0.6002 -0.0009
   59OSM   H10T 4460   3.569   4.935   5.353  0.5068  2.2928 -3.0125
   59OSM   C11S 4461   3.721   5.039   5.253 -1.2547  0.1548  0.4286
   59OSM   H11S 4462   3.777   4.950   5.216 -3.6833 -1.6433  0.8594
   59OSM   H11T 4463   3.809   5.103   5.274 -0.6064 -0.0440 -1.4335
   59OSM   C12S 4464   3.634   5.098   5.152 -0.7686  0.1340 -0.0778
   59OSM   H12S 4465   3.579   5.179   5.204 -1.2686 -0.1705 -0.1193
   59OSM   H12T 4466   3.561   5.025   5.111 -1.5592  1.8328 -1.8206
   59OSM   C13S 4467   3.707   5.164   5.039  0.5468  0.1368 -0.3951
   59OSM   H13S 4468   3.766   5.084   4.990  0.7770 -2.2593  3.3402
   59OSM   H13T 4469   3.784   5.229   5.086 -1.4647  1.8997  0.6146
   59OSM   C14S 4470   3.618   5.231   4.930  0.2266  0.0964 -0.8258
   59OSM   H14S 4471   3.589   5.322   4.986 -1.0411  0.8327 -2.5920
   59OSM   H14T 4472   3.522   5.176   4.913 -0.6365  0.9576  1.0391
   59OSM   C15S 4473   3.695   5.268   4.801 -0.5968 -0.3078 -0.2246
   59OSM   H15S 4474   3.698   5.187   4.725 -0.3387 -1.0153  0.5369
   59OSM   H15T 4475   3.796   5.309   4.819 -1.0497  0.4622  0.6543
   59OSM   C16S 4476   3.617   5.390   4.737 -0.0567  0.4152  0.2324
   59OSM   H16S 4477   3.640   5.471   4.809  1.4196  1.3728 -1.2770
   59OSM   H16T 4478   3.507   5.370   4.739 -0.1709  1.0795  1.1618
   59OSM   C17S 4479   3.659   5.442   4.596  0.2358  0.3520 -0.6291
   59OSM   H17S 4480   3.622   5.545   4.614  1.0117  0.4511  0.5790
   59OSM   H17T 4481   3.591   5.395   4.523 -0.1724 -0.3234  0.1588
   59OSM   C18S 4482   3.805   5.457   4.553  0.9360 -0.2234 -0.0856
   59OSM   H18S 4483   3.868   5.365   4.553  0.5909 -0.4583  0.1557
   59OSM   H18T 4484   3.852   5.536   4.615  0.3113 -0.3171  0.5146
   59OSM   H18U 4485   3.816   5.491   4.448  0.7974 -2.6057 -0.9414
   59OSM    C1F 4486   4.087   4.308   5.911 -0.5101 -0.0607  0.0497
   59OSM     OF 4487   4.034   4.205   5.943  0.1233  0.2913 -0.2417
   59OSM    C2F 4488   4.201   4.316   5.804  0.0133 -0.6078 -0.3839
   59OSM    H2F 4489   4.292   4.270   5.847 -0.3533  0.9612  2.2968
   59OSM    H2G 4490   4.226   4.423   5.788  2.1588 -1.0947 -0.5478
   59OSM    C3F 4491   4.161   4.239   5.676 -0.2057  0.3841  0.1016
   59OSM    H3F 4492   4.117   4.145   5.714  1.1024  0.5479  2.1946
   59OSM    H3G 4493   4.248   4.220   5.610 -1.0484 -0.7220 -0.7179
   59OSM    C4F 4494   4.073   4.331   5.593  0.2550 -0.7641  0.3081
   59OSM    H4F 4495   4.120   4.430   5.574 -2.5920  0.3574 -1.6819
   59OSM    H4G 4496   3.974   4.355   5.636  0.0589 -2.0074  0.5958
   59OSM    C5F 4497   4.063   4.266   5.452  0.3450  0.4860 -0.3987
   59OSM    H5F 4498   4.022   4.166   5.476 -0.4988  0.8565 -0.2554
   59OSM    H5G 4499   4.162   4.253   5.404 -0.5271  0.5722 -2.3015
   59OSM    C6F 4500   3.975   4.340   5.349  0.3049 -0.2869 -0.1660
   59OSM    H6F 4501   3.885   4.380   5.401  0.3996 -0.9262  0.5149
   59OSM    H6G 4502   3.942   4.266   5.274  0.5826  0.7564 -1.3456
   59OSM    C7F 4503   4.058   4.449   5.281  0.4247  0.3746 -0.1441
   59OSM    H7F 4504   4.151   4.405   5.239  0.5616 -0.2508  0.7934
   59OSM    H7G 4505   4.090   4.531   5.350 -0.9187  2.0996 -1.4626
   59OSM    C8F 4506   4.001   4.519   5.157 -0.1188  0.1453 -0.5435
   59OSM    H8F 4507   4.076   4.596   5.129  1.4281 -1.7963 -2.0356
   59OSM    H8G 4508   3.911   4.573   5.195 -0.2994  0.2678 -1.1309
   59OSM    C9F 4509   3.962   4.426   5.041 -0.0568 -0.0444 -0.4948
   59OSM    H9F 4510   3.921   4.327   5.065 -0.3657  0.3422  0.6519
   59OSM   C10F 4511   3.968   4.463   4.913  0.0469  0.0522  0.3355
   59OSM   H10F 4512   3.922   4.398   4.836  0.8299 -2.4210  1.8410
   59OSM   C11F 4513   4.011   4.602   4.858 -0.1913 -0.1145  1.0429
   59OSM   H11F 4514   4.095   4.643   4.919 -0.4035  0.8401  0.7104
   59OSM   H11G 4515   3.924   4.670   4.867  1.3669  1.9737  1.1568
   59OSM   C12F 4516   4.049   4.596   4.705 -0.0415  0.0333 -0.4612
   59OSM   H12F 4517   4.134   4.525   4.691  1.2964  1.6646 -1.0267
   59OSM   H12G 4518   4.098   4.693   4.681 -1.6815  1.2680  0.9391
   59OSM   C13F 4519   3.936   4.567   4.608 -0.2746 -0.0485  0.2492
   59OSM   H13F 4520   3.861   4.650   4.607 -0.0999  0.1190 -1.1639
   59OSM   H13G 4521   3.891   4.478   4.657  0.5702 -0.4589  0.2965
   59OSM   C14F 4522   3.974   4.515   4.469  0.4276 -0.7774  0.7297
   59OSM   H14F 4523   4.013   4.603   4.414  1.5135 -0.8407  1.3706
   59OSM   H14G 4524   3.877   4.499   4.416  0.4632 -0.3295  0.5256
   59OSM   C15F 4525   4.071   4.394   4.461  0.5282 -0.3805 -0.4887
   59OSM   H15F 4526   4.153   4.406   4.535 -1.4352  1.4737  1.5267
   59OSM   H15G 4527   4.123   4.383   4.363  2.4071 -0.1837  0.4251
   59OSM   C16F 4528   3.994   4.264   4.493 -0.0404 -1.0384  0.3515
   59OSM   H16F 4529   3.904   4.251   4.430 -0.2939 -0.0307  0.4973
   59OSM   H16G 4530   3.965   4.262   4.600 -1.9702 -2.6789 -0.1563
   59OSM   C17F 4531   4.096   4.150   4.478  0.3037 -0.0207 -0.2799
   59OSM   H17F 4532   4.043   4.064   4.525 -1.0675  0.9089 -0.0532
   59OSM   H17G 4533   4.188   4.172   4.535  0.0461 -2.0315  1.0494
   59OSM   C18F 4534   4.123   4.110   4.330 -0.1081 -0.2305  0.1267
   59OSM   H18F 4535   4.229   4.079   4.315  0.0946  1.8709 -4.0554
   59OSM   H18G 4536   4.114   4.187   4.251  0.5088 -1.5380 -1.2791
   59OSM   H18H 4537   4.051   4.030   4.300  1.2204 -1.6523  0.5653
   60OSM      N 4538   5.026   3.119   6.276 -0.3812  0.1172  1.5482
   60OSM    C15 4539   4.889   3.174   6.239 -0.0816  0.2218 -0.0994
   60OSM   H15A 4540   4.876   3.191   6.133  0.4664  0.1009 -0.1882
   60OSM   H15B 4541   4.864   3.262   6.296  1.4279 -0.3850  1.5610
   60OSM   H15C 4542   4.805   3.109   6.262  0.2676 -0.0825  0.3289
   60OSM    C14 4543   5.029   3.085   6.419 -0.1968 -0.8412 -0.4702
   60OSM   H14A 4544   5.130   3.086   6.457 -0.8418  0.6266  1.3214
   60OSM   H14B 4545   4.982   2.988   6.424 -2.9076  0.2672 -2.0373
   60OSM   H14C 4546   4.966   3.159   6.466 -1.0931 -1.1249 -1.1860
   60OSM    C13 4547   5.060   3.004   6.192 -0.5698  0.1546 -0.7816
   60OSM   H13A 4548   4.973   2.941   6.182 -1.7711  0.6138  4.0994
   60OSM   H13B 4549   5.149   2.961   6.236 -0.9224  0.6837  0.5046
   60OSM   H13C 4550   5.081   3.034   6.091  1.1509 -1.5603 -0.9911
   60OSM    C12 4551   5.118   3.232   6.252  0.1648 -0.0191 -0.6650
   60OSM   H12A 4552   5.089   3.319   6.310  1.5317 -0.1021  0.1858
   60OSM   H12B 4553   5.092   3.268   6.154 -0.2921 -1.6931 -1.1843
   60OSM    C11 4554   5.276   3.227   6.256 -0.0968 -0.3372 -0.0131
   60OSM   H11A 4555   5.325   3.326   6.245 -0.6025 -0.0783  0.0150
   60OSM   H11B 4556   5.290   3.160   6.168 -0.9635 -0.8025  0.1905
   60OSM      P 4557   5.414   3.047   6.388 -0.2394  0.0728  0.5998
   60OSM    O13 4558   5.487   3.059   6.516  0.0489  0.0760  0.1633
   60OSM    O14 4559   5.323   2.934   6.376  0.4065  0.0944  0.3760
   60OSM    O11 4560   5.510   3.061   6.260 -0.3346 -0.0829 -0.4747
   60OSM    O12 4561   5.324   3.174   6.379  0.1519  1.1756  0.5556
   60OSM    C1S 4562   5.500   2.956   6.163  0.4016  0.3871  0.4285
   60OSM    H1S 4563   5.398   2.920   6.141  0.0681  2.5678 -2.0024
   60OSM    H1T 4564   5.560   2.868   6.196  0.4460  0.8001  1.5031
   60OSM     NF 4565   5.567   2.859   5.944  0.8338  0.3148 -0.4623
   60OSM    HNF 4566   5.656   2.814   5.941  0.3126 -0.8016  0.1503
   60OSM    C2S 4567   5.544   2.994   6.015  0.0796 -0.1365  0.2141
   60OSM    H2S 4568   5.453   3.037   5.967 -0.1454 -0.6124  0.2090
   60OSM    C3S 4569   5.671   3.091   6.009  0.3055  0.7509 -0.3589
   60OSM    H3S 4570   5.750   3.025   6.052 -1.5289  0.4008  2.7003
   60OSM     O3 4571   5.658   3.206   6.083 -0.6640 -0.2266  0.0126
   60OSM    HO3 4572   5.587   3.186   6.145 -1.4154  0.3471 -0.6397
   60OSM    C4S 4573   5.704   3.120   5.861 -0.0716  0.6429  0.6453
   60OSM    H4S 4574   5.778   3.057   5.809 -0.0696  3.2220 -2.8047
   60OSM    C5S 4575   5.652   3.210   5.783  1.2540  0.1683  0.7042
   60OSM    H5S 4576   5.577   3.274   5.833  1.4188  1.3133 -0.4412
   60OSM    C6S 4577   5.684   3.252   5.644  0.5102  0.0721 -0.1566
   60OSM    H6S 4578   5.748   3.343   5.648  0.5002  0.0394  1.2383
   60OSM    H6T 4579   5.587   3.290   5.606 -0.4444 -1.4248  0.7073
   60OSM    C7S 4580   5.737   3.142   5.546 -0.1740 -0.6697  0.4558
   60OSM    H7S 4581   5.673   3.051   5.546  0.2789 -0.9923  0.1662
   60OSM    H7T 4582   5.835   3.111   5.589  0.6645 -1.9649 -2.2051
   60OSM    C8S 4583   5.770   3.201   5.406 -0.4135  0.2426 -1.1298
   60OSM    H8S 4584   5.842   3.285   5.419 -1.6476  1.0994  0.6701
   60OSM    H8T 4585   5.677   3.244   5.363 -0.1801  1.0841 -0.8190
   60OSM    C9S 4586   5.842   3.107   5.313 -0.0744 -0.1170  0.4892
   60OSM    H9S 4587   5.777   3.019   5.292  0.5082  0.0868 -2.7679
   60OSM    H9T 4588   5.934   3.074   5.366 -0.4527 -0.6464  0.8261
   60OSM   C10S 4589   5.881   3.177   5.184  0.2394 -0.1186  0.1432
   60OSM   H10S 4590   5.949   3.263   5.204  0.8687 -0.3970 -0.7322
   60OSM   H10T 4591   5.784   3.213   5.144  0.4931 -0.0901 -0.4514
   60OSM   C11S 4592   5.959   3.089   5.080 -0.0089  0.8270 -0.3323
   60OSM   H11S 4593   5.976   3.145   4.986 -2.2035  0.4050 -1.0578
   60OSM   H11T 4594   5.908   2.995   5.050 -2.0483  1.4896  0.8526
   60OSM   C12S 4595   6.093   3.052   5.139 -0.0640 -0.4802  0.1049
   60OSM   H12S 4596   6.081   2.979   5.221 -0.2887  0.1453  0.6292
   60OSM   H12T 4597   6.131   3.145   5.186 -1.9202  1.5655 -2.1418
   60OSM   C13S 4598   6.191   3.011   5.025  0.7232  0.2867  0.2901
   60OSM   H13S 4599   6.292   3.004   5.073  1.8277  3.2771 -1.3534
   60OSM   H13T 4600   6.192   3.093   4.951 -0.3880 -0.0799 -0.1435
   60OSM   C14S 4601   6.149   2.884   4.943 -0.9896  0.9332 -0.2783
   60OSM   H14S 4602   6.041   2.900   4.924 -1.4435 -1.8840 -0.5002
   60OSM   H14T 4603   6.163   2.793   5.006  1.4356  1.4016 -0.0237
   60OSM   C15S 4604   6.226   2.871   4.806  0.1940  0.0208  0.5969
   60OSM   H15S 4605   6.332   2.891   4.834  0.4954  1.1824 -1.1493
   60OSM   H15T 4606   6.186   2.955   4.745  1.3139 -0.9103 -1.5084
   60OSM   C16S 4607   6.201   2.741   4.727 -0.4654 -0.4694 -0.1348
   60OSM   H16S 4608   6.249   2.663   4.790  2.2004  1.4565  0.3638
   60OSM   H16T 4609   6.253   2.750   4.629 -1.0252 -0.3676 -0.4310
   60OSM   C17S 4610   6.051   2.708   4.716 -0.0817 -0.3377  0.3644
   60OSM   H17S 4611   5.995   2.798   4.683  1.3457  0.0346 -1.1809
   60OSM   H17T 4612   6.010   2.683   4.816  0.2457  0.2031  0.6371
   60OSM   C18S 4613   6.025   2.592   4.622 -0.2272  0.3049  0.0383
   60OSM   H18S 4614   5.918   2.593   4.592 -0.3293 -0.5721  0.3510
   60OSM   H18T 4615   6.044   2.496   4.675 -1.5432  1.5392  3.0055
   60OSM   H18U 4616   6.087   2.586   4.530 -1.0761 -2.1311 -0.4290
   60OSM    C1F 4617   5.467   2.785   5.900  0.9271 -0.1352  1.1289
   60OSM     OF 4618   5.347   2.809   5.917  0.4041  0.1678  0.5554
   60OSM    C2F 4619   5.509   2.667   5.820  0.5088  0.0932 -1.1071
   60OSM    H2F 4620   5.475   2.577   5.875 -0.0475  0.7439 -0.3596
   60OSM    H2G 4621   5.619   2.653   5.829  0.2735 -0.8337  0.8494
   60OSM    C3F 4622   5.464   2.670   5.670  0.1180  0.5352 -0.2032
   60OSM    H3F 4623   5.354   2.670   5.654  0.4217  1.3180 -2.6636
   60OSM    H3G 4624   5.502   2.581   5.615 -1.5913 -0.4746  0.1541
   60OSM    C4F 4625   5.524   2.792   5.588 -0.0039  0.0391 -0.1731
   60OSM    H4F 4626   5.634   2.777   5.579 -0.3436 -3.5206  0.0373
   60OSM    H4G 4627   5.499   2.883   5.646  0.0394 -0.1879  0.2039
   60OSM    C5F 4628   5.460   2.791   5.445  0.2367  0.5139 -0.0319
   60OSM    H5F 4629   5.350   2.787   5.460 -0.3555  0.5337 -3.5675
   60OSM    H5G 4630   5.488   2.697   5.393 -0.2159  1.3837 -1.9338
   60OSM    C6F 4631   5.500   2.911   5.358  0.3394 -0.4226  0.0837
   60OSM    H6F 4632   5.610   2.922   5.355  0.3142 -0.1006  0.3012
   60OSM    H6G 4633   5.464   3.001   5.411 -0.2147  0.8064 -2.2535
   60OSM    C7F 4634   5.442   2.917   5.216  0.0102 -0.6901 -0.5651
   60OSM    H7F 4635   5.332   2.926   5.227 -0.0436  0.4288 -1.7644
   60OSM    H7G 4636   5.463   2.826   5.155  2.0154  0.4402 -1.6502
   60OSM    C8F 4637   5.498   3.047   5.145 -0.0380 -0.1899  0.4577
   60OSM    H8F 4638   5.609   3.059   5.138  0.0847 -0.9624  0.9911
   60OSM    H8G 4639   5.469   3.138   5.202  1.9006  2.1866 -2.0600
   60OSM    C9F 4640   5.446   3.056   5.003  0.0811 -0.2212 -0.1707
   60OSM    H9F 4641   5.364   3.127   4.983 -0.7232 -0.9253  0.5329
   60OSM   C10F 4642   5.501   3.000   4.894 -0.2698  0.1392 -0.2907
   60OSM   H10F 4643   5.474   3.035   4.793 -0.2664 -1.7630 -0.9954
   60OSM   C11F 4644   5.629   2.917   4.889  0.0615  0.1754 -0.6438
   60OSM   H11F 4645   5.612   2.813   4.852  3.2024 -0.6585 -0.0346
   60OSM   H11G 4646   5.671   2.905   4.991 -3.0550 -0.1242  0.7265
   60OSM   C12F 4647   5.732   2.968   4.785 -0.0094 -0.0280 -0.4608
   60OSM   H12F 4648   5.825   2.909   4.798  1.4331  1.5447 -2.8979
   60OSM   H12G 4649   5.761   3.075   4.791 -1.8798  0.5598 -1.3173
   60OSM   C13F 4650   5.685   2.930   4.643 -0.3486  0.2998 -0.2410
   60OSM   H13F 4651   5.587   2.981   4.632 -0.3455  0.5165  0.6942
   60OSM   H13G 4652   5.676   2.819   4.635 -1.1210  0.2158  1.4701
   60OSM   C14F 4653   5.777   2.974   4.533  0.0672 -0.1517 -0.1604
   60OSM   H14F 4654   5.879   2.951   4.569  0.0117  1.6545  1.2698
   60OSM   H14G 4655   5.771   3.085   4.525  1.0190 -0.0429  0.5116
   60OSM   C15F 4656   5.753   2.914   4.392  0.3097  0.9310 -0.5727
   60OSM   H15F 4657   5.644   2.901   4.377  0.2578  1.7779 -1.0060
   60OSM   H15G 4658   5.797   2.812   4.394 -1.0763  0.2671  2.2256
   60OSM   C16F 4659   5.814   3.004   4.286  0.4247  0.1409  0.0883
   60OSM   H16F 4660   5.758   3.099   4.300  1.0194  0.9291 -2.4588
   60OSM   H16G 4661   5.794   2.957   4.188  0.0047 -2.3589  1.2802
   60OSM   C17F 4662   5.966   3.018   4.312  0.1356 -0.4543  0.1729
   60OSM   H17F 4663   6.014   2.919   4.298  1.3482  0.1770 -0.2536
   60OSM   H17G 4664   5.992   3.070   4.407  1.2592 -0.2521 -0.2357
   60OSM   C18F 4665   6.029   3.105   4.200  0.8274  0.3991  0.5455
   60OSM   H18F 4666   5.981   3.081   4.103  0.4962 -0.3794  0.8926
   60OSM   H18G 4667   6.140   3.107   4.206  0.8057  0.0593  1.2514
   60OSM   H18H 4668   5.984   3.204   4.220 -1.7916 -0.5302 -0.3395
   61OSM      N 4669   0.370   3.156   6.218  0.0170 -0.7584  0.0683
   61OSM    C15 4670   0.400   3.194   6.078  0.2852  0.4638  0.2834
   61OSM   H15A 4671   0.452   3.289   6.079 -0.4426  1.1755 -4.3653
   61OSM   H15B 4672   0.310   3.203   6.019 -1.4687 -0.6494  2.6298
   61OSM   H15C 4673   0.466   3.121   6.035 -0.5883  0.4757 -1.1308
   61OSM    C14 4674   0.281   3.272   6.263 -0.3855  0.5259 -0.5025
   61OSM   H14A 4675   0.247   3.257   6.365  0.9206 -0.1178 -0.1385
   61OSM   H14B 4676   0.199   3.288   6.195 -1.0326 -1.4518 -0.2630
   61OSM   H14C 4677   0.332   3.367   6.267 -2.6002  1.8164 -1.4307
   61OSM    C13 4678   0.281   3.045   6.202  0.0011  0.4657 -0.1899
   61OSM   H13A 4679   0.196   3.070   6.139 -1.7810 -0.8116  1.5723
   61OSM   H13B 4680   0.243   3.009   6.296  1.6075 -0.1319  0.2468
   61OSM   H13C 4681   0.324   2.962   6.148 -0.0046  0.7711 -0.6799
   61OSM    C12 4682   0.501   3.142   6.296  0.1270 -0.8434  0.5155
   61OSM   H12A 4683   0.553   3.059   6.250 -0.9424  0.0124 -2.5117
   61OSM   H12B 4684   0.486   3.108   6.397 -0.6623  0.2669  0.7805
   61OSM    C11 4685   0.597   3.262   6.304 -0.0393 -1.2426 -0.2813
   61OSM   H11A 4686   0.664   3.244   6.391 -0.0724  0.6224  0.1696
   61OSM   H11B 4687   0.550   3.359   6.331 -0.0971 -0.9476 -1.4140
   61OSM      P 4688   0.695   3.413   6.120 -0.2103 -0.3679  0.1796
   61OSM    O13 4689   0.566   3.474   6.078  0.0802 -0.0718 -0.2587
   61OSM    O14 4690   0.777   3.494   6.215  0.4230 -0.2354 -0.4426
   61OSM    O11 4691   0.784   3.375   5.996 -1.1021 -0.0246  0.7349
   61OSM    O12 4692   0.665   3.272   6.185  0.5475 -0.0894 -0.2199
   61OSM    C1S 4693   0.748   3.264   5.910  0.0095  0.3119  0.3819
   61OSM    H1S 4694   0.645   3.228   5.931  0.0099  0.3961  0.5367
   61OSM    H1T 4695   0.823   3.182   5.911  3.2168  2.8855 -2.8741
   61OSM     NF 4696   0.689   3.217   5.676 -0.6832 -1.0160  0.3514
   61OSM    HNF 4697   0.746   3.138   5.654  0.3121 -0.4823  0.9212
   61OSM    C2S 4698   0.760   3.312   5.764  0.1472 -0.0761 -0.0837
   61OSM    H2S 4699   0.708   3.409   5.749  1.6726  0.6310 -1.1270
   61OSM    C3S 4700   0.919   3.336   5.747  0.3309  0.0864  0.7950
   61OSM    H3S 4701   0.970   3.238   5.764 -2.8325 -2.6592 -3.3595
   61OSM     O3 4702   0.968   3.438   5.831  0.2023  0.0121 -0.3513
   61OSM    HO3 4703   0.893   3.463   5.884 -0.8126  1.6054 -2.3895
   61OSM    C4S 4704   0.936   3.362   5.599 -0.4624  0.0705 -0.6231
   61OSM    H4S 4705   0.883   3.453   5.564  1.4788  1.1690 -0.8672
   61OSM    C5S 4706   1.023   3.292   5.519 -0.4828  0.5509 -0.3975
   61OSM    H5S 4707   1.071   3.207   5.569 -1.9679 -0.3159 -0.4031
   61OSM    C6S 4708   1.049   3.321   5.377 -0.1314 -0.5646 -0.1525
   61OSM    H6S 4709   1.050   3.232   5.312 -0.4267 -0.3140 -0.5057
   61OSM    H6T 4710   1.152   3.361   5.369 -0.7871  0.9212 -2.0145
   61OSM    C7S 4711   0.959   3.434   5.310  0.1387 -0.5386  0.2698
   61OSM    H7S 4712   0.970   3.534   5.356 -0.3773 -0.2655 -0.1878
   61OSM    H7T 4713   0.851   3.407   5.311  0.3474 -1.5448  2.8103
   61OSM    C8S 4714   0.987   3.453   5.156  0.9110  0.1433  0.4385
   61OSM    H8S 4715   0.971   3.356   5.105 -0.0663 -0.4803  1.8565
   61OSM    H8T 4716   1.094   3.481   5.147  1.2792 -1.3560 -0.2027
   61OSM    C9S 4717   0.895   3.563   5.093 -0.6540  0.6327  0.7923
   61OSM    H9S 4718   0.903   3.662   5.142  1.2973  1.0006 -0.1845
   61OSM    H9T 4719   0.791   3.525   5.101 -0.3827 -0.4321 -0.4163
   61OSM   C10S 4720   0.931   3.586   4.942  0.0042  0.6265  0.1866
   61OSM   H10S 4721   0.925   3.490   4.888 -0.8095  1.3993 -1.1433
   61OSM   H10T 4722   1.036   3.624   4.941  0.0287  0.9569  3.4856
   61OSM   C11S 4723   0.819   3.676   4.883  0.3261  0.5118 -0.1088
   61OSM   H11S 4724   0.812   3.774   4.936  2.4853  0.8030 -0.2747
   61OSM   H11T 4725   0.723   3.623   4.901 -1.2995  2.9913 -1.0356
   61OSM   C12S 4726   0.819   3.682   4.731 -0.7039 -0.0225 -0.0504
   61OSM   H12S 4727   0.728   3.735   4.697 -0.3351  3.4293  3.6468
   61OSM   H12T 4728   0.823   3.578   4.690 -0.6670 -0.0195 -0.0546
   61OSM   C13S 4729   0.947   3.758   4.673 -0.8011 -0.2693 -0.1479
   61OSM   H13S 4730   1.042   3.708   4.700  0.1119  1.3829 -0.1756
   61OSM   H13T 4731   0.945   3.850   4.735 -3.1916  0.0512 -0.5925
   61OSM   C14S 4732   0.926   3.779   4.521  0.0872 -0.4073 -0.2659
   61OSM   H14S 4733   0.831   3.832   4.501  1.5661  2.7240  0.3196
   61OSM   H14T 4734   0.922   3.681   4.470  0.3490  1.0827 -3.3880
   61OSM   C15S 4735   1.047   3.849   4.459 -0.3856  0.4194 -0.1482
   61OSM   H15S 4736   1.046   3.850   4.348  0.9271  0.5306 -0.1743
   61OSM   H15T 4737   1.143   3.799   4.479  0.0954  0.7849 -1.4621
   61OSM   C16S 4738   1.057   3.994   4.506  0.0933  0.5060 -0.6149
   61OSM   H16S 4739   1.101   4.000   4.607  0.0014  0.3060 -0.5643
   61OSM   H16T 4740   0.956   4.040   4.519  0.3335  0.8669  0.0103
   61OSM   C17S 4741   1.135   4.079   4.412  0.1079 -0.4263 -0.0274
   61OSM   H17S 4742   1.221   4.020   4.375  0.7654  0.8599 -0.6050
   61OSM   H17T 4743   1.163   4.176   4.459 -0.8088 -1.2353  2.3641
   61OSM   C18S 4744   1.055   4.111   4.283 -0.5441  0.0655  0.2145
   61OSM   H18S 4745   1.096   4.208   4.248  1.4960 -0.0577  2.0957
   61OSM   H18T 4746   0.947   4.127   4.303 -0.1737  0.9118  1.6191
   61OSM   H18U 4747   1.062   4.035   4.202 -3.5087  0.5208 -0.5958
   61OSM    C1F 4748   0.555   3.208   5.672 -0.3381  0.0678 -1.2717
   61OSM     OF 4749   0.493   3.294   5.735 -0.6180 -0.2380 -0.2385
   61OSM    C2F 4750   0.492   3.086   5.604  0.9869  0.2601  0.1388
   61OSM    H2F 4751   0.384   3.107   5.593  1.2338  2.1061  0.8895
   61OSM    H2G 4752   0.510   2.985   5.647 -4.3669 -1.9576 -2.0604
   61OSM    C3F 4753   0.554   3.068   5.461 -1.1633  0.6304  0.7522
   61OSM    H3F 4754   0.506   2.975   5.424  0.9489 -1.0515  2.0122
   61OSM    H3G 4755   0.663   3.050   5.466 -1.2402 -0.3481 -0.7839
   61OSM    C4F 4756   0.530   3.177   5.368  0.6148 -0.3694  0.2175
   61OSM    H4F 4757   0.555   3.280   5.402 -1.5244  0.6210 -1.0216
   61OSM    H4G 4758   0.419   3.179   5.364  0.6602 -0.4035 -2.4658
   61OSM    C5F 4759   0.578   3.145   5.223 -0.1701 -0.0688  0.3554
   61OSM    H5F 4760   0.533   3.051   5.183  0.7869  0.0763 -1.1326
   61OSM    H5G 4761   0.687   3.125   5.222 -0.0101  0.7781 -0.4309
   61OSM    C6F 4762   0.540   3.253   5.121 -0.0463 -0.2698 -0.0486
   61OSM    H6F 4763   0.566   3.355   5.157 -0.6306  0.3368 -1.2926
   61OSM    H6G 4764   0.431   3.250   5.105 -0.0903 -2.4201  0.2893
   61OSM    C7F 4765   0.613   3.222   4.986  0.2718  1.1370 -1.1388
   61OSM    H7F 4766   0.584   3.119   4.958  0.4824  0.9191 -0.5812
   61OSM    H7G 4767   0.722   3.220   5.005 -0.0103 -0.9678  0.6695
   61OSM    C8F 4768   0.582   3.324   4.876 -0.0608  0.2562 -0.2849
   61OSM    H8F 4769   0.621   3.281   4.781 -0.3634  2.3641 -1.4280
   61OSM    H8G 4770   0.634   3.419   4.900 -0.5442 -0.1209  2.6071
   61OSM    C9F 4771   0.437   3.367   4.848 -0.4008 -0.3827 -0.3045
   61OSM    H9F 4772   0.373   3.380   4.937 -1.6338 -0.1488 -1.2070
   61OSM   C10F 4773   0.368   3.356   4.731  0.2722 -0.4226  0.2101
   61OSM   H10F 4774   0.263   3.387   4.737  0.5069  0.6723 -0.9485
   61OSM   C11F 4775   0.424   3.309   4.604  0.2147  0.4897  0.1963
   61OSM   H11F 4776   0.359   3.235   4.553  0.0956  0.1268  0.8567
   61OSM   H11G 4777   0.523   3.261   4.618  0.2124  0.4767  0.1669
   61OSM   C12F 4778   0.464   3.438   4.529  0.4755  0.3527  0.2508
   61OSM   H12F 4779   0.527   3.405   4.444  0.7016  0.8200  0.2379
   61OSM   H12G 4780   0.524   3.513   4.585 -1.2285  0.6425  1.8072
   61OSM   C13F 4781   0.346   3.523   4.468  0.0614  0.4899 -0.9723
   61OSM   H13F 4782   0.274   3.541   4.550  2.1579  1.4734  0.7562
   61OSM   H13G 4783   0.283   3.465   4.397 -2.2085  0.8050  0.7081
   61OSM   C14F 4784   0.381   3.658   4.412 -0.1870  0.2265  0.2552
   61OSM   H14F 4785   0.403   3.732   4.492 -2.4649  2.9194 -1.4071
   61OSM   H14G 4786   0.291   3.704   4.366  1.1257  0.7350 -1.9440
   61OSM   C15F 4787   0.481   3.661   4.298  0.5552 -0.0529  0.0999
   61OSM   H15F 4788   0.436   3.594   4.223  1.8680  0.3278 -1.0711
   61OSM   H15G 4789   0.570   3.612   4.343  0.8931  0.0817 -0.4091
   61OSM   C16F 4790   0.520   3.785   4.237  0.3119 -0.3139 -0.0942
   61OSM   H16F 4791   0.422   3.836   4.224  0.1187 -0.3102  1.2195
   61OSM   H16G 4792   0.567   3.770   4.137 -2.5727 -1.7603 -1.3475
   61OSM   C17F 4793   0.614   3.876   4.311  0.2175  0.0262  0.5167
   61OSM   H17F 4794   0.716   3.831   4.319  0.1192 -0.1727  0.6780
   61OSM   H17G 4795   0.583   3.886   4.417  0.2235 -0.4797  0.5679
   61OSM   C18F 4796   0.623   4.013   4.252 -0.6292  0.1427  1.3858
   61OSM   H18F 4797   0.523   4.061   4.241  0.1035  1.2752 -0.8094
   61OSM   H18G 4798   0.675   4.012   4.154 -1.5177  2.2863  0.8483
   61OSM   H18H 4799   0.681   4.080   4.319  0.5662  1.7424 -1.1225
   62OSM      N 4800   5.703   1.254   6.504  0.3849 -0.0377  0.4895
   62OSM    C15 4801   5.643   1.398   6.516  0.8245 -0.1456 -0.1487
   62OSM   H15A 4802   5.621   1.424   6.618 -0.2738  0.7520 -0.5949
   62OSM   H15B 4803   5.547   1.395   6.468 -0.2634 -2.3865  1.9429
   62OSM   H15C 4804   5.707   1.466   6.462  1.1845  0.1925  0.6952
   62OSM    C14 4805   5.847   1.269   6.526 -0.6811  0.0332 -0.2295
   62OSM   H14A 4806   5.873   1.272   6.630  1.0944  0.7881 -0.6463
   62OSM   H14B 4807   5.900   1.346   6.471 -0.8356 -0.1787 -0.6876
   62OSM   H14C 4808   5.900   1.181   6.490  0.7402  0.5009  0.6408
   62OSM    C13 4809   5.632   1.175   6.610 -0.2935 -0.5780 -0.2966
   62OSM   H13A 4810   5.635   1.068   6.599 -2.3424 -0.7834  0.6867
   62OSM   H13B 4811   5.526   1.186   6.592 -0.4626 -4.1997 -2.5365
   62OSM   H13C 4812   5.647   1.214   6.710 -0.7999  0.1958 -0.5121
   62OSM    C12 4813   5.672   1.203   6.365 -0.2621  0.2790  0.2630
   62OSM   H12A 4814   5.695   1.282   6.294  0.0562 -2.4553 -2.9251
   62OSM   H12B 4815   5.568   1.182   6.344 -0.0633  1.2047 -1.9099
   62OSM    C11 4816   5.735   1.076   6.308 -0.0329  0.2193  0.0347
   62OSM   H11A 4817   5.846   1.077   6.312 -0.0115  0.3650 -0.4973
   62OSM   H11B 4818   5.703   1.081   6.202 -0.2688  0.4625  0.1192
   62OSM      P 4819   5.546   0.895   6.344 -0.0870  0.1149  0.2321
   62OSM    O13 4820   5.518   0.772   6.419 -0.0803  0.0023 -0.5483
   62OSM    O14 4821   5.440   1.002   6.348 -0.1937 -0.4425  0.4393
   62OSM    O11 4822   5.561   0.849   6.199 -0.2889  0.0113  0.2908
   62OSM    O12 4823   5.682   0.965   6.381 -0.1873 -0.3235  0.4221
   62OSM    C1S 4824   5.672   0.774   6.154  0.1045 -0.2937  0.0040
   62OSM    H1S 4825   5.710   0.710   6.237 -1.1727 -1.3649 -0.1940
   62OSM    H1T 4826   5.760   0.836   6.128  0.3384  0.1946  1.8212
   62OSM     NF 4827   5.747   0.594   5.984 -0.8458 -0.4552 -0.6593
   62OSM    HNF 4828   5.784   0.615   5.894 -1.4113  0.8208 -0.6130
   62OSM    C2S 4829   5.644   0.686   6.028  0.3465  0.2541 -0.0210
   62OSM    H2S 4830   5.560   0.619   6.055 -0.5279  0.9537 -0.9117
   62OSM    C3S 4831   5.590   0.775   5.915 -0.0896  0.4345  0.7572
   62OSM    H3S 4832   5.669   0.847   5.884  1.4675 -0.4760  2.3724
   62OSM     O3 4833   5.486   0.860   5.960  0.0826 -0.3073 -0.2747
   62OSM    HO3 4834   5.500   0.855   6.055 -1.7671  1.3269  0.1337
   62OSM    C4S 4835   5.552   0.700   5.793  0.6410  0.2570  0.1866
   62OSM    H4S 4836   5.635   0.712   5.721  0.1219  1.6801 -0.2064
   62OSM    C5S 4837   5.439   0.622   5.770 -0.3218 -0.3082 -0.4909
   62OSM    H5S 4838   5.365   0.600   5.849  1.4709 -0.0393  1.3340
   62OSM    C6S 4839   5.439   0.546   5.643  0.4522  0.6442  0.1261
   62OSM    H6S 4840   5.355   0.473   5.641  1.0203 -0.0428  0.6831
   62OSM    H6T 4841   5.534   0.489   5.631 -0.4557 -1.1169  0.8528
   62OSM    C7S 4842   5.414   0.637   5.522  0.2848 -0.1338 -0.3671
   62OSM    H7S 4843   5.490   0.717   5.514 -0.5614  0.5626 -1.9063
   62OSM    H7T 4844   5.314   0.685   5.531  0.7480  0.5914  1.3396
   62OSM    C8S 4845   5.417   0.557   5.394 -0.3405  0.7532 -0.0217
   62OSM    H8S 4846   5.342   0.475   5.396 -0.3087  0.7312  0.4411
   62OSM    H8T 4847   5.521   0.518   5.396 -0.2175  1.0920  0.3087
   62OSM    C9S 4848   5.409   0.654   5.275  0.0227 -0.8749  0.2616
   62OSM    H9S 4849   5.496   0.721   5.279 -0.6996  0.0523  0.8081
   62OSM    H9T 4850   5.315   0.712   5.289  0.2263 -0.6841  0.8702
   62OSM   C10S 4851   5.394   0.576   5.148 -0.3224 -0.3950  0.1775
   62OSM   H10S 4852   5.296   0.522   5.155  0.2238 -1.4533 -0.0492
   62OSM   H10T 4853   5.472   0.498   5.141 -0.3361 -0.4135  0.2264
   62OSM   C11S 4854   5.407   0.679   5.035 -0.9588 -0.0077  0.0980
   62OSM   H11S 4855   5.505   0.730   5.033 -0.5837 -0.6648  1.2829
   62OSM   H11T 4856   5.326   0.753   5.054 -1.5021 -0.4498 -0.4331
   62OSM   C12S 4857   5.384   0.614   4.897 -0.5155 -0.0468 -0.7376
   62OSM   H12S 4858   5.278   0.600   4.866 -0.3696  0.3269 -1.4439
   62OSM   H12T 4859   5.420   0.509   4.900 -1.3582 -0.3292  0.7259
   62OSM   C13S 4860   5.458   0.691   4.790 -0.9796  0.8256  0.8493
   62OSM   H13S 4861   5.565   0.666   4.808 -1.5471 -2.9391 -0.1192
   62OSM   H13T 4862   5.445   0.801   4.790  0.5039  1.1926 -3.6661
   62OSM   C14S 4863   5.423   0.642   4.645 -0.4608 -0.2737  0.4498
   62OSM   H14S 4864   5.404   0.533   4.639  0.0294 -0.3394 -0.0042
   62OSM   H14T 4865   5.511   0.675   4.585 -1.0474 -0.8457 -0.7746
   62OSM   C15S 4866   5.290   0.707   4.590 -0.3594  0.0454 -0.3396
   62OSM   H15S 4867   5.314   0.813   4.566  0.1473 -0.1369 -0.6432
   62OSM   H15T 4868   5.212   0.696   4.669 -0.3736 -1.2436 -0.5103
   62OSM   C16S 4869   5.242   0.651   4.451  0.0317  0.3196 -0.0066
   62OSM   H16S 4870   5.151   0.706   4.419  0.7009  0.6965 -1.3491
   62OSM   H16T 4871   5.216   0.544   4.466 -1.4580  0.4409 -1.3420
   62OSM   C17S 4872   5.349   0.663   4.345  0.1051 -0.3589  0.5618
   62OSM   H17S 4873   5.455   0.638   4.367  1.4471  2.6804 -1.6709
   62OSM   H17T 4874   5.350   0.771   4.318  2.3669 -0.2111  1.0459
   62OSM   C18S 4875   5.326   0.582   4.213  0.5877 -0.3570 -0.0514
   62OSM   H18S 4876   5.218   0.588   4.187  0.1864 -0.9961  1.3432
   62OSM   H18T 4877   5.350   0.475   4.226  0.6264 -0.6896 -2.4954
   62OSM   H18U 4878   5.388   0.625   4.131  1.7499  0.1974  1.0705
   62OSM    C1F 4879   5.810   0.502   6.058 -0.4023 -0.6772  0.6124
   62OSM     OF 4880   5.770   0.479   6.170 -0.5817 -0.1894 -0.6275
   62OSM    C2F 4881   5.931   0.438   6.004 -0.3575 -0.2911  0.2473
   62OSM    H2F 4882   5.912   0.330   6.017  1.3696 -0.7739 -0.8838
   62OSM    H2G 4883   6.013   0.460   6.076  0.6612 -0.4878 -0.8085
   62OSM    C3F 4884   5.972   0.478   5.861 -0.1994 -0.1576  0.5236
   62OSM    H3F 4885   6.073   0.441   5.832 -1.2176 -2.2398 -0.6230
   62OSM    H3G 4886   5.997   0.586   5.854 -1.0852  0.0870  0.9977
   62OSM    C4F 4887   5.877   0.431   5.746 -0.4426 -0.6284  0.0304
   62OSM    H4F 4888   5.769   0.450   5.766 -0.7215 -1.9094 -0.1358
   62OSM    H4G 4889   5.877   0.320   5.739 -0.6440 -0.6398  0.1935
   62OSM    C5F 4890   5.924   0.489   5.611  0.5062  0.6112 -0.1305
   62OSM    H5F 4891   6.028   0.464   5.582  0.0024  0.2763 -1.7610
   62OSM    H5G 4892   5.923   0.600   5.615  0.1716  0.7131 -2.1712
   62OSM    C6F 4893   5.829   0.436   5.493 -0.0764 -0.0769 -0.3990
   62OSM    H6F 4894   5.719   0.445   5.509 -0.6420 -4.9157  0.1840
   62OSM    H6G 4895   5.832   0.325   5.486 -0.0833 -0.2963  2.1191
   62OSM    C7F 4896   5.868   0.495   5.357 -0.0195  0.3512 -0.4333
   62OSM    H7F 4897   5.974   0.468   5.337 -0.1698  1.7062 -3.7149
   62OSM    H7G 4898   5.865   0.605   5.370 -1.5847  0.3357 -0.5428
   62OSM    C8F 4899   5.780   0.447   5.237  0.1575  0.1747 -0.1794
   62OSM    H8F 4900   5.676   0.453   5.274  0.5194 -0.2561  0.9684
   62OSM    H8G 4901   5.790   0.339   5.213 -3.1015  0.2737 -2.6951
   62OSM    C9F 4902   5.809   0.532   5.111 -0.1627 -0.2206  0.5121
   62OSM    H9F 4903   5.782   0.638   5.125 -0.8467 -0.3081 -0.0624
   62OSM   C10F 4904   5.852   0.494   4.993 -0.5452  0.2058  0.2141
   62OSM   H10F 4905   5.864   0.568   4.913 -1.2847 -1.4571 -1.5194
   62OSM   C11F 4906   5.883   0.353   4.949 -0.0417 -0.2922  0.0682
   62OSM   H11F 4907   5.807   0.280   4.985 -1.7711  2.2554  1.9603
   62OSM   H11G 4908   5.979   0.320   4.993  0.3129 -2.1632 -1.9560
   62OSM   C12F 4909   5.887   0.358   4.796  0.4952 -0.2036  0.0703
   62OSM   H12F 4910   5.959   0.439   4.773 -0.6129  0.8359  0.1729
   62OSM   H12G 4911   5.795   0.389   4.742  0.6873 -0.2131 -0.2633
   62OSM   C13F 4912   5.928   0.221   4.736  0.0566 -1.2484 -0.5735
   62OSM   H13F 4913   5.844   0.149   4.742 -0.2877 -0.8133 -0.0237
   62OSM   H13G 4914   6.001   0.193   4.815 -0.1215  0.0711  0.0865
   62OSM   C14F 4915   5.999   0.233   4.593 -0.8993 -0.2265 -0.7792
   62OSM   H14F 4916   6.069   0.320   4.588  0.6912 -1.3021  1.1329
   62OSM   H14G 4917   5.924   0.260   4.516 -0.6104 -0.3841 -1.1203
   62OSM   C15F 4918   6.078   0.102   4.564  0.3732  0.7626  0.3287
   62OSM   H15F 4919   6.108   0.058   4.661  0.7817  2.4723  0.9937
   62OSM   H15G 4920   6.168   0.132   4.506  0.9800  0.2376  0.9820
   62OSM   C16F 4921   6.000   0.003   4.476 -1.1383 -0.6393  0.3242
   62OSM   H16F 4922   5.900  -0.018   4.518 -1.6583  0.2151 -0.4566
   62OSM   H16G 4923   6.060  -0.090   4.464 -0.4338  0.0315 -1.9324
   62OSM   C17F 4924   5.971   0.054   4.332 -0.9594  0.0636 -0.5146
   62OSM   H17F 4925   6.060   0.042   4.265 -2.6368  1.7273 -3.2477
   62OSM   H17G 4926   5.938   0.160   4.326 -1.1872 -0.0464 -1.5429
   62OSM   C18F 4927   5.851  -0.018   4.272  0.4533  0.0625  0.1877
   62OSM   H18F 4928   5.875  -0.086   4.187 -1.0209 -0.5432  0.2340
   62OSM   H18G 4929   5.792   0.058   4.217  2.4860  0.6250 -1.3343
   62OSM   H18H 4930   5.791  -0.081   4.341  0.2479  0.9520  0.8415
   63OSM      N 4931   5.030   1.734   6.625  0.0840 -0.1446  0.0315
   63OSM    C15 4932   5.026   1.889   6.618 -0.1808  0.3520 -0.5157
   63OSM   H15A 4933   4.945   1.928   6.678  1.4319  1.9845  0.7205
   63OSM   H15B 4934   5.008   1.932   6.521  0.4523  1.5834 -0.1007
   63OSM   H15C 4935   5.117   1.923   6.666  0.2838 -3.6912  2.0484
   63OSM    C14 4936   5.146   1.690   6.554  0.6870 -0.0215 -0.7378
   63OSM   H14A 4937   5.231   1.748   6.588  0.5827  0.7291 -1.7183
   63OSM   H14B 4938   5.135   1.709   6.448 -0.0415  1.5099 -0.4054
   63OSM   H14C 4939   5.166   1.586   6.575 -0.5121 -0.3434 -1.1072
   63OSM    C13 4940   5.041   1.692   6.769  0.6122 -0.2865  0.1403
   63OSM   H13A 4941   5.071   1.589   6.781 -2.4256 -1.2547  0.2400
   63OSM   H13B 4942   4.941   1.695   6.809 -1.0193 -1.0541 -3.5619
   63OSM   H13C 4943   5.092   1.767   6.828 -1.4887  2.4238 -1.2898
   63OSM    C12 4944   4.909   1.671   6.564  0.8258 -0.1592 -0.7044
   63OSM   H12A 4945   4.933   1.566   6.561  0.7727 -0.1759 -0.5406
   63OSM   H12B 4946   4.892   1.705   6.463 -0.2291  1.2241 -0.0935
   63OSM    C11 4947   4.779   1.683   6.642 -0.6390 -0.6988 -0.0972
   63OSM   H11A 4948   4.782   1.646   6.747 -1.0985 -3.1261 -0.8769
   63OSM   H11B 4949   4.695   1.627   6.595  0.2686 -1.7373 -0.5249
   63OSM      P 4950   4.642   1.890   6.541 -0.0342  0.2422 -0.1339
   63OSM    O13 4951   4.497   1.856   6.565  0.2292  0.0107  0.6026
   63OSM    O14 4952   4.690   2.034   6.546 -0.0491  0.9647 -0.1023
   63OSM    O11 4953   4.684   1.821   6.402 -0.3136 -0.3358  0.4316
   63OSM    O12 4954   4.730   1.816   6.649 -0.4425 -0.1513 -0.5932
   63OSM    C1S 4955   4.785   1.889   6.324 -0.4776 -0.9177 -0.1107
   63OSM    H1S 4956   4.883   1.873   6.374 -2.3552  0.2205  4.5145
   63OSM    H1T 4957   4.768   1.999   6.323 -0.1279 -0.8657 -0.8231
   63OSM     NF 4958   4.899   1.913   6.104 -0.3747 -0.7166 -0.2328
   63OSM    HNF 4959   4.858   1.978   6.041  1.0200  0.4760  0.0195
   63OSM    C2S 4960   4.803   1.836   6.178  0.9295 -0.0912  0.4233
   63OSM    H2S 4961   4.841   1.731   6.186  2.0380  0.0124 -2.3858
   63OSM    C3S 4962   4.662   1.833   6.109 -0.9156 -0.3576  0.3895
   63OSM    H3S 4963   4.646   1.935   6.068  1.4841  0.0265  0.2436
   63OSM     O3 4964   4.550   1.799   6.188  0.5330  0.5908 -0.0404
   63OSM    HO3 4965   4.592   1.791   6.274  1.7541  0.5325 -0.6189
   63OSM    C4S 4966   4.659   1.732   5.997  0.4593  0.1178  0.4685
   63OSM    H4S 4967   4.668   1.625   6.019 -0.6807  0.3476  2.2593
   63OSM    C5S 4968   4.636   1.767   5.871  0.1477 -0.1965  0.5022
   63OSM    H5S 4969   4.622   1.875   5.854  1.3107  0.2218  1.8991
   63OSM    C6S 4970   4.629   1.663   5.758  0.4247  0.2426  0.0254
   63OSM    H6S 4971   4.725   1.608   5.750  0.6859  0.5043  1.1897
   63OSM    H6T 4972   4.623   1.714   5.659 -1.1575 -1.1984 -0.6710
   63OSM    C7S 4973   4.529   1.556   5.753 -0.0209  0.1366  0.3795
   63OSM    H7S 4974   4.428   1.600   5.770 -0.1500  1.2271 -2.6368
   63OSM    H7T 4975   4.548   1.487   5.838  2.6643 -0.6111 -0.7327
   63OSM    C8S 4976   4.534   1.460   5.628 -0.0768 -0.0176 -0.5291
   63OSM    H8S 4977   4.477   1.367   5.647 -0.5092  0.6048  1.4763
   63OSM    H8T 4978   4.641   1.432   5.614 -0.4286 -1.2032 -0.9925
   63OSM    C9S 4979   4.487   1.520   5.498  0.5869  0.0648  0.1759
   63OSM    H9S 4980   4.529   1.474   5.406  0.1990 -1.1333  0.5864
   63OSM    H9T 4981   4.523   1.625   5.485 -3.0478  1.3678 -0.5434
   63OSM   C10S 4982   4.334   1.525   5.494 -0.1857  0.2850 -0.2020
   63OSM   H10S 4983   4.286   1.561   5.587 -1.6330 -0.3169 -0.6930
   63OSM   H10T 4984   4.295   1.421   5.489  2.8213 -1.0227  0.7298
   63OSM   C11S 4985   4.278   1.614   5.380 -0.1001 -0.0486 -0.5026
   63OSM   H11S 4986   4.283   1.722   5.406 -1.4048 -0.0785 -0.0798
   63OSM   H11T 4987   4.168   1.605   5.370 -0.2646  0.7541  0.4890
   63OSM   C12S 4988   4.330   1.586   5.235  0.1154 -0.6681 -0.8911
   63OSM   H12S 4989   4.343   1.477   5.218  0.9185 -0.6589 -0.3580
   63OSM   H12T 4990   4.433   1.627   5.234  0.3380 -0.9346  2.0437
   63OSM   C13S 4991   4.246   1.633   5.116 -0.5466 -0.3671  0.2038
   63OSM   H13S 4992   4.300   1.598   5.026  1.5503  0.1676  1.1851
   63OSM   H13T 4993   4.259   1.742   5.098  1.5719 -0.6729 -0.3428
   63OSM   C14S 4994   4.107   1.574   5.110 -0.2410  0.4447 -0.0096
   63OSM   H14S 4995   4.030   1.637   5.158  0.6739  0.9108  0.8959
   63OSM   H14T 4996   4.102   1.472   5.154 -1.1378  0.4100 -0.1846
   63OSM   C15S 4997   4.067   1.573   4.965  0.6063  0.3525 -0.0626
   63OSM   H15S 4998   4.127   1.501   4.905  1.6135  0.5784  0.6460
   63OSM   H15T 4999   4.080   1.674   4.922 -0.1638  0.0198 -1.1221
   63OSM   C16S 5000   3.926   1.528   4.952  0.1294 -0.4557  0.2796
   63OSM   H16S 5001   3.873   1.595   5.023  1.9497  1.1743  0.1771
   63OSM   H16T 5002   3.906   1.424   4.986 -2.2417 -0.6007 -1.2990
   63OSM   C17S 5003   3.860   1.547   4.809 -0.3491 -0.8217 -0.2220
   63OSM   H17S 5004   3.915   1.475   4.745  0.3979  0.0581 -0.5872
   63OSM   H17T 5005   3.883   1.649   4.771 -1.6595 -1.0381 -1.7037
   63OSM   C18S 5006   3.718   1.509   4.810  0.7328 -1.1046 -0.0719
   63OSM   H18S 5007   3.700   1.402   4.832 -2.2794 -0.4512  1.0951
   63OSM   H18T 5008   3.671   1.526   4.710 -0.7954 -0.5636  0.7124
   63OSM   H18U 5009   3.656   1.568   4.880  0.3463 -1.2683 -0.2756
   63OSM    C1F 5010   5.037   1.905   6.109  1.0453  0.2565 -1.0929
   63OSM     OF 5011   5.086   1.834   6.201 -0.1069 -0.0822 -0.0798
   63OSM    C2F 5012   5.111   1.978   6.007  0.7368 -0.4684 -0.5405
   63OSM    H2F 5013   5.201   2.025   6.053 -0.0664  0.0261  0.5783
   63OSM    H2G 5014   5.062   2.073   5.978  2.5557  0.2691 -1.3248
   63OSM    C3F 5015   5.153   1.888   5.886  0.5145  0.4552 -0.2137
   63OSM    H3F 5016   5.213   1.800   5.918  0.6355  0.1970 -1.1197
   63OSM    H3G 5017   5.228   1.944   5.826 -0.2584  0.6879 -0.9823
   63OSM    C4F 5018   5.042   1.852   5.790  0.2476  0.7197 -0.5738
   63OSM    H4F 5019   4.954   1.820   5.849  0.1920 -1.8465 -1.9217
   63OSM    H4G 5020   5.074   1.767   5.727 -0.7401 -0.0070 -0.1117
   63OSM    C5F 5021   4.998   1.964   5.696 -0.1397  0.3063  0.5964
   63OSM    H5F 5022   5.090   1.993   5.641 -0.6482 -1.2909 -1.2363
   63OSM    H5G 5023   4.964   2.046   5.762 -2.3366  0.3066 -0.4680
   63OSM    C6F 5024   4.897   1.905   5.599  0.4791 -0.0684  0.1402
   63OSM    H6F 5025   4.843   1.836   5.668 -0.5130  1.5353  1.0148
   63OSM    H6G 5026   4.946   1.849   5.517 -0.8888 -0.1107 -0.6797
   63OSM    C7F 5027   4.794   2.000   5.538  0.7009  0.1281 -0.4126
   63OSM    H7F 5028   4.838   2.100   5.518  0.9845 -0.0303 -0.5883
   63OSM    H7G 5029   4.717   2.020   5.616  2.2047  0.1103  1.1289
   63OSM    C8F 5030   4.735   1.937   5.416  0.1094 -0.0570 -0.0371
   63OSM    H8F 5031   4.649   2.003   5.394 -0.1980 -0.7012 -0.8229
   63OSM    H8G 5032   4.693   1.835   5.428 -0.6519  0.2035 -0.4219
   63OSM    C9F 5033   4.832   1.946   5.305  0.4056 -0.2826  0.3324
   63OSM    H9F 5034   4.926   1.993   5.337 -0.5162  1.7561  0.1994
   63OSM   C10F 5035   4.830   1.880   5.188 -0.0284 -0.4017 -0.1110
   63OSM   H10F 5036   4.915   1.879   5.118  1.2970  0.1952  1.4341
   63OSM   C11F 5037   4.721   1.780   5.145 -0.3131  0.3560  0.0491
   63OSM   H11F 5038   4.617   1.815   5.161 -0.3080 -0.8179  3.6391
   63OSM   H11G 5039   4.724   1.684   5.201 -2.3075  0.2908  0.1195
   63OSM   C12F 5040   4.726   1.744   4.992  0.5968 -1.9369  0.1203
   63OSM   H12F 5041   4.732   1.842   4.938 -0.6127 -1.2062  1.2590
   63OSM   H12G 5042   4.625   1.705   4.972 -0.9443  1.3968  0.6253
   63OSM   C13F 5043   4.829   1.649   4.945 -0.7154  0.6715  0.0761
   63OSM   H13F 5044   4.801   1.561   5.007 -0.4004  1.2596  1.0724
   63OSM   H13G 5045   4.933   1.688   4.955 -0.3457 -0.0911 -0.5857
   63OSM   C14F 5046   4.829   1.633   4.795  0.4093 -0.4338  0.5813
   63OSM   H14F 5047   4.879   1.721   4.750 -1.1692 -0.2656 -0.9253
   63OSM   H14G 5048   4.725   1.633   4.754  1.5208 -2.4743 -2.5851
   63OSM   C15F 5049   4.896   1.501   4.755 -0.0961 -0.4094  0.4633
   63OSM   H15F 5050   4.831   1.428   4.807  1.2575 -0.9505  1.4378
   63OSM   H15G 5051   4.998   1.486   4.797 -0.2861  0.1660  1.1581
   63OSM   C16F 5052   4.906   1.480   4.598 -0.8059  0.2810  0.4410
   63OSM   H16F 5053   4.956   1.384   4.574 -0.4417  0.5674  0.0397
   63OSM   H16G 5054   4.965   1.568   4.564 -0.3247 -0.4673 -0.7429
   63OSM   C17F 5055   4.777   1.480   4.520  0.0366  0.2311  0.3124
   63OSM   H17F 5056   4.803   1.492   4.413 -0.8533 -0.4149  0.0181
   63OSM   H17G 5057   4.708   1.564   4.541 -3.4111 -2.1209 -0.7711
   63OSM   C18F 5058   4.695   1.350   4.542  0.1833 -0.2193  0.4475
   63OSM   H18F 5059   4.644   1.349   4.640  0.6416  2.8852  0.8074
   63OSM   H18G 5060   4.744   1.250   4.536  2.1844  0.7963 -1.6697
   63OSM   H18H 5061   4.603   1.344   4.480  0.3129  3.7182 -0.3450
   64OSM      N 5062   1.686   3.748   6.248 -0.6472  0.4802 -0.5080
   64OSM    C15 5063   1.584   3.737   6.351  0.0458 -0.0852  1.3952
   64OSM   H15A 5064   1.498   3.682   6.315  0.4535 -0.3691  0.8280
   64OSM   H15B 5065   1.541   3.833   6.374  0.4948  0.8213 -1.1923
   64OSM   H15C 5066   1.626   3.698   6.443  1.2405 -1.5300  0.3064
   64OSM    C14 5067   1.779   3.856   6.278 -0.0908 -0.6539 -1.2043
   64OSM   H14A 5068   1.842   3.827   6.362 -0.3768  0.3157 -0.6325
   64OSM   H14B 5069   1.729   3.945   6.313  1.8087 -0.0170  0.0807
   64OSM   H14C 5070   1.846   3.887   6.199 -1.2307 -1.2866 -2.4494
   64OSM    C13 5071   1.759   3.615   6.229 -0.2050  0.3761 -0.4145
   64OSM   H13A 5072   1.679   3.544   6.211 -2.1901  2.3418  0.1968
   64OSM   H13B 5073   1.813   3.594   6.320 -2.0165  0.0915  0.6436
   64OSM   H13C 5074   1.836   3.622   6.154  0.0552 -0.2142 -0.2054
   64OSM    C12 5075   1.617   3.784   6.112 -0.3244  0.1517 -0.3283
   64OSM   H12A 5076   1.539   3.711   6.100  1.3608 -2.3312  2.4204
   64OSM   H12B 5077   1.692   3.760   6.037 -0.5738 -0.9140 -0.2472
   64OSM    C11 5078   1.565   3.929   6.093  0.0824  0.1105  0.6821
   64OSM   H11A 5079   1.526   3.951   5.992  2.1801 -0.4205 -0.2773
   64OSM   H11B 5080   1.653   3.996   6.106 -0.5283  1.5072 -1.7502
   64OSM      P 5081   1.472   4.083   6.276 -0.1753  0.3336  0.0766
   64OSM    O13 5082   1.344   4.094   6.346  0.4298  0.2018 -0.3414
   64OSM    O14 5083   1.596   4.089   6.353  0.4874 -0.7173  0.0127
   64OSM    O11 5084   1.477   4.194   6.170  0.4048 -0.0054  0.3282
   64OSM    O12 5085   1.468   3.954   6.186 -0.4759  0.3440  0.4369
   64OSM    C1S 5086   1.356   4.255   6.115 -1.2296 -0.2728  0.5342
   64OSM    H1S 5087   1.316   4.323   6.193  0.4003  1.8476 -0.3853
   64OSM    H1T 5088   1.285   4.173   6.090  0.0691 -1.6430  1.1364
   64OSM     NF 5089   1.260   4.401   5.950 -0.0670  0.1302 -0.2796
   64OSM    HNF 5090   1.208   4.335   5.896  0.4711  0.5873 -1.3655
   64OSM    C2S 5091   1.383   4.345   5.989 -0.3767  0.5087 -0.0690
   64OSM    H2S 5092   1.449   4.428   6.021 -1.0730  1.0002  0.1381
   64OSM    C3S 5093   1.450   4.263   5.875  0.0484 -0.0573  0.2064
   64OSM    H3S 5094   1.383   4.176   5.862 -2.7008  1.9790 -0.3434
   64OSM     O3 5095   1.575   4.201   5.909 -0.1095  1.1656  0.8644
   64OSM    HO3 5096   1.561   4.191   6.004  0.3172  1.9419  1.0104
   64OSM    C4S 5097   1.457   4.342   5.739  0.4753  0.6287  0.4619
   64OSM    H4S 5098   1.380   4.311   5.667  1.8379  0.8239 -1.1436
   64OSM    C5S 5099   1.553   4.434   5.703 -0.1972 -0.3283 -0.1126
   64OSM    H5S 5100   1.628   4.470   5.774  0.3522 -1.0860 -0.2982
   64OSM    C6S 5101   1.558   4.497   5.562  0.2725  0.0627  0.3969
   64OSM    H6S 5102   1.659   4.473   5.522  0.1522  0.7496 -0.3372
   64OSM    H6T 5103   1.546   4.608   5.569 -0.5991 -0.0634  1.2299
   64OSM    C7S 5104   1.461   4.453   5.448 -0.3202  0.1431 -0.3003
   64OSM    H7S 5105   1.357   4.487   5.471  0.1581  1.7767 -0.4483
   64OSM    H7T 5106   1.467   4.342   5.445  0.5657  0.1429  1.0835
   64OSM    C8S 5107   1.500   4.510   5.312  0.3348  0.6719 -1.1272
   64OSM    H8S 5108   1.581   4.443   5.276  1.3565  0.6528  1.0660
   64OSM    H8T 5109   1.555   4.607   5.321 -1.3265  1.6602 -1.2351
   64OSM    C9S 5110   1.380   4.526   5.219  0.2416  0.0225 -0.0867
   64OSM    H9S 5111   1.299   4.583   5.270  2.3352  2.2818  0.9571
   64OSM    H9T 5112   1.354   4.422   5.191 -4.2075  1.1247 -0.8090
   64OSM   C10S 5113   1.427   4.597   5.093  0.3791  0.2182  0.0022
   64OSM   H10S 5114   1.509   4.538   5.045  0.5152 -0.5393  1.1448
   64OSM   H10T 5115   1.475   4.694   5.117  3.2284 -1.3810  1.2683
   64OSM   C11S 5116   1.321   4.627   4.991  0.2541 -0.5559 -0.2808
   64OSM   H11S 5117   1.367   4.693   4.915  0.5638 -2.6637 -2.0142
   64OSM   H11T 5118   1.248   4.686   5.051 -0.9023 -3.4570  1.3941
   64OSM   C12S 5119   1.252   4.510   4.928  0.2196  0.5698  0.4054
   64OSM   H12S 5120   1.194   4.460   5.009  2.2869 -1.4105  0.7421
   64OSM   H12T 5121   1.328   4.436   4.896 -0.3284  0.9599 -1.9518
   64OSM   C13S 5122   1.152   4.555   4.822  0.3623  0.8194 -0.4133
   64OSM   H13S 5123   1.204   4.626   4.753 -1.6517  0.8596 -1.9842
   64OSM   H13T 5124   1.076   4.618   4.872 -0.9911 -0.8805 -0.2365
   64OSM   C14S 5125   1.082   4.442   4.742 -0.0302  0.3156 -0.3784
   64OSM   H14S 5126   1.162   4.380   4.698  0.0568  0.5102 -0.4970
   64OSM   H14T 5127   1.022   4.493   4.663  0.2724  1.4911  0.1205
   64OSM   C15S 5128   1.003   4.348   4.836  0.9789 -0.3726 -0.1144
   64OSM   H15S 5129   0.943   4.418   4.897 -1.8310 -3.0986  0.4476
   64OSM   H15T 5130   1.068   4.296   4.909  1.0581 -0.7452 -0.4430
   64OSM   C16S 5131   0.902   4.260   4.759  0.0966  0.2591 -0.1361
   64OSM   H16S 5132   0.942   4.222   4.664 -0.7223  0.6473 -0.6515
   64OSM   H16T 5133   0.817   4.319   4.718  0.5288  0.0616 -1.3286
   64OSM   C17S 5134   0.833   4.157   4.844 -0.1327 -0.6080  0.5633
   64OSM   H17S 5135   0.778   4.204   4.928  0.1360 -0.1163  0.4677
   64OSM   H17T 5136   0.922   4.105   4.885 -0.4586 -1.0793  0.6729
   64OSM   C18S 5137   0.746   4.062   4.757 -0.3347 -0.2512  0.7941
   64OSM   H18S 5138   0.726   3.968   4.813 -1.8198  1.0378  2.5690
   64OSM   H18T 5139   0.792   4.035   4.660 -1.0273 -2.5007  1.0394
   64OSM   H18U 5140   0.648   4.113   4.741  0.2136  0.8727  0.8660
   64OSM    C1F 5141   1.195   4.483   6.030  0.4180 -0.0807  1.0117
   64OSM     OF 5142   1.255   4.532   6.120  0.7374  0.1436  0.2563
   64OSM    C2F 5143   1.052   4.510   6.011 -0.2501  0.0167  0.6871
   64OSM    H2F 5144   0.991   4.506   6.104 -1.5874 -1.4494 -0.2086
   64OSM    H2G 5145   1.015   4.428   5.946  0.6156  0.0120  0.1825
   64OSM    C3F 5146   1.043   4.650   5.943  0.1200 -0.1142 -0.2852
   64OSM    H3F 5147   1.128   4.660   5.873  0.0692 -0.8254 -0.4469
   64OSM    H3G 5148   1.063   4.729   6.020 -0.9532  0.5708 -0.6814
   64OSM    C4F 5149   0.909   4.672   5.865  0.6328 -0.6068  0.1758
   64OSM    H4F 5150   0.824   4.662   5.935  0.8432 -0.6391  0.4296
   64OSM    H4G 5151   0.915   4.598   5.782  1.3257  1.3785 -1.6173
   64OSM    C5F 5152   0.903   4.804   5.794  0.1894  0.3209  0.3066
   64OSM    H5F 5153   1.002   4.836   5.757  0.2138  0.2665  0.3244
   64OSM    H5G 5154   0.873   4.876   5.873  0.9254  2.1188 -0.9968
   64OSM    C6F 5155   0.810   4.815   5.677  0.0955 -0.0563 -0.1428
   64OSM    H6F 5156   0.852   4.756   5.592 -1.7668 -0.0657 -1.1023
   64OSM    H6G 5157   0.812   4.921   5.646 -1.0111 -0.5610 -2.1202
   64OSM    C7F 5158   0.667   4.782   5.685  0.6748  0.2125  0.2764
   64OSM    H7F 5159   0.637   4.823   5.784  0.7040  0.8977  0.0120
   64OSM    H7G 5160   0.660   4.672   5.695 -1.6006  0.1628 -1.1077
   64OSM    C8F 5161   0.569   4.835   5.570  0.5968 -0.6387 -0.2792
   64OSM    H8F 5162   0.469   4.789   5.589 -0.5763  2.3965  1.7323
   64OSM    H8G 5163   0.602   4.796   5.472 -2.8923  2.0601 -2.8141
   64OSM    C9F 5164   0.547   4.987   5.572  0.0518  0.1924  0.0825
   64OSM    H9F 5165   0.507   5.032   5.664 -0.6485 -0.3213  0.0318
   64OSM   C10F 5166   0.587   5.073   5.480  0.3447  0.2984  0.2916
   64OSM   H10F 5167   0.571   5.179   5.506 -2.0804 -0.1164  0.7314
   64OSM   C11F 5168   0.665   5.056   5.351 -0.1792  0.3661 -0.6003
   64OSM   H11F 5169   0.671   4.948   5.322  1.1381  0.5771 -1.1927
   64OSM   H11G 5170   0.770   5.091   5.353 -0.3983  1.5820 -3.9978
   64OSM   C12F 5171   0.604   5.127   5.227 -0.1381  0.2972 -0.5758
   64OSM   H12F 5172   0.585   5.229   5.268  0.4504 -0.8269  2.7568
   64OSM   H12G 5173   0.504   5.085   5.204  0.5201 -1.7694  0.1016
   64OSM   C13F 5174   0.700   5.138   5.108 -0.2908 -0.3675  0.9626
   64OSM   H13F 5175   0.755   5.042   5.100 -0.2555 -0.3071  0.4063
   64OSM   H13G 5176   0.771   5.223   5.125 -0.5768  0.1345 -0.2179
   64OSM   C14F 5177   0.641   5.179   4.967  0.8130 -0.2508 -0.2603
   64OSM   H14F 5178   0.584   5.275   4.974  2.2394  0.5332  1.8760
   64OSM   H14G 5179   0.568   5.102   4.936  0.6383  0.0315 -0.5470
   64OSM   C15F 5180   0.746   5.188   4.857 -0.6814 -1.1347  0.1073
   64OSM   H15F 5181   0.815   5.274   4.877 -1.2664 -0.7782  0.6178
   64OSM   H15G 5182   0.701   5.203   4.757 -0.9585 -0.0648  0.3811
   64OSM   C16F 5183   0.824   5.055   4.854 -0.2597 -0.7443  0.4092
   64OSM   H16F 5184   0.747   4.979   4.829  0.5942 -0.6515 -2.9240
   64OSM   H16G 5185   0.879   5.021   4.944  1.8799  1.5519  0.0812
   64OSM   C17F 5186   0.925   5.056   4.734  0.6129 -0.2335 -0.9721
   64OSM   H17F 5187   1.005   5.132   4.739 -0.1692  0.5532  2.2012
   64OSM   H17G 5188   0.875   5.073   4.637  4.2408  1.2912 -2.7518
   64OSM   C18F 5189   0.988   4.920   4.717 -0.3866  0.6969  0.2477
   64OSM   H18F 5190   1.048   4.889   4.805 -1.4622 -0.6411  0.5394
   64OSM   H18G 5191   1.056   4.918   4.630  0.8388 -2.4484  1.1620
   64OSM   H18H 5192   0.913   4.841   4.696  0.5500 -0.0422 -0.3397
   65OSM      N 5193   4.492   0.689   6.397 -0.7755 -0.5141 -0.0260
   65OSM    C15 5194   4.350   0.742   6.401 -1.2237  0.1861  0.0345
   65OSM   H15A 5195   4.337   0.814   6.481 -0.7208 -1.0077  1.2338
   65OSM   H15B 5196   4.276   0.667   6.423 -1.5070  1.1985  3.0151
   65OSM   H15C 5197   4.324   0.807   6.319 -0.5318  1.0960  0.5165
   65OSM    C14 5198   4.491   0.605   6.276 -0.2598 -0.3868 -0.3703
   65OSM   H14A 5199   4.590   0.564   6.266  0.4261  0.9844  0.4479
   65OSM   H14B 5200   4.457   0.663   6.191 -0.8668 -2.2603 -1.4717
   65OSM   H14C 5201   4.423   0.522   6.284 -0.3171 -0.2469  0.7086
   65OSM    C13 5202   4.611   0.800   6.394 -0.2094 -0.3034  0.1723
   65OSM   H13A 5203   4.704   0.746   6.392 -0.1312 -0.1748 -1.6355
   65OSM   H13B 5204   4.598   0.870   6.475  2.8461 -2.2650  2.5739
   65OSM   H13C 5205   4.601   0.854   6.301 -1.2751 -2.8887 -1.3411
   65OSM    C12 5206   4.516   0.601   6.519 -0.0427  0.2643  0.1201
   65OSM   H12A 5207   4.468   0.649   6.604 -0.9302  0.0015 -0.2270
   65OSM   H12B 5208   4.621   0.595   6.543  0.0993 -0.9111 -0.7353
   65OSM    C11 5209   4.461   0.456   6.530 -0.6608  0.8723  0.3035
   65OSM   H11A 5210   4.465   0.413   6.632 -0.9147  0.6626  0.2256
   65OSM   H11B 5211   4.534   0.395   6.473 -0.5906  1.4061 -0.1923
   65OSM      P 5212   4.285   0.297   6.449  0.1696  0.0415  0.0540
   65OSM    O13 5213   4.361   0.207   6.533 -0.5644  0.6099  0.3590
   65OSM    O14 5214   4.134   0.284   6.457 -0.2344 -0.4957 -0.1498
   65OSM    O11 5215   4.335   0.284   6.295 -0.3381 -0.1931  0.2065
   65OSM    O12 5216   4.320   0.448   6.483 -0.3998  0.6340  0.0342
   65OSM    C1S 5217   4.329   0.169   6.218 -0.4246  0.6381  0.2833
   65OSM    H1S 5218   4.252   0.097   6.253  0.6844 -0.8666 -0.3220
   65OSM    H1T 5219   4.423   0.111   6.216 -0.4833  0.5400 -1.9094
   65OSM     NF 5220   4.233   0.097   5.997  0.1471  0.1511  0.7962
   65OSM    HNF 5221   4.295   0.033   5.953 -1.2458 -0.5265 -0.2575
   65OSM    C2S 5222   4.297   0.210   6.071 -0.6265 -0.2832  0.1479
   65OSM    H2S 5223   4.224   0.294   6.071 -0.5816 -0.2216 -1.2803
   65OSM    C3S 5224   4.429   0.246   6.004  0.0885  0.0513 -0.4611
   65OSM    H3S 5225   4.487   0.153   5.987  0.8568  0.1088  1.5338
   65OSM     O3 5226   4.526   0.306   6.092 -0.6217 -0.3363  0.0453
   65OSM    HO3 5227   4.481   0.319   6.175  1.9950  2.3790  1.2403
   65OSM    C4S 5228   4.401   0.328   5.882  0.0299 -0.0619 -0.5261
   65OSM    H4S 5229   4.357   0.270   5.799 -0.9395  0.1731 -0.1944
   65OSM    C5S 5230   4.406   0.462   5.877 -0.4649  0.6992  0.1913
   65OSM    H5S 5231   4.411   0.526   5.967 -0.9715  1.1406 -0.0891
   65OSM    C6S 5232   4.385   0.549   5.757 -0.2637  0.3727 -0.1246
   65OSM    H6S 5233   4.439   0.643   5.780  0.8542 -0.1090 -0.7064
   65OSM    H6T 5234   4.277   0.569   5.743 -0.1031 -0.7479 -4.2726
   65OSM    C7S 5235   4.418   0.507   5.617  0.2578  0.2653 -0.3157
   65OSM    H7S 5236   4.365   0.416   5.583 -1.6748  0.6592  1.4198
   65OSM    H7T 5237   4.523   0.471   5.619 -0.3139 -1.7325 -2.3567
   65OSM    C8S 5238   4.421   0.621   5.510 -0.5901 -0.4563 -0.1424
   65OSM    H8S 5239   4.498   0.688   5.554 -1.2856 -0.7947  1.6734
   65OSM    H8T 5240   4.319   0.666   5.514  0.1002  1.5916 -2.7076
   65OSM    C9S 5241   4.467   0.587   5.366 -0.0961  0.0032 -0.5748
   65OSM    H9S 5242   4.448   0.480   5.344  1.2405 -0.3968  0.1501
   65OSM    H9T 5243   4.576   0.597   5.384 -0.1774  1.0152 -0.5991
   65OSM   C10S 5244   4.412   0.684   5.262  0.0970 -0.0902  0.0507
   65OSM   H10S 5245   4.440   0.788   5.290  0.9493  0.1027 -1.4583
   65OSM   H10T 5246   4.302   0.676   5.278  0.2445 -1.9462  0.4163
   65OSM   C11S 5247   4.449   0.651   5.119  0.4631  0.1837  0.1239
   65OSM   H11S 5248   4.442   0.541   5.113  0.3738  0.1804  0.2740
   65OSM   H11T 5249   4.556   0.672   5.099  0.8723  0.2423  2.1888
   65OSM   C12S 5250   4.354   0.715   5.019  0.1744  0.8813 -0.3955
   65OSM   H12S 5251   4.336   0.815   5.064  0.0380 -0.5515  3.0488
   65OSM   H12T 5252   4.249   0.679   5.012  0.4184 -0.4269  1.8560
   65OSM   C13S 5253   4.409   0.731   4.881  0.4966 -0.7322 -0.9546
   65OSM   H13S 5254   4.513   0.770   4.889  0.6004 -1.1108 -0.4296
   65OSM   H13T 5255   4.351   0.812   4.832 -0.7812 -1.9549 -1.5235
   65OSM   C14S 5256   4.403   0.618   4.783 -0.2431 -0.1979  0.1616
   65OSM   H14S 5257   4.308   0.563   4.770  0.4380 -1.5672  0.7180
   65OSM   H14T 5258   4.477   0.547   4.826 -0.4001 -0.2988  0.2653
   65OSM   C15S 5259   4.466   0.657   4.655  0.0642 -0.1223  0.2523
   65OSM   H15S 5260   4.576   0.661   4.674  0.2783 -1.5284 -0.6060
   65OSM   H15T 5261   4.443   0.759   4.616  1.1853  0.0435 -0.0127
   65OSM   C16S 5262   4.444   0.556   4.542 -0.2464  0.1244 -0.6303
   65OSM   H16S 5263   4.338   0.574   4.515 -0.2048  2.0276  0.3059
   65OSM   H16T 5264   4.454   0.452   4.580 -1.6756 -0.0551 -0.6894
   65OSM   C17S 5265   4.530   0.568   4.416 -0.2468  0.2860 -0.6317
   65OSM   H17S 5266   4.630   0.523   4.430 -0.5631  0.1533  1.6077
   65OSM   H17T 5267   4.530   0.677   4.394 -0.8085  1.0384  2.5792
   65OSM   C18S 5268   4.460   0.489   4.305 -0.4691 -0.8336 -0.1785
   65OSM   H18S 5269   4.428   0.389   4.340  0.3602 -1.6894 -1.7489
   65OSM   H18T 5270   4.512   0.469   4.209 -2.7569  2.5187 -2.3255
   65OSM   H18U 5271   4.364   0.537   4.278  0.6577  0.9409 -1.2779
   65OSM    C1F 5272   4.110   0.046   6.032  0.3049  0.0968 -0.3484
   65OSM     OF 5273   4.042   0.097   6.122 -0.9704 -0.5489 -0.2878
   65OSM    C2F 5274   4.058  -0.086   5.969  0.6104  0.9910 -0.2625
   65OSM    H2F 5275   3.985  -0.130   6.041 -0.8448  3.3765 -0.1722
   65OSM    H2G 5276   4.146  -0.152   5.957  0.8064  1.0414  0.7879
   65OSM    C3F 5277   3.989  -0.057   5.834  0.1105 -0.2893 -1.2743
   65OSM    H3F 5278   3.897   0.003   5.852  0.3844 -0.4242  0.8066
   65OSM    H3G 5279   3.948  -0.148   5.784  1.4697 -0.8500 -1.4011
   65OSM    C4F 5280   4.080  -0.006   5.723 -0.0755 -0.3645 -0.1146
   65OSM    H4F 5281   4.151  -0.086   5.694  0.2703  0.0051 -0.2922
   65OSM    H4G 5282   4.135   0.085   5.757  1.4701 -1.8985  1.7774
   65OSM    C5F 5283   3.997   0.015   5.589  0.4094  0.0054  0.0338
   65OSM    H5F 5284   3.898   0.049   5.626  0.4178 -0.8187  0.8581
   65OSM    H5G 5285   3.986  -0.085   5.541  0.6445 -0.5228  1.0529
   65OSM    C6F 5286   4.070   0.103   5.488  1.4035  0.3867  0.3032
   65OSM    H6F 5287   4.023   0.095   5.388 -1.6929 -0.1200  1.6941
   65OSM    H6G 5288   4.179   0.082   5.480  1.2146 -0.3599 -0.4192
   65OSM    C7F 5289   4.072   0.253   5.515  0.2078 -0.7337  0.5808
   65OSM    H7F 5290   4.125   0.276   5.610 -1.3116 -0.3383  1.3753
   65OSM    H7G 5291   3.965   0.278   5.531  0.6741  2.8659 -0.9142
   65OSM    C8F 5292   4.121   0.347   5.403  0.8127  0.4704  0.0974
   65OSM    H8F 5293   4.075   0.317   5.307  0.7351 -0.6515  0.4607
   65OSM    H8G 5294   4.229   0.329   5.382  0.6616 -0.3404 -0.0316
   65OSM    C9F 5295   4.093   0.495   5.426  0.2516 -0.3314 -0.3878
   65OSM    H9F 5296   4.161   0.532   5.504 -0.9214  2.5955 -0.6158
   65OSM   C10F 5297   4.010   0.587   5.362  0.4068  0.0549  0.2405
   65OSM   H10F 5298   4.014   0.693   5.392 -0.8671 -0.1823  1.3662
   65OSM   C11F 5299   3.929   0.543   5.247 -0.2958  0.9592  0.8331
   65OSM   H11F 5300   3.828   0.585   5.271 -1.2279 -1.1648  0.8220
   65OSM   H11G 5301   3.906   0.435   5.238  1.5913  0.5928 -0.0457
   65OSM   C12F 5302   3.977   0.588   5.108  0.0445  0.4867  0.0952
   65OSM   H12F 5303   4.081   0.551   5.109 -0.6276 -1.5578  0.0577
   65OSM   H12G 5304   3.981   0.699   5.107 -0.8343  0.5376  0.5246
   65OSM   C13F 5305   3.896   0.535   4.981  0.2055  0.0338 -1.4506
   65OSM   H13F 5306   3.846   0.624   4.938  0.6849  2.0692  1.8767
   65OSM   H13G 5307   3.821   0.457   5.008 -1.5086  2.8877  3.3387
   65OSM   C14F 5308   3.996   0.483   4.876 -0.5831 -0.2518 -0.2926
   65OSM   H14F 5309   4.049   0.394   4.915 -2.1215 -0.5577  1.2693
   65OSM   H14G 5310   4.071   0.564   4.871  1.0012 -1.5052  1.6911
   65OSM   C15F 5311   3.939   0.451   4.743 -0.4807  0.3215  0.2116
   65OSM   H15F 5312   3.896   0.543   4.697  0.7292  0.2086 -1.2187
   65OSM   H15G 5313   3.852   0.383   4.755 -0.5251  0.3786  0.2177
   65OSM   C16F 5314   4.048   0.393   4.647 -0.0200 -0.6448 -0.3692
   65OSM   H16F 5315   4.119   0.324   4.698 -0.0035 -0.2256  0.1882
   65OSM   H16G 5316   4.109   0.479   4.614 -1.6856  1.6480  2.1192
   65OSM   C17F 5317   4.003   0.312   4.521  0.6631  0.0828  0.1325
   65OSM   H17F 5318   3.945   0.383   4.458  0.1262 -0.5186 -0.0569
   65OSM   H17G 5319   3.927   0.235   4.545 -0.2985  1.1614  0.6641
   65OSM   C18F 5320   4.116   0.239   4.440 -0.3887 -0.3086  0.5840
   65OSM   H18F 5321   4.068   0.209   4.345 -3.1263  1.3183  1.3395
   65OSM   H18G 5322   4.147   0.149   4.497 -1.5269 -0.5520  0.8478
   65OSM   H18H 5323   4.200   0.304   4.409  1.1792 -2.5102 -0.0209
   66OSM      N 5324   2.424   1.597   6.562 -0.7049 -0.1143  0.5286
   66OSM    C15 5325   2.523   1.607   6.672 -0.2052 -0.2461 -0.6413
   66OSM   H15A 5326   2.474   1.595   6.767 -1.4923  0.0263 -1.2394
   66OSM   H15B 5327   2.563   1.707   6.678  3.5466 -1.3456 -3.5204
   66OSM   H15C 5328   2.602   1.537   6.650  0.0308  0.8863 -3.9443
   66OSM    C14 5329   2.379   1.453   6.542  0.4393 -0.1205  0.4424
   66OSM   H14A 5330   2.317   1.424   6.626 -0.2331  0.1254  0.0418
   66OSM   H14B 5331   2.460   1.382   6.536 -1.1943 -2.0795  0.5410
   66OSM   H14C 5332   2.314   1.446   6.456 -2.3046  0.3976  2.3408
   66OSM    C13 5333   2.311   1.685   6.580 -0.6760 -0.7886  0.1920
   66OSM   H13A 5334   2.259   1.704   6.487 -0.5884  0.1317  0.3222
   66OSM   H13B 5335   2.339   1.783   6.618  0.0165 -0.8322 -0.1939
   66OSM   H13C 5336   2.246   1.653   6.660 -0.7925  1.2703  0.9987
   66OSM    C12 5337   2.495   1.633   6.434  0.3250 -0.2954  0.0033
   66OSM   H12A 5338   2.574   1.562   6.415  0.8469  0.1282  0.5365
   66OSM   H12B 5339   2.547   1.725   6.456 -2.0032  0.9832  0.5185
   66OSM    C11 5340   2.413   1.658   6.303  0.7916 -0.4883 -0.5487
   66OSM   H11A 5341   2.352   1.570   6.277  0.1037 -0.1632 -0.0877
   66OSM   H11B 5342   2.489   1.665   6.223 -0.0462  4.5488 -1.2310
   66OSM      P 5343   2.394   1.916   6.313  0.1647  0.4651  0.0219
   66OSM    O13 5344   2.290   2.025   6.308  0.0069 -0.4921 -0.5102
   66OSM    O14 5345   2.497   1.921   6.423  0.1052  0.3297  0.0211
   66OSM    O11 5346   2.462   1.919   6.177 -0.4798 -0.2072  0.1635
   66OSM    O12 5347   2.323   1.771   6.315  0.4228 -0.3169  0.0357
   66OSM    C1S 5348   2.395   1.864   6.062  0.5182 -0.2415  0.7901
   66OSM    H1S 5349   2.323   1.781   6.080  0.6492  0.0017  2.6053
   66OSM    H1T 5350   2.469   1.834   5.985 -0.3806  1.1764 -0.6909
   66OSM     NF 5351   2.232   1.929   5.882 -0.0601  0.4662 -0.3456
   66OSM    HNF 5352   2.268   1.937   5.789  2.5215  0.4298  0.5658
   66OSM    C2S 5353   2.321   1.985   5.990  0.4330  0.0046 -0.1411
   66OSM    H2S 5354   2.264   2.033   6.072 -0.4296 -1.5207  0.1933
   66OSM    C3S 5355   2.424   2.093   5.934  0.7098  0.0546  0.3298
   66OSM    H3S 5356   2.516   2.039   5.902  0.4037 -0.4163  0.2372
   66OSM     O3 5357   2.477   2.181   6.032 -0.1049 -0.4172  0.1731
   66OSM    HO3 5358   2.447   2.145   6.116 -1.2276 -0.4194 -0.2178
   66OSM    C4S 5359   2.358   2.188   5.834 -0.7010  0.0889  0.0738
   66OSM    H4S 5360   2.276   2.251   5.873  0.6747  0.7625  2.0097
   66OSM    C5S 5361   2.394   2.190   5.703 -0.0538 -0.7132  0.5249
   66OSM    H5S 5362   2.474   2.117   5.679  0.5068  0.2084 -0.5191
   66OSM    C6S 5363   2.348   2.269   5.588  0.0004 -0.1441 -0.7168
   66OSM    H6S 5364   2.306   2.213   5.501 -1.4079 -1.9599  1.0263
   66OSM    H6T 5365   2.429   2.339   5.559 -1.7023  1.5530 -1.5632
   66OSM    C7S 5366   2.232   2.364   5.623  0.0527  0.0737  0.1615
   66OSM    H7S 5367   2.276   2.451   5.677 -0.2995  2.1401 -2.6298
   66OSM    H7T 5368   2.155   2.321   5.691 -0.2405  1.1213  0.5224
   66OSM    C8S 5369   2.165   2.434   5.501 -0.3376 -0.1778 -0.3836
   66OSM    H8S 5370   2.082   2.500   5.530 -1.6424 -1.8791 -0.0715
   66OSM    H8T 5371   2.130   2.357   5.428 -0.0494 -2.5055  1.7717
   66OSM    C9S 5372   2.267   2.523   5.421 -0.3746 -1.3911  0.1427
   66OSM    H9S 5373   2.357   2.463   5.396  1.0530  1.1870 -1.1698
   66OSM    H9T 5374   2.297   2.611   5.481 -1.9918 -0.1206 -0.8438
   66OSM   C10S 5375   2.202   2.564   5.288  0.5555  0.2705  0.5762
   66OSM   H10S 5376   2.160   2.473   5.240  1.3595  0.5141 -0.6500
   66OSM   H10T 5377   2.280   2.603   5.218  0.0771 -0.7924 -0.6055
   66OSM   C11S 5378   2.099   2.676   5.306 -0.0285  0.8098  0.3565
   66OSM   H11S 5379   2.057   2.670   5.409 -0.3124  0.9278  0.2495
   66OSM   H11T 5380   2.011   2.647   5.245  0.1889  0.4153  0.2267
   66OSM   C12S 5381   2.155   2.814   5.273  0.1654  0.3507 -1.0164
   66OSM   H12S 5382   2.247   2.847   5.325 -0.3945  0.7079 -0.2435
   66OSM   H12T 5383   2.071   2.870   5.318 -3.0869 -4.1334 -0.8255
   66OSM   C13S 5384   2.171   2.857   5.123 -0.1378  0.0945 -0.3239
   66OSM   H13S 5385   2.077   2.855   5.064  0.1532 -0.1775 -0.7871
   66OSM   H13T 5386   2.247   2.796   5.070 -0.4451 -1.2244  0.7056
   66OSM   C14S 5387   2.214   3.003   5.105 -0.5553  0.0035  0.6466
   66OSM   H14S 5388   2.302   3.027   5.170  1.3999 -0.3306 -1.7204
   66OSM   H14T 5389   2.133   3.072   5.138  0.5467  1.1010  1.1553
   66OSM   C15S 5390   2.272   3.029   4.966 -0.0069  0.0441 -0.1238
   66OSM   H15S 5391   2.191   3.021   4.890  0.7936 -0.6332 -0.9333
   66OSM   H15T 5392   2.346   2.947   4.962  0.5275  0.4459  1.1119
   66OSM   C16S 5393   2.338   3.163   4.935 -0.7866  0.3760 -0.2707
   66OSM   H16S 5394   2.421   3.179   5.008 -1.1816  1.5392 -0.0540
   66OSM   H16T 5395   2.264   3.242   4.960 -0.1602  0.6101  0.9250
   66OSM   C17S 5396   2.376   3.175   4.785 -0.4318 -0.2932 -0.4944
   66OSM   H17S 5397   2.479   3.136   4.776  0.2032  0.9025  1.1429
   66OSM   H17T 5398   2.384   3.283   4.765 -0.3065  0.4432  2.8493
   66OSM   C18S 5399   2.294   3.113   4.674 -0.1570  0.0764  0.7452
   66OSM   H18S 5400   2.351   3.142   4.584 -0.2305 -1.0732  0.3230
   66OSM   H18T 5401   2.195   3.161   4.659 -1.0107 -1.5098  1.0997
   66OSM   H18U 5402   2.294   3.002   4.682 -1.2650  0.0474  0.4394
   66OSM    C1F 5403   2.118   1.868   5.909 -0.5799 -0.2926  0.6333
   66OSM     OF 5404   2.066   1.878   6.020 -0.2779 -0.1199  0.3488
   66OSM    C2F 5405   2.031   1.813   5.790 -0.7803  0.9340  0.1611
   66OSM    H2F 5406   1.944   1.879   5.770  0.2689  3.1265  2.2783
   66OSM    H2G 5407   2.005   1.716   5.836 -3.1343  2.3368  2.0060
   66OSM    C3F 5408   2.107   1.789   5.659 -0.1587 -0.2181  0.0218
   66OSM    H3F 5409   2.193   1.718   5.667  0.6883  0.6123 -1.2330
   66OSM    H3G 5410   2.143   1.889   5.626  2.7955 -0.1665  2.9052
   66OSM    C4F 5411   2.018   1.740   5.541  0.7231 -0.7492  0.1526
   66OSM    H4F 5412   1.933   1.805   5.512  1.0753  0.0275  0.8187
   66OSM    H4G 5413   1.977   1.640   5.566 -1.8904  0.1703 -0.1565
   66OSM    C5F 5414   2.102   1.725   5.411 -0.9016  0.4435 -0.0937
   66OSM    H5F 5415   2.175   1.652   5.452 -0.1442  0.6323 -1.0669
   66OSM    H5G 5416   2.149   1.825   5.402  1.5714 -0.5179  1.2447
   66OSM    C6F 5417   2.035   1.674   5.279 -0.2786 -0.1751  0.0426
   66OSM    H6F 5418   1.948   1.739   5.256 -1.5057 -1.2959  1.3177
   66OSM    H6G 5419   1.988   1.575   5.295 -0.8964  0.3150  1.3983
   66OSM    C7F 5420   2.129   1.667   5.161  0.1782 -1.1739  0.0971
   66OSM    H7F 5421   2.221   1.607   5.177  1.6261  0.8712 -0.1605
   66OSM    H7G 5422   2.177   1.761   5.128 -1.0123  0.0855  1.7613
   66OSM    C8F 5423   2.059   1.603   5.039  0.1057 -0.6372  0.0852
   66OSM    H8F 5424   1.981   1.674   5.003  1.0492  0.0869 -0.5678
   66OSM    H8G 5425   2.017   1.509   5.082 -0.9024 -0.3579 -0.2574
   66OSM    C9F 5426   2.161   1.568   4.927  0.1048  0.0310 -0.4034
   66OSM    H9F 5427   2.199   1.466   4.942 -0.6121 -0.2515 -0.4796
   66OSM   C10F 5428   2.201   1.647   4.829  0.4127  0.1279 -0.6637
   66OSM   H10F 5429   2.277   1.602   4.764 -0.3550 -0.4310 -1.1916
   66OSM   C11F 5430   2.152   1.789   4.804  0.5225  0.2602 -0.6523
   66OSM   H11F 5431   2.071   1.814   4.875 -0.7225  0.5580 -2.1291
   66OSM   H11G 5432   2.098   1.793   4.707  0.0068  0.6743 -0.3534
   66OSM   C12F 5433   2.255   1.900   4.815  0.4064  0.5745 -0.2367
   66OSM   H12F 5434   2.309   1.897   4.912 -2.5276 -0.4237  1.4992
   66OSM   H12G 5435   2.205   1.999   4.814 -0.4010  0.3031  2.8743
   66OSM   C13F 5436   2.356   1.887   4.697 -0.4030 -0.4127  0.0445
   66OSM   H13F 5437   2.387   1.780   4.687 -1.2427 -0.6362 -0.3148
   66OSM   H13G 5438   2.447   1.939   4.734 -1.2471  0.0188  1.6119
   66OSM   C14F 5439   2.324   1.953   4.565  0.0038  0.2872 -0.0150
   66OSM   H14F 5440   2.246   1.892   4.514  0.9412 -0.8176 -0.1692
   66OSM   H14G 5441   2.418   1.954   4.506  0.4103 -0.6284  0.5959
   66OSM   C15F 5442   2.291   2.104   4.570  0.4212  0.2420 -0.4005
   66OSM   H15F 5443   2.378   2.154   4.616 -1.5668  2.4899  1.1882
   66OSM   H15G 5444   2.197   2.121   4.627 -0.6955 -0.4861 -1.9307
   66OSM   C16F 5445   2.267   2.178   4.431  0.4120 -0.2337 -0.6353
   66OSM   H16F 5446   2.357   2.148   4.372 -0.4537 -2.1217 -1.0772
   66OSM   H16G 5447   2.285   2.287   4.445  0.8885 -0.3301 -0.4707
   66OSM   C17F 5448   2.131   2.159   4.369 -0.1996  0.1096 -0.4833
   66OSM   H17F 5449   2.056   2.183   4.447 -1.5297 -1.6373 -1.1777
   66OSM   H17G 5450   2.108   2.053   4.347 -0.4745 -0.1338  0.8488
   66OSM   C18F 5451   2.112   2.241   4.237 -0.1529 -0.3445 -0.1638
   66OSM   H18F 5452   2.177   2.190   4.162 -0.1381 -0.7982  0.1559
   66OSM   H18G 5453   2.148   2.345   4.247 -2.3311  0.5175 -0.7196
   66OSM   H18H 5454   2.006   2.236   4.205 -0.5176  0.5217  0.8755
   67OSM      N 5455   2.728   6.082   6.755  0.1084  0.9618  0.7603
   67OSM    C15 5456   2.766   6.076   6.903  0.1473 -0.0835  0.1559
   67OSM   H15A 5457   2.744   5.978   6.943 -3.8556  1.7055  3.0333
   67OSM   H15B 5458   2.712   6.151   6.958 -1.5612 -1.9621  1.1828
   67OSM   H15C 5459   2.871   6.096   6.917  0.2101 -0.5685  0.4168
   67OSM    C14 5460   2.585   6.029   6.741 -0.5328  0.5613 -0.8812
   67OSM   H14A 5461   2.509   6.099   6.773  0.9005  2.5031 -1.5475
   67OSM   H14B 5462   2.567   5.935   6.792  0.3457  1.7434  1.7991
   67OSM   H14C 5463   2.566   6.007   6.637  0.6189 -1.8430 -0.6644
   67OSM    C13 5464   2.742   6.225   6.709 -0.2504  0.1216  0.4576
   67OSM   H13A 5465   2.836   6.265   6.742  0.2804 -1.4923  0.9714
   67OSM   H13B 5466   2.672   6.289   6.762 -0.4908  0.0267  0.2587
   67OSM   H13C 5467   2.736   6.239   6.602  0.4082  0.6349  0.4809
   67OSM    C12 5468   2.822   5.985   6.670  0.7646 -1.4354  0.0736
   67OSM   H12A 5469   2.767   5.978   6.577  0.9844  0.9329 -0.2818
   67OSM   H12B 5470   2.825   5.886   6.714 -0.7383 -2.0046 -1.0321
   67OSM    C11 5471   2.967   6.030   6.629  0.3689 -0.4466 -0.3629
   67OSM   H11A 5472   3.013   5.941   6.580 -0.7826 -0.3524 -1.6744
   67OSM   H11B 5473   3.008   6.050   6.731  1.1696 -0.9581 -0.5777
   67OSM      P 5474   3.095   6.242   6.520 -0.2356  0.1924 -0.2433
   67OSM    O13 5475   3.042   6.351   6.439  0.7263 -0.2655  0.3935
   67OSM    O14 5476   3.154   6.263   6.651 -0.6750  0.4572 -0.0929
   67OSM    O11 5477   3.190   6.143   6.430  0.3008 -0.0805  0.4249
   67OSM    O12 5478   2.969   6.149   6.547  0.7884  0.0370 -0.9158
   67OSM    C1S 5479   3.144   6.101   6.298 -0.2889  0.5478  0.1618
   67OSM    H1S 5480   3.035   6.086   6.284 -0.3494  2.0395 -1.4026
   67OSM    H1T 5481   3.199   6.008   6.273  2.2210  2.5596 -2.5425
   67OSM     NF 5482   3.120   6.146   6.065 -0.0880 -0.4712  0.5892
   67OSM    HNF 5483   3.163   6.071   6.014  1.8692 -0.0188  1.4557
   67OSM    C2S 5484   3.191   6.192   6.181 -0.4644  0.2189 -0.4504
   67OSM    H2S 5485   3.149   6.292   6.204  0.6172  0.0665  2.5509
   67OSM    C3S 5486   3.350   6.183   6.175 -0.1666 -0.1074  0.6388
   67OSM    H3S 5487   3.396   6.084   6.157 -0.2901 -0.0284 -0.1439
   67OSM     O3 5488   3.412   6.232   6.290  0.0341 -0.7261 -0.1541
   67OSM    HO3 5489   3.344   6.240   6.358  0.9526 -1.2847  0.8605
   67OSM    C4S 5490   3.391   6.272   6.061 -0.1103  0.5909 -0.5040
   67OSM    H4S 5491   3.383   6.381   6.071 -2.7730  0.3220  1.3834
   67OSM    C5S 5492   3.445   6.224   5.948 -0.4203  0.3998 -0.3406
   67OSM    H5S 5493   3.484   6.121   5.943  2.5741  1.3565  0.8071
   67OSM    C6S 5494   3.491   6.317   5.832  0.0012 -0.5798  0.3094
   67OSM    H6S 5495   3.600   6.300   5.821  0.1790  0.7797 -0.1657
   67OSM    H6T 5496   3.498   6.425   5.856 -2.7898  0.1636 -1.6205
   67OSM    C7S 5497   3.419   6.303   5.701 -0.1331 -0.3787  0.6050
   67OSM    H7S 5498   3.311   6.324   5.709  0.4765  2.7832  1.7088
   67OSM    H7T 5499   3.435   6.201   5.659 -0.6034 -0.3303  0.2998
   67OSM    C8S 5500   3.480   6.396   5.592  0.2853 -0.1727 -0.4534
   67OSM    H8S 5501   3.586   6.365   5.582  0.6210  0.1538  1.6370
   67OSM    H8T 5502   3.483   6.504   5.615  1.6557 -0.5540  1.3541
   67OSM    C9S 5503   3.416   6.365   5.459  0.2536  0.6416 -1.4608
   67OSM    H9S 5504   3.307   6.380   5.475  0.5821  1.0459  0.8806
   67OSM    H9T 5505   3.430   6.255   5.450  0.6892  0.6616 -1.1089
   67OSM   C10S 5506   3.465   6.447   5.338 -0.5559  0.5028  0.1090
   67OSM   H10S 5507   3.572   6.422   5.322 -1.2328 -2.6417 -0.1104
   67OSM   H10T 5508   3.458   6.557   5.358  1.7159  1.0936 -1.9205
   67OSM   C11S 5509   3.408   6.402   5.205  0.1737  0.0735 -0.3902
   67OSM   H11S 5510   3.298   6.401   5.221 -0.0137  1.1302 -1.4535
   67OSM   H11T 5511   3.431   6.297   5.176  1.1979  0.6402 -1.7740
   67OSM   C12S 5512   3.447   6.498   5.089  0.4811 -0.0851 -0.1010
   67OSM   H12S 5513   3.557   6.493   5.078  0.6626  0.7195  1.2206
   67OSM   H12T 5514   3.427   6.601   5.125  1.0406  1.0950 -2.8616
   67OSM   C13S 5515   3.386   6.461   4.962  0.2661 -0.2549  0.5535
   67OSM   H13S 5516   3.276   6.456   4.976  0.0343  1.4658 -0.3704
   67OSM   H13T 5517   3.428   6.366   4.922 -2.2155 -1.6144  1.0146
   67OSM   C14S 5518   3.418   6.560   4.845 -0.0828 -0.2718 -0.2279
   67OSM   H14S 5519   3.528   6.573   4.838 -0.2296  0.5503 -1.3008
   67OSM   H14T 5520   3.379   6.660   4.872 -1.2062 -1.3488  2.5889
   67OSM   C15S 5521   3.343   6.524   4.714  0.2659  0.1956  0.0891
   67OSM   H15S 5522   3.236   6.510   4.738  0.0217  1.1776 -0.3818
   67OSM   H15T 5523   3.384   6.427   4.677  0.8226  0.8091 -0.9230
   67OSM   C16S 5524   3.361   6.624   4.599 -0.1837  0.1069  0.4190
   67OSM   H16S 5525   3.470   6.644   4.595 -0.1981  0.8382  2.4952
   67OSM   H16T 5526   3.332   6.729   4.621  0.3119  0.3221  0.0737
   67OSM   C17S 5527   3.306   6.576   4.467 -0.2001  0.0302 -0.1548
   67OSM   H17S 5528   3.357   6.481   4.440 -0.9114 -0.2290 -0.6172
   67OSM   H17T 5529   3.336   6.646   4.386  1.1016  0.6733  0.8471
   67OSM   C18S 5530   3.150   6.577   4.455 -0.4217 -0.7368 -0.0196
   67OSM   H18S 5531   3.112   6.539   4.358 -0.5011  0.6290 -0.5452
   67OSM   H18T 5532   3.109   6.680   4.466 -0.2824 -0.7227  0.3771
   67OSM   H18U 5533   3.093   6.517   4.529 -1.9885 -0.3828 -0.8899
   67OSM    C1F 5534   2.992   6.165   6.032 -0.8096 -0.1851  0.4760
   67OSM     OF 5535   2.916   6.218   6.112  0.1398 -0.0044 -0.2100
   67OSM    C2F 5536   2.929   6.105   5.907 -0.6033 -0.0719  0.1835
   67OSM    H2F 5537   2.852   6.184   5.896 -0.6962  0.0220  1.3355
   67OSM    H2G 5538   2.871   6.011   5.921  0.6533 -0.9858 -0.4959
   67OSM    C3F 5539   3.028   6.110   5.789 -0.1802  0.0863 -0.1100
   67OSM    H3F 5540   3.098   6.024   5.793  0.2816  0.4994  1.2545
   67OSM    H3G 5541   3.098   6.197   5.794 -1.3666  0.9888  1.6258
   67OSM    C4F 5542   2.961   6.101   5.658 -0.3527 -0.0522  0.9987
   67OSM    H4F 5543   2.871   6.166   5.663 -0.5006 -0.1862  0.2026
   67OSM    H4G 5544   2.917   5.999   5.653 -2.8434  0.8092  3.0734
   67OSM    C5F 5545   3.050   6.130   5.536 -0.4920  1.1380  0.6510
   67OSM    H5F 5546   3.148   6.078   5.547 -0.8252  0.2920 -0.2593
   67OSM    H5G 5547   3.056   6.241   5.540  1.1425  1.0809  0.4943
   67OSM    C6F 5548   2.992   6.097   5.391 -0.3160  0.1241 -0.6658
   67OSM    H6F 5549   2.881   6.094   5.389 -0.4650  2.6679  0.0963
   67OSM    H6G 5550   3.035   6.002   5.353  2.0001  1.3792 -1.3810
   67OSM    C7F 5551   3.036   6.198   5.284  0.0212  0.0444  0.1809
   67OSM    H7F 5552   3.141   6.220   5.311 -0.0276  1.2384 -0.5505
   67OSM    H7G 5553   2.974   6.290   5.292 -1.2113 -0.7608  0.3442
   67OSM    C8F 5554   3.030   6.141   5.141 -0.3568  0.4371 -0.2787
   67OSM    H8F 5555   2.939   6.080   5.120 -1.3297  1.1636  1.6616
   67OSM    H8G 5556   3.113   6.067   5.130 -0.6952  0.1416 -0.9571
   67OSM    C9F 5557   3.047   6.248   5.036 -0.2941 -0.2377 -0.4348
   67OSM    H9F 5558   3.144   6.301   5.031 -0.2323 -0.2548  0.4078
   67OSM   C10F 5559   2.978   6.265   4.913  0.4717  0.4494  0.0503
   67OSM   H10F 5560   3.003   6.345   4.842  2.1276 -0.5319 -0.5228
   67OSM   C11F 5561   2.857   6.186   4.865  0.2939  0.7255  0.3211
   67OSM   H11F 5562   2.770   6.255   4.860 -0.3990 -0.1730 -0.5418
   67OSM   H11G 5563   2.830   6.107   4.939 -0.1515  1.4918  0.9843
   67OSM   C12F 5564   2.871   6.138   4.717  1.0605  0.6369 -0.0653
   67OSM   H12F 5565   2.771   6.094   4.695  0.8170 -0.3457  2.7221
   67OSM   H12G 5566   2.951   6.061   4.713 -0.0862 -0.7046  1.5420
   67OSM   C13F 5567   2.887   6.256   4.621 -0.1166  0.0189  0.0012
   67OSM   H13F 5568   2.991   6.294   4.632 -0.6756  1.3354  0.9194
   67OSM   H13G 5569   2.806   6.332   4.623  0.1162  0.2791 -0.5327
   67OSM   C14F 5570   2.889   6.206   4.476  0.4062  0.1208  0.0500
   67OSM   H14F 5571   2.791   6.163   4.448 -0.6580  0.7693  2.4768
   67OSM   H14G 5572   2.964   6.125   4.463 -0.3323 -0.4032 -1.1056
   67OSM   C15F 5573   2.913   6.313   4.367  0.4302 -0.1384  0.4768
   67OSM   H15F 5574   3.024   6.317   4.359  0.4633 -0.3433  0.7983
   67OSM   H15G 5575   2.863   6.408   4.395 -1.8088 -1.2715  0.5736
   67OSM   C16F 5576   2.863   6.270   4.236  1.3833  0.4115 -0.3082
   67OSM   H16F 5577   2.755   6.242   4.240  1.3189  0.5590 -0.8973
   67OSM   H16G 5578   2.913   6.177   4.202 -1.8035 -1.7284  0.3662
   67OSM   C17F 5579   2.874   6.375   4.122 -0.5643  0.0485 -0.0935
   67OSM   H17F 5580   2.893   6.321   4.027  1.9903  2.5742 -1.1703
   67OSM   H17G 5581   2.968   6.435   4.128  0.1655 -0.6534 -2.9787
   67OSM   C18F 5582   2.757   6.468   4.097  1.2843  0.2450 -0.1532
   67OSM   H18F 5583   2.672   6.401   4.074  1.4056  0.6595 -1.9764
   67OSM   H18G 5584   2.775   6.543   4.017 -2.7395  1.9663  0.3396
   67OSM   H18H 5585   2.722   6.523   4.187 -3.4805  1.5828 -2.4826
   68OSM      N 5586   0.936   2.231   6.849  0.3787 -0.3022  0.2840
   68OSM    C15 5587   0.862   2.330   6.768 -0.5156 -0.3417  0.3647
   68OSM   H15A 5588   0.757   2.347   6.787 -0.6233 -2.2390  1.6224
   68OSM   H15B 5589   0.875   2.299   6.665 -2.6765 -1.5331  0.3819
   68OSM   H15C 5590   0.920   2.420   6.783 -0.3840 -0.6674  1.9114
   68OSM    C14 5591   0.921   2.281   6.996  0.4411 -0.6022  0.7057
   68OSM   H14A 5592   0.963   2.206   7.061  2.4239 -1.2132 -1.1669
   68OSM   H14B 5593   0.819   2.312   7.014  1.4090  2.5862  1.3976
   68OSM   H14C 5594   0.985   2.367   7.012  0.2308 -0.1868 -0.5309
   68OSM    C13 5595   0.871   2.093   6.838 -0.3326  0.5377 -0.2018
   68OSM   H13A 5596   0.766   2.113   6.854  0.0775  0.6659  3.0758
   68OSM   H13B 5597   0.905   2.034   6.921 -2.4991 -2.1318 -1.0562
   68OSM   H13C 5598   0.889   2.044   6.743  0.0067  0.2504  0.0071
   68OSM    C12 5599   1.083   2.235   6.807 -0.5388  0.5780 -0.1066
   68OSM   H12A 5600   1.149   2.170   6.863 -1.6861 -1.7263 -1.2861
   68OSM   H12B 5601   1.121   2.335   6.825 -2.7504  1.5340 -0.4094
   68OSM    C11 5602   1.111   2.196   6.660 -0.0652  0.3992  0.1894
   68OSM   H11A 5603   1.019   2.145   6.624  0.2966 -0.1961  0.0945
   68OSM   H11B 5604   1.193   2.121   6.650 -0.8345 -0.3465 -0.7488
   68OSM      P 5605   1.265   2.309   6.484  0.0304  0.4092  0.1414
   68OSM    O13 5606   1.261   2.430   6.407  0.3449  0.4301  0.1759
   68OSM    O14 5607   1.389   2.273   6.562  0.3404  0.5093  0.0077
   68OSM    O11 5608   1.218   2.189   6.395  0.9078  0.3635  0.0932
   68OSM    O12 5609   1.136   2.312   6.585 -0.2936  0.2056 -0.4483
   68OSM    C1S 5610   1.289   2.163   6.276 -0.4876 -0.2891 -0.3497
   68OSM    H1S 5611   1.364   2.083   6.293  0.5424  0.3993 -1.4518
   68OSM    H1T 5612   1.346   2.249   6.236  0.3722 -0.0300  1.3461
   68OSM     NF 5613   1.280   2.083   6.044  0.2005 -0.0514 -0.1782
   68OSM    HNF 5614   1.281   2.139   5.961 -2.9487  0.0595 -0.2589
   68OSM    C2S 5615   1.197   2.128   6.158 -0.3987  0.2876  0.1192
   68OSM    H2S 5616   1.142   2.040   6.198 -1.1526  1.4288  1.6679
   68OSM    C3S 5617   1.104   2.241   6.120  1.2417 -0.0183 -0.0240
   68OSM    H3S 5618   1.161   2.335   6.107  0.2967  0.6713  0.6367
   68OSM     O3 5619   1.009   2.282   6.220  0.3740  0.3399  0.1323
   68OSM    HO3 5620   1.059   2.289   6.302 -2.0087  0.6771  1.6765
   68OSM    C4S 5621   1.014   2.222   5.999  0.8261  0.9875 -0.7000
   68OSM    H4S 5622   0.943   2.140   6.021  0.9109  1.5527  1.9085
   68OSM    C5S 5623   0.999   2.300   5.890  0.4316  0.1890 -0.3354
   68OSM    H5S 5624   1.050   2.397   5.898 -0.3997  0.5840  0.3542
   68OSM    C6S 5625   0.913   2.278   5.774  0.1361 -0.5150 -0.2419
   68OSM    H6S 5626   0.812   2.311   5.806  0.0760 -2.2536  1.5649
   68OSM    H6T 5627   0.899   2.169   5.768 -2.0204 -0.2269 -0.9246
   68OSM    C7S 5628   0.954   2.338   5.636  0.6901  0.6306  0.5268
   68OSM    H7S 5629   1.054   2.299   5.606 -0.2110 -0.6484 -0.9690
   68OSM    H7T 5630   0.965   2.448   5.647  0.1769  0.7489 -0.1016
   68OSM    C8S 5631   0.854   2.297   5.527 -0.1501  0.5402  0.1615
   68OSM    H8S 5632   0.751   2.337   5.545 -0.1937  0.6321 -0.2753
   68OSM    H8T 5633   0.841   2.187   5.519 -0.5552  0.5859  0.1411
   68OSM    C9S 5634   0.896   2.346   5.387 -0.1728 -0.2724 -0.3845
   68OSM    H9S 5635   0.978   2.282   5.349 -0.2410 -0.7103  0.1946
   68OSM    H9T 5636   0.929   2.452   5.396 -0.6622 -0.2351  1.5220
   68OSM   C10S 5637   0.785   2.334   5.286 -0.6911 -0.0583  0.8104
   68OSM   H10S 5638   0.697   2.396   5.314  0.2091  2.0069 -0.6782
   68OSM   H10T 5639   0.760   2.226   5.294 -0.6187 -0.3709 -2.1857
   68OSM   C11S 5640   0.832   2.370   5.141 -0.0638 -0.3062 -0.4721
   68OSM   H11S 5641   0.934   2.324   5.145 -0.1150 -0.3621  0.5135
   68OSM   H11T 5642   0.841   2.480   5.129 -1.4473 -0.0878  0.3367
   68OSM   C12S 5643   0.745   2.315   5.025  0.9574 -0.6980  0.3523
   68OSM   H12S 5644   0.662   2.387   5.009  0.8295 -0.8979  0.1009
   68OSM   H12T 5645   0.704   2.216   5.055 -0.8454  0.1465  0.8307
   68OSM   C13S 5646   0.817   2.304   4.894  0.4222  0.2487 -0.2185
   68OSM   H13S 5647   0.916   2.257   4.909  1.1418  2.1850  1.5056
   68OSM   H13T 5648   0.831   2.407   4.853  0.1220  0.6388  0.6338
   68OSM   C14S 5649   0.734   2.226   4.792 -0.2204 -0.6096  0.1724
   68OSM   H14S 5650   0.639   2.283   4.781  0.6154  1.0748  1.2561
   68OSM   H14T 5651   0.711   2.124   4.830 -1.1557 -0.8237 -0.9015
   68OSM   C15S 5652   0.795   2.210   4.657 -0.8009  0.5289 -0.4394
   68OSM   H15S 5653   0.894   2.160   4.662 -1.4200 -0.6214  0.8048
   68OSM   H15T 5654   0.812   2.312   4.616  0.0577  0.8425  0.6449
   68OSM   C16S 5655   0.712   2.126   4.557 -0.0578 -0.6764 -0.6038
   68OSM   H16S 5656   0.601   2.134   4.568 -0.3325 -5.2743  2.8898
   68OSM   H16T 5657   0.738   2.019   4.564  1.2344 -0.2728  2.7352
   68OSM   C17S 5658   0.738   2.164   4.408  0.1625  0.1196 -0.1193
   68OSM   H17S 5659   0.842   2.150   4.371  0.1644  2.2524 -1.0481
   68OSM   H17T 5660   0.720   2.273   4.407 -2.9775 -0.3001 -0.1006
   68OSM   C18S 5661   0.648   2.101   4.300  0.6965 -0.2856 -0.2991
   68OSM   H18S 5662   0.626   2.164   4.211 -0.8542 -0.6047 -0.1583
   68OSM   H18T 5663   0.553   2.080   4.352 -0.0965  0.8268 -1.2608
   68OSM   H18U 5664   0.699   2.008   4.266  1.8898  1.0453 -2.3822
   68OSM    C1F 5665   1.359   1.973   6.055  0.5702 -0.1343 -0.4133
   68OSM     OF 5666   1.352   1.907   6.157  0.3381 -0.0215  0.2639
   68OSM    C2F 5667   1.472   1.952   5.954  0.4826 -0.1371  0.4209
   68OSM    H2F 5668   1.563   1.953   6.018 -0.1542  0.8013  1.3538
   68OSM    H2G 5669   1.468   2.033   5.877  2.8312 -0.1623  0.1992
   68OSM    C3F 5670   1.462   1.816   5.880  0.1404 -0.0794 -0.2391
   68OSM    H3F 5671   1.363   1.799   5.832 -1.7224  0.5040  3.1414
   68OSM    H3G 5672   1.483   1.737   5.955 -1.1913  1.5304  1.9332
   68OSM    C4F 5673   1.558   1.815   5.760  0.4058 -0.9475  0.5403
   68OSM    H4F 5674   1.662   1.808   5.801  0.5522  1.5513  0.7702
   68OSM    H4G 5675   1.561   1.912   5.707  1.1622 -0.6879  1.0315
   68OSM    C5F 5676   1.527   1.695   5.660  0.5640 -0.2983 -0.7559
   68OSM    H5F 5677   1.421   1.720   5.638  0.6608 -0.1651 -1.0820
   68OSM    H5G 5678   1.539   1.595   5.707 -0.0905 -0.6971 -1.4183
   68OSM    C6F 5679   1.625   1.695   5.551  0.1072 -0.3057 -0.3304
   68OSM    H6F 5680   1.730   1.672   5.579  1.7212  1.6444 -4.0251
   68OSM    H6G 5681   1.617   1.802   5.522 -0.7720  0.6617  3.0786
   68OSM    C7F 5682   1.586   1.609   5.424  0.8954  0.0579 -0.2262
   68OSM    H7F 5683   1.541   1.511   5.450  3.0089 -1.5096 -2.0961
   68OSM    H7G 5684   1.688   1.584   5.388  0.5334 -0.2028 -1.1059
   68OSM    C8F 5685   1.499   1.677   5.319 -0.3571 -0.2469 -0.4935
   68OSM    H8F 5686   1.411   1.727   5.365 -0.0903  0.1300 -0.3946
   68OSM    H8G 5687   1.457   1.602   5.248 -0.3761 -0.4635 -0.2540
   68OSM    C9F 5688   1.580   1.765   5.229 -0.6005  0.1081 -0.3561
   68OSM    H9F 5689   1.579   1.872   5.253 -1.7160  0.3275 -1.3332
   68OSM   C10F 5690   1.647   1.726   5.120  0.3581 -0.5606  0.0269
   68OSM   H10F 5691   1.706   1.806   5.072 -2.8226  2.3726  0.5520
   68OSM   C11F 5692   1.656   1.588   5.061  0.4458  0.7807 -0.5000
   68OSM   H11F 5693   1.639   1.507   5.135  2.9339 -0.9253 -1.6676
   68OSM   H11G 5694   1.759   1.584   5.019  0.3594 -0.1066 -0.6387
   68OSM   C12F 5695   1.563   1.567   4.937 -0.2214 -0.1666  0.5344
   68OSM   H12F 5696   1.465   1.526   4.969 -0.4175 -0.5475 -0.5459
   68OSM   H12G 5697   1.606   1.478   4.887 -1.8991 -1.8191  1.8876
   68OSM   C13F 5698   1.560   1.667   4.828 -0.1692 -1.3954 -0.2323
   68OSM   H13F 5699   1.665   1.681   4.794 -1.1397  0.5865 -2.7667
   68OSM   H13G 5700   1.512   1.757   4.874 -1.7263 -2.3762  0.1171
   68OSM   C14F 5701   1.466   1.619   4.714 -0.4542  0.1006  0.1680
   68OSM   H14F 5702   1.434   1.713   4.665 -0.5355  1.3848  2.5317
   68OSM   H14G 5703   1.378   1.577   4.768 -0.2608  1.9135  2.0248
   68OSM   C15F 5704   1.532   1.524   4.621  0.1366  0.5162 -0.2113
   68OSM   H15F 5705   1.527   1.419   4.658  0.2186 -0.1444 -1.9980
   68OSM   H15G 5706   1.638   1.554   4.611 -0.0717  1.4633  0.2343
   68OSM   C16F 5707   1.474   1.530   4.475  0.5857 -0.2472  0.0272
   68OSM   H16F 5708   1.439   1.635   4.464  1.7479  0.2984  1.2002
   68OSM   H16G 5709   1.398   1.451   4.490  0.1768  0.2266  0.5441
   68OSM   C17F 5710   1.563   1.484   4.355 -0.3018  0.4372 -0.5628
   68OSM   H17F 5711   1.582   1.377   4.380 -0.7953  0.8092  1.6466
   68OSM   H17G 5712   1.657   1.543   4.360  0.3596 -0.6362  0.2949
   68OSM   C18F 5713   1.486   1.505   4.226 -0.0529  0.3736 -0.3559
   68OSM   H18F 5714   1.407   1.427   4.220  0.6250 -0.4146  0.6365
   68OSM   H18G 5715   1.542   1.503   4.130  1.3833  0.8896  0.4413
   68OSM   H18H 5716   1.432   1.602   4.224 -0.0324  0.4198 -3.0163
   69OSM      N 5717   3.097   0.803   6.421 -0.2015  0.1646 -0.4604
   69OSM    C15 5718   3.097   0.706   6.536  0.1507  0.2455 -0.5705
   69OSM   H15A 5719   2.998   0.699   6.578  0.9255 -0.7805  1.2269
   69OSM   H15B 5720   3.168   0.737   6.611 -2.0270  1.3182  1.1769
   69OSM   H15C 5721   3.120   0.605   6.505  0.1205 -0.0361  0.2983
   69OSM    C14 5722   3.082   0.944   6.477  1.1123  0.5836  0.1241
   69OSM   H14A 5723   3.177   0.965   6.524  1.8670 -2.1963 -0.0292
   69OSM   H14B 5724   3.008   0.959   6.554  0.4412  1.9339 -0.7293
   69OSM   H14C 5725   3.070   1.017   6.397  0.9075  0.8776  0.4222
   69OSM    C13 5726   3.227   0.792   6.340  0.8487  1.2204 -0.0651
   69OSM   H13A 5727   3.229   0.692   6.300  1.5804  1.2718 -0.1611
   69OSM   H13B 5728   3.311   0.814   6.404 -0.7148  0.4256  2.4180
   69OSM   H13C 5729   3.222   0.867   6.262  2.2346  1.5609  0.1614
   69OSM    C12 5730   2.986   0.764   6.327  0.6458 -0.3632  0.0047
   69OSM   H12A 5731   2.891   0.761   6.378  1.2421  1.9004  1.3626
   69OSM   H12B 5732   3.005   0.661   6.299 -0.1087 -0.7091  0.7164
   69OSM    C11 5733   2.966   0.849   6.194  0.2363  0.7253 -0.3559
   69OSM   H11A 5734   2.900   0.799   6.120  1.3698  1.7814 -2.1789
   69OSM   H11B 5735   3.059   0.837   6.133 -0.1999  1.9674 -1.2884
   69OSM      P 5736   2.771   1.001   6.272  0.2126 -0.3165 -0.0506
   69OSM    O13 5737   2.712   0.870   6.303  0.7448 -0.2419  0.2409
   69OSM    O14 5738   2.775   1.105   6.376 -0.3432 -0.3783 -0.0001
   69OSM    O11 5739   2.708   1.060   6.143 -0.4977 -0.0925  0.7012
   69OSM    O12 5740   2.915   0.979   6.218 -0.4081  0.1059  0.3196
   69OSM    C1S 5741   2.706   0.994   6.014  0.2520 -0.1866 -0.0062
   69OSM    H1S 5742   2.603   0.954   6.004  0.4059 -0.8968  1.0890
   69OSM    H1T 5743   2.771   0.904   6.009 -0.5354 -0.8689  1.4155
   69OSM     NF 5744   2.757   1.015   5.770 -0.2664 -0.0932  0.2022
   69OSM    HNF 5745   2.850   0.994   5.742 -0.5232  0.6781 -1.3441
   69OSM    C2S 5746   2.736   1.092   5.889 -0.1368  0.1488 -0.4653
   69OSM    H2S 5747   2.648   1.152   5.859 -1.0549 -0.0164  1.6832
   69OSM    C3S 5748   2.848   1.191   5.915  0.8239  0.5207 -0.6067
   69OSM    H3S 5749   2.940   1.130   5.926  0.6455  0.4253  0.3981
   69OSM     O3 5750   2.834   1.267   6.031  0.3174 -0.2924 -0.4768
   69OSM    HO3 5751   2.771   1.220   6.086  1.5978 -1.4115  0.1004
   69OSM    C4S 5752   2.849   1.287   5.796  0.2916  0.4088 -0.2950
   69OSM    H4S 5753   2.781   1.371   5.813 -0.6971 -0.4722  0.2085
   69OSM    C5S 5754   2.928   1.279   5.692 -0.2826 -0.6237  0.4914
   69OSM    H5S 5755   2.991   1.191   5.672  0.1462  0.2940 -2.9415
   69OSM    C6S 5756   2.920   1.378   5.575 -0.9184  0.1026  0.0798
   69OSM    H6S 5757   3.025   1.387   5.540 -1.0005  0.1284 -0.1654
   69OSM    H6T 5758   2.892   1.474   5.624 -1.1207 -0.0566  0.2796
   69OSM    C7S 5759   2.835   1.346   5.454 -0.1831  0.4306  0.5671
   69OSM    H7S 5760   2.734   1.312   5.487 -0.2272 -0.7648 -0.6928
   69OSM    H7T 5761   2.879   1.263   5.395 -0.6997  2.0204 -2.2633
   69OSM    C8S 5762   2.832   1.465   5.361  0.6660  0.3002 -0.7123
   69OSM    H8S 5763   2.936   1.498   5.338  0.5665  0.3673 -1.0777
   69OSM    H8T 5764   2.782   1.549   5.414  0.8109 -0.1757  0.2077
   69OSM    C9S 5765   2.757   1.426   5.236  0.2173 -0.8822 -0.0758
   69OSM    H9S 5766   2.651   1.400   5.257  0.4473 -1.3043  0.5782
   69OSM    H9T 5767   2.793   1.330   5.194  1.8620 -1.6455  2.8425
   69OSM   C10S 5768   2.751   1.535   5.128 -0.6597 -0.6586  0.0787
   69OSM   H10S 5769   2.855   1.572   5.110 -0.7957  0.2584  1.0691
   69OSM   H10T 5770   2.706   1.628   5.170  2.6574  1.3105 -0.3392
   69OSM   C11S 5771   2.678   1.495   5.001  0.3797  0.4016  0.5109
   69OSM   H11S 5772   2.577   1.458   5.026  0.0729  1.0739  0.2954
   69OSM   H11T 5773   2.736   1.412   4.956  3.4867  1.8488  1.5075
   69OSM   C12S 5774   2.676   1.607   4.887  0.6784  0.2010 -0.1457
   69OSM   H12S 5775   2.758   1.676   4.916  0.1034  1.8066 -2.0946
   69OSM   H12T 5776   2.587   1.674   4.894  1.6882  1.7847 -1.6912
   69OSM   C13S 5777   2.702   1.548   4.749  0.0688 -0.1724 -0.0127
   69OSM   H13S 5778   2.636   1.461   4.731  0.2237 -0.3499  0.2696
   69OSM   H13T 5779   2.809   1.517   4.746  0.3394  0.7820 -0.7429
   69OSM   C14S 5780   2.686   1.657   4.640  0.0732 -0.3768 -1.1624
   69OSM   H14S 5781   2.754   1.742   4.663  0.2179 -0.6193 -0.6653
   69OSM   H14T 5782   2.579   1.680   4.659  0.5480  0.0582  1.3698
   69OSM   C15S 5783   2.724   1.612   4.498  0.1899  0.4120 -0.5028
   69OSM   H15S 5784   2.645   1.543   4.460  0.2710 -1.7674  2.8818
   69OSM   H15T 5785   2.820   1.557   4.507  0.3622  0.8392  0.3473
   69OSM   C16S 5786   2.742   1.732   4.406 -0.0085  0.1631  1.3113
   69OSM   H16S 5787   2.801   1.809   4.459  1.3225 -0.5534  0.9111
   69OSM   H16T 5788   2.648   1.782   4.375  0.5005 -0.1299 -0.8395
   69OSM   C17S 5789   2.811   1.692   4.274  0.1472  0.5743  0.9985
   69OSM   H17S 5790   2.759   1.736   4.186  0.6661 -1.5220 -0.4157
   69OSM   H17T 5791   2.806   1.584   4.249 -0.6576  1.1444 -1.5744
   69OSM   C18S 5792   2.962   1.737   4.268  1.0168 -0.1360 -0.2812
   69OSM   H18S 5793   3.014   1.689   4.354 -1.5364  1.2447  2.2149
   69OSM   H18T 5794   2.970   1.846   4.289  1.0336 -0.2723  0.4538
   69OSM   H18U 5795   3.025   1.715   4.179  1.3761  3.0434 -0.9519
   69OSM    C1F 5796   2.674   0.933   5.709  0.1878 -0.2198  0.4469
   69OSM     OF 5797   2.560   0.925   5.742 -0.0922  0.2756 -0.0666
   69OSM    C2F 5798   2.746   0.835   5.627 -0.0707 -0.2479  0.1089
   69OSM    H2F 5799   2.751   0.740   5.686 -0.6677 -0.4416 -0.1501
   69OSM    H2G 5800   2.844   0.881   5.604 -0.1753  0.0464  0.2516
   69OSM    C3F 5801   2.681   0.804   5.493 -0.3682  0.3022 -0.4754
   69OSM    H3F 5802   2.588   0.746   5.511 -0.5913  0.8409  0.1777
   69OSM    H3G 5803   2.750   0.740   5.435  1.7709 -0.2625  2.4549
   69OSM    C4F 5804   2.649   0.926   5.416  0.0409  0.1841 -0.0087
   69OSM    H4F 5805   2.713   1.014   5.434 -1.1065  1.0422 -0.0054
   69OSM    H4G 5806   2.546   0.958   5.442 -0.2953  1.2808 -2.4181
   69OSM    C5F 5807   2.664   0.902   5.264  0.7456 -0.2630 -0.4717
   69OSM    H5F 5808   2.765   0.860   5.247  2.2579  2.3446  1.3523
   69OSM    H5G 5809   2.662   0.995   5.204 -1.4710  0.8916  1.2159
   69OSM    C6F 5810   2.564   0.808   5.204  0.1037  0.7158  1.4797
   69OSM    H6F 5811   2.467   0.862   5.212 -1.7267 -1.9981 -0.6105
   69OSM    H6G 5812   2.544   0.715   5.261  0.8813  0.2879  1.0736
   69OSM    C7F 5813   2.595   0.787   5.054  0.8850  0.5017 -0.3546
   69OSM    H7F 5814   2.689   0.727   5.053 -1.0054 -2.7708  1.0625
   69OSM    H7G 5815   2.603   0.885   5.002 -0.8445  2.1974  2.3570
   69OSM    C8F 5816   2.497   0.698   4.980  0.4814 -0.3651  0.0003
   69OSM    H8F 5817   2.417   0.770   4.951 -0.1827 -0.7797  0.7513
   69OSM    H8G 5818   2.456   0.621   5.049 -0.4461 -0.5096 -0.6930
   69OSM    C9F 5819   2.552   0.630   4.856  0.0357 -0.3261  0.5800
   69OSM    H9F 5820   2.635   0.562   4.880  1.2383  1.0848  0.6237
   69OSM   C10F 5821   2.522   0.655   4.728 -0.1951 -0.4001  0.3240
   69OSM   H10F 5822   2.576   0.600   4.650 -1.3447 -0.6291 -0.3411
   69OSM   C11F 5823   2.413   0.746   4.674 -0.2473 -0.2833 -0.6166
   69OSM   H11F 5824   2.444   0.851   4.691  0.0686 -0.7193  1.8670
   69OSM   H11G 5825   2.324   0.731   4.739 -0.1361  0.4516 -0.2871
   69OSM   C12F 5826   2.366   0.728   4.528  0.2720 -0.3536 -0.3899
   69OSM   H12F 5827   2.342   0.620   4.519  1.0922 -0.7548  1.5927
   69OSM   H12G 5828   2.447   0.740   4.453 -0.3845  1.7091 -0.8069
   69OSM   C13F 5829   2.238   0.807   4.507  0.3155 -0.1789 -0.0464
   69OSM   H13F 5830   2.267   0.913   4.527  1.7572 -0.7949  1.4276
   69OSM   H13G 5831   2.158   0.777   4.578 -1.4225  2.0295 -0.9460
   69OSM   C14F 5832   2.168   0.797   4.373  0.0247 -0.3816  0.1646
   69OSM   H14F 5833   2.068   0.846   4.382  0.7624  1.0924  0.6707
   69OSM   H14G 5834   2.161   0.692   4.339  0.6835 -0.6888  0.9502
   69OSM   C15F 5835   2.245   0.870   4.259  0.2510  0.0668 -1.0809
   69OSM   H15F 5836   2.317   0.804   4.206 -1.9615 -2.2337 -1.4194
   69OSM   H15G 5837   2.308   0.952   4.300  0.3562  0.2242 -1.5562
   69OSM   C16F 5838   2.149   0.935   4.161  0.3027  0.0748  0.4207
   69OSM   H16F 5839   2.095   1.018   4.212 -1.4572 -0.8919  0.2127
   69OSM   H16G 5840   2.070   0.864   4.130 -0.9039  0.6277  2.1082
   69OSM   C17F 5841   2.221   0.977   4.031  0.6253 -0.1667 -0.4740
   69OSM   H17F 5842   2.267   0.893   3.976  0.8733 -1.4735  1.6271
   69OSM   H17G 5843   2.299   1.048   4.066  0.9551 -1.1597  0.8589
   69OSM   C18F 5844   2.129   1.054   3.943 -0.2280 -0.5022  0.1770
   69OSM   H18F 5845   2.044   1.106   3.993 -0.1930  1.4252 -1.6003
   69OSM   H18G 5846   2.077   0.992   3.867  1.4745 -0.9605 -0.6700
   69OSM   H18H 5847   2.188   1.123   3.878 -0.2157 -1.2392 -0.6170
   70OSM      N 5848   1.072   1.806   6.486 -0.7671 -0.5304 -0.1473
   70OSM    C15 5849   1.034   1.692   6.409 -0.0022 -0.7050  0.2362
   70OSM   H15A 5850   0.952   1.645   6.460  1.6556 -1.9062  1.9116
   70OSM   H15B 5851   1.111   1.617   6.398 -0.6286 -1.5766  1.5563
   70OSM   H15C 5852   0.997   1.717   6.310  1.2539 -1.4760 -0.4557
   70OSM    C14 5853   1.123   1.764   6.623 -0.2379  0.1952 -0.3767
   70OSM   H14A 5854   1.140   1.849   6.687  0.2335 -0.7011  0.7283
   70OSM   H14B 5855   1.221   1.719   6.622 -1.2781 -2.3182  0.8165
   70OSM   H14C 5856   1.061   1.696   6.679  0.4228  0.2368  0.4239
   70OSM    C13 5857   1.186   1.871   6.416 -1.0462  0.0241  0.1481
   70OSM   H13A 5858   1.270   1.803   6.425 -1.0263 -0.1356 -1.0161
   70OSM   H13B 5859   1.224   1.959   6.465 -0.3822  0.0472 -0.3901
   70OSM   H13C 5860   1.169   1.890   6.311  2.0951  0.0762 -0.4245
   70OSM    C12 5861   0.960   1.904   6.497 -0.0238 -1.1827  0.0271
   70OSM   H12A 5862   0.948   1.958   6.404 -2.4595  2.2098  2.0637
   70OSM   H12B 5863   1.006   1.976   6.563  2.0219 -1.2766 -1.2100
   70OSM    C11 5864   0.825   1.855   6.534  0.3343 -0.3193 -0.1281
   70OSM   H11A 5865   0.837   1.791   6.624 -0.0012  1.6433  1.3843
   70OSM   H11B 5866   0.785   1.801   6.445 -0.1132  1.3033 -0.9475
   70OSM      P 5867   0.594   1.940   6.607  0.6118 -0.3589  0.5776
   70OSM    O13 5868   0.589   1.809   6.673 -0.2225 -0.1021 -0.0238
   70OSM    O14 5869   0.551   2.056   6.687  0.4375 -0.3796  0.5609
   70OSM    O11 5870   0.505   1.930   6.477 -0.7658 -0.4171 -0.1994
   70OSM    O12 5871   0.747   1.971   6.560 -0.2419  0.2042  0.6412
   70OSM    C1S 5872   0.535   2.003   6.356 -0.6468 -1.3972 -0.0237
   70OSM    H1S 5873   0.617   1.961   6.295  0.3034  0.6319 -0.2443
   70OSM    H1T 5874   0.558   2.111   6.372 -0.5857 -1.4875  0.5074
   70OSM     NF 5875   0.430   2.049   6.138  0.8961 -0.2024 -0.6645
   70OSM    HNF 5876   0.397   2.143   6.130 -0.9835 -0.6338  1.3001
   70OSM    C2S 5877   0.406   1.986   6.267 -0.3952  0.2453  0.1664
   70OSM    H2S 5878   0.403   1.878   6.238  2.8417  0.0920  0.1190
   70OSM    C3S 5879   0.277   2.026   6.339  0.3846 -0.3599  0.6162
   70OSM    H3S 5880   0.295   2.131   6.372 -0.4199 -0.2095  0.6142
   70OSM     O3 5881   0.241   1.964   6.459 -0.5757  0.3352  0.0371
   70OSM    HO3 5882   0.329   1.928   6.476  0.2899  1.7905 -1.0135
   70OSM    C4S 5883   0.150   2.028   6.255  0.1835  0.2901  0.1842
   70OSM    H4S 5884   0.144   2.122   6.197  3.5576  0.3810 -0.1883
   70OSM    C5S 5885   0.060   1.932   6.235 -0.2050  0.3392 -0.4476
   70OSM    H5S 5886   0.088   1.832   6.272 -0.2963  0.3638 -0.3129
   70OSM    C6S 5887  -0.063   1.944   6.144  0.2003 -0.5472 -0.2197
   70OSM    H6S 5888  -0.152   1.927   6.208  1.1961  0.2238  1.4498
   70OSM    H6T 5889  -0.059   1.862   6.070 -0.1246 -1.7166  1.0045
   70OSM    C7S 5890  -0.072   2.081   6.078  0.2485  0.5541 -0.6083
   70OSM    H7S 5891  -0.064   2.169   6.145 -0.0140  0.6052 -0.6413
   70OSM    H7T 5892  -0.181   2.092   6.061 -0.2680 -5.0851 -3.3824
   70OSM    C8S 5893   0.000   2.097   5.941 -1.0182 -0.2697  0.1713
   70OSM    H8S 5894  -0.016   2.004   5.882 -0.8719  0.9952 -1.9709
   70OSM    H8T 5895   0.111   2.106   5.947 -0.9577 -0.2005 -0.8109
   70OSM    C9S 5896  -0.045   2.218   5.855 -0.6085 -0.1818  0.9021
   70OSM    H9S 5897  -0.023   2.311   5.911 -1.4328 -0.1401  1.1648
   70OSM    H9T 5898  -0.155   2.208   5.842 -0.7028  1.0417  0.6399
   70OSM   C10S 5899   0.036   2.215   5.722  0.0312  0.0937  0.4881
   70OSM   H10S 5900   0.002   2.128   5.661  0.7992  0.5178 -0.5533
   70OSM   H10T 5901   0.144   2.203   5.741  0.0067  1.6250  1.8685
   70OSM   C11S 5902   0.021   2.341   5.647  0.0338 -0.1118  0.5040
   70OSM   H11S 5903   0.042   2.427   5.713 -1.0605 -0.0416  0.7879
   70OSM   H11T 5904  -0.085   2.363   5.620  0.0789  0.9106  1.1205
   70OSM   C12S 5905   0.098   2.356   5.514  0.2982  0.4769 -0.2683
   70OSM   H12S 5906   0.061   2.272   5.452  0.2445  0.0127  0.3789
   70OSM   H12T 5907   0.208   2.351   5.527  0.0848 -0.4325  1.5050
   70OSM   C13S 5908   0.069   2.485   5.445  0.2565  0.7662  0.5832
   70OSM   H13S 5909   0.145   2.560   5.472 -1.4559  1.4757  3.9334
   70OSM   H13T 5910  -0.033   2.524   5.465 -0.5108 -1.0283  0.3561
   70OSM   C14S 5911   0.051   2.468   5.291 -0.3075  0.0920 -0.4854
   70OSM   H14S 5912   0.114   2.384   5.254  0.3345  1.0573 -1.6684
   70OSM   H14T 5913   0.095   2.554   5.238  1.3047 -1.6030 -2.0240
   70OSM   C15S 5914  -0.096   2.441   5.241 -0.0072  0.4184  0.0829
   70OSM   H15S 5915  -0.099   2.461   5.131 -2.0328  0.9132  0.2003
   70OSM   H15T 5916  -0.159   2.508   5.303 -0.8219 -2.5225  2.7066
   70OSM   C16S 5917  -0.156   2.302   5.253  0.0844  0.1081 -0.1646
   70OSM   H16S 5918  -0.257   2.309   5.208  0.3955  2.6620 -0.6284
   70OSM   H16T 5919  -0.152   2.267   5.359  0.2494  1.8331  0.4197
   70OSM   C17S 5920  -0.088   2.200   5.152 -1.0000 -0.0967 -0.0544
   70OSM   H17S 5921   0.019   2.209   5.179 -0.9582 -0.9092  0.0698
   70OSM   H17T 5922  -0.095   2.236   5.047  0.4828  1.5716  0.3612
   70OSM   C18S 5923  -0.118   2.053   5.164 -0.3018  0.2068  0.1507
   70OSM   H18S 5924  -0.227   2.032   5.161 -0.1688 -0.4129 -2.8713
   70OSM   H18T 5925  -0.072   2.010   5.256  3.8256 -1.8783 -2.5789
   70OSM   H18U 5926  -0.072   1.992   5.084  0.4341  1.2256 -0.2256
   70OSM    C1F 5927   0.514   2.003   6.050  0.1338 -0.0378  0.0245
   70OSM     OF 5928   0.568   1.896   6.075 -0.0297  0.1934 -0.1868
   70OSM    C2F 5929   0.542   2.081   5.918  0.1113 -0.0101 -0.8590
   70OSM    H2F 5930   0.645   2.070   5.876  0.7373 -2.0213  1.0330
   70OSM    H2G 5931   0.539   2.187   5.951 -0.6262 -0.7491  1.6469
   70OSM    C3F 5932   0.433   2.057   5.816 -0.1743  0.5580  0.5639
   70OSM    H3F 5933   0.332   2.085   5.853 -0.1932  0.0031  0.9404
   70OSM    H3G 5934   0.447   1.950   5.788 -1.8155  0.5448 -0.3294
   70OSM    C4F 5935   0.469   2.139   5.688 -0.0408 -0.7793  0.3424
   70OSM    H4F 5936   0.578   2.121   5.674  0.1901  0.7249  0.0056
   70OSM    H4G 5937   0.466   2.249   5.701 -1.1507 -0.8245  0.5645
   70OSM    C5F 5938   0.396   2.093   5.567  0.4749 -0.4533 -0.1906
   70OSM    H5F 5939   0.286   2.097   5.585  0.9667  3.7607  3.6001
   70OSM    H5G 5940   0.419   1.985   5.561 -1.3550 -0.9783  1.1288
   70OSM    C6F 5941   0.432   2.159   5.436  0.6684 -0.1553  0.3135
   70OSM    H6F 5942   0.543   2.171   5.438  0.6108  0.3530  0.4895
   70OSM    H6G 5943   0.395   2.262   5.423 -0.4406 -0.7546 -1.6486
   70OSM    C7F 5944   0.410   2.069   5.316 -0.5071 -0.5645 -0.7775
   70OSM    H7F 5945   0.300   2.063   5.302 -0.5693 -0.8791 -0.2037
   70OSM    H7G 5946   0.468   1.979   5.347  0.7129  0.8077  1.1342
   70OSM    C8F 5947   0.477   2.117   5.190  0.2082 -0.4398  0.2247
   70OSM    H8F 5948   0.476   2.037   5.114  1.5392 -1.2998  1.0747
   70OSM    H8G 5949   0.585   2.134   5.210  0.0987 -0.8116  1.2181
   70OSM    C9F 5950   0.412   2.237   5.138 -0.0529 -0.1909  0.0267
   70OSM    H9F 5951   0.410   2.312   5.218 -1.9201 -0.2912  0.1265
   70OSM   C10F 5952   0.343   2.257   5.021 -0.3723  0.4170  0.7089
   70OSM   H10F 5953   0.300   2.355   4.999  1.3502  1.2065  0.7123
   70OSM   C11F 5954   0.321   2.158   4.909 -0.4386 -0.6916  0.1206
   70OSM   H11F 5955   0.354   2.056   4.937  2.0597  0.2544  0.9246
   70OSM   H11G 5956   0.391   2.201   4.834  1.8529  0.6459  2.8259
   70OSM   C12F 5957   0.177   2.153   4.855 -0.1384 -0.1174  0.2835
   70OSM   H12F 5958   0.156   2.255   4.813  0.6578  0.0527  0.2909
   70OSM   H12G 5959   0.099   2.128   4.930  0.0721  1.0269  0.9156
   70OSM   C13F 5960   0.164   2.054   4.738 -0.3226 -0.1843 -0.2129
   70OSM   H13F 5961   0.186   1.952   4.776 -1.2112 -0.2981  0.0153
   70OSM   H13G 5962   0.243   2.065   4.661 -0.6745 -0.3012 -0.5976
   70OSM   C14F 5963   0.021   2.050   4.675 -0.2872  0.0600  0.6656
   70OSM   H14F 5964  -0.008   2.152   4.643 -0.5508 -0.3615 -0.4729
   70OSM   H14G 5965  -0.048   2.020   4.757  1.3782 -1.0678  1.7290
   70OSM   C15F 5966   0.017   1.951   4.554 -0.1250  0.5767  0.8331
   70OSM   H15F 5967   0.049   1.850   4.585  3.6778  1.6625  0.9251
   70OSM   H15G 5968   0.085   1.987   4.474 -2.4526  1.1503 -1.0157
   70OSM   C16F 5969  -0.135   1.939   4.503 -0.3550 -0.6006  0.0520
   70OSM   H16F 5970  -0.200   1.916   4.590 -0.9630  2.9283  0.6794
   70OSM   H16G 5971  -0.143   1.862   4.424 -0.3255 -1.4654  0.8653
   70OSM   C17F 5972  -0.191   2.072   4.455 -0.4340 -0.3256 -0.2244
   70OSM   H17F 5973  -0.121   2.126   4.388  1.5188 -4.1941 -1.6345
   70OSM   H17G 5974  -0.215   2.142   4.538  1.6563 -0.4263  0.5291
   70OSM   C18F 5975  -0.323   2.052   4.381  0.0918 -0.1232  0.1326
   70OSM   H18F 5976  -0.310   1.960   4.321 -1.4572 -0.8009  0.7738
   70OSM   H18G 5977  -0.320   2.136   4.308  2.2589 -0.7217 -0.5289
   70OSM   H18H 5978  -0.420   2.039   4.434 -0.1403 -2.4898 -0.7549
   71OSM      N 5979   6.555   3.315   6.591 -0.8534 -1.0803 -0.1890
   71OSM    C15 5980   6.657   3.365   6.690  0.3716  0.5082  0.9473
   71OSM   H15A 5981   6.732   3.288   6.698 -0.5972 -0.4312  1.2459
   71OSM   H15B 5982   6.623   3.360   6.792  0.9399  0.5685  1.1420
   71OSM   H15C 5983   6.704   3.458   6.660  1.9402 -1.0412 -1.7895
   71OSM    C14 5984   6.498   3.195   6.655 -0.6622  0.3945  0.1112
   71OSM   H14A 5985   6.582   3.143   6.699 -0.5578 -1.4494 -2.0845
   71OSM   H14B 5986   6.458   3.132   6.577  0.3991  1.3183 -1.2365
   71OSM   H14C 5987   6.431   3.208   6.738 -0.2461 -1.0525  0.6986
   71OSM    C13 5988   6.442   3.421   6.590  0.5125 -0.1253  0.0274
   71OSM   H13A 5989   6.350   3.377   6.554  0.0092  1.7785 -1.1399
   71OSM   H13B 5990   6.470   3.514   6.542 -1.1276  1.2668  1.6433
   71OSM   H13C 5991   6.420   3.454   6.690  0.0529  3.3031 -1.0885
   71OSM    C12 5992   6.604   3.290   6.449  0.5773  0.3893  0.4420
   71OSM   H12A 5993   6.689   3.224   6.453 -1.2787 -2.1135  1.2898
   71OSM   H12B 5994   6.658   3.378   6.416  0.4117  0.8801  1.4343
   71OSM    C11 5995   6.504   3.230   6.345 -0.7103  0.1812  0.1004
   71OSM   H11A 5996   6.553   3.233   6.246 -1.7196  1.7218 -0.3771
   71OSM   H11B 5997   6.424   3.306   6.334  1.7001  3.0354  1.2359
   71OSM      P 5998   6.541   2.975   6.327  0.2493 -0.1255  0.3091
   71OSM    O13 5999   6.678   3.003   6.358 -0.3557  0.2739 -0.2412
   71OSM    O14 6000   6.486   2.849   6.384 -0.1165  0.2390  0.0263
   71OSM    O11 6001   6.527   2.985   6.168 -0.1982 -0.1145 -0.3785
   71OSM    O12 6002   6.460   3.098   6.385  0.0004 -0.3028  0.2306
   71OSM    C1S 6003   6.395   2.972   6.116  0.1805 -0.2187 -0.4280
   71OSM    H1S 6004   6.344   3.069   6.136 -3.3687 -1.7309 -1.3306
   71OSM    H1T 6005   6.339   2.893   6.170  2.1787  0.6287  3.1858
   71OSM     NF 6006   6.260   2.968   5.896  0.0511 -0.1034  0.0963
   71OSM    HNF 6007   6.203   2.888   5.876 -0.6115 -0.3188  2.5566
   71OSM    C2S 6008   6.393   2.942   5.961 -0.6121 -0.8153  0.1762
   71OSM    H2S 6009   6.455   3.021   5.913 -1.0295  0.1778  1.2307
   71OSM    C3S 6010   6.454   2.808   5.933 -0.4732  0.1429 -0.3601
   71OSM    H3S 6011   6.399   2.724   5.979 -0.7791 -0.4474 -1.7423
   71OSM     O3 6012   6.594   2.796   5.967 -0.1150  0.0603 -0.9290
   71OSM    HO3 6013   6.607   2.861   6.037 -1.6856  0.6986 -1.1874
   71OSM    C4S 6014   6.445   2.795   5.780 -0.3674 -0.0723  0.0681
   71OSM    H4S 6015   6.344   2.764   5.752  0.1359 -1.4967 -0.2184
   71OSM    C5S 6016   6.533   2.830   5.678 -0.5298 -0.4843 -0.4618
   71OSM    H5S 6017   6.630   2.872   5.708 -0.3903 -1.7930  1.0400
   71OSM    C6S 6018   6.509   2.818   5.528  0.7432 -0.2056  0.8257
   71OSM    H6S 6019   6.583   2.748   5.485 -0.3928 -0.4881 -0.7744
   71OSM    H6T 6020   6.543   2.914   5.483 -1.2681  1.4171  2.5306
   71OSM    C7S 6021   6.367   2.791   5.472  0.6933 -0.1107 -0.4054
   71OSM    H7S 6022   6.302   2.878   5.497  0.1218 -0.0992 -1.8534
   71OSM    H7T 6023   6.319   2.699   5.513 -1.0888  1.6486  1.7177
   71OSM    C8S 6024   6.362   2.781   5.317  0.2187 -0.6998 -0.1030
   71OSM    H8S 6025   6.371   2.880   5.267 -1.1336  0.7791  2.3251
   71OSM    H8T 6026   6.263   2.743   5.284  0.9824 -1.6351 -1.3973
   71OSM    C9S 6027   6.461   2.686   5.246 -0.4516  0.7191  0.5424
   71OSM    H9S 6028   6.431   2.582   5.271  0.1278  0.6409  0.9244
   71OSM    H9T 6029   6.564   2.712   5.279 -1.0822  1.7753  1.7822
   71OSM   C10S 6030   6.468   2.713   5.093 -0.2127  0.1317 -0.8399
   71OSM   H10S 6031   6.489   2.821   5.078 -0.0462  0.7428  2.8723
   71OSM   H10T 6032   6.373   2.697   5.038 -0.6086  1.2016 -0.4814
   71OSM   C11S 6033   6.570   2.621   5.023 -0.1938  0.1084  0.4860
   71OSM   H11S 6034   6.563   2.516   5.060  1.5758  0.0488  0.7150
   71OSM   H11T 6035   6.670   2.659   5.050  0.0183  0.5763 -0.8874
   71OSM   C12S 6036   6.571   2.610   4.866 -0.1006 -0.0650 -0.0445
   71OSM   H12S 6037   6.594   2.711   4.825 -0.5798  0.4748  0.9760
   71OSM   H12T 6038   6.479   2.557   4.834  0.4046 -1.8758  1.3762
   71OSM   C13S 6039   6.691   2.531   4.811 -0.2807 -0.2488 -0.3067
   71OSM   H13S 6040   6.663   2.428   4.842  2.7604 -0.3843  2.4587
   71OSM   H13T 6041   6.784   2.550   4.868  0.9944 -0.2751 -2.2651
   71OSM   C14S 6042   6.717   2.559   4.665 -0.3763 -0.0466  1.1035
   71OSM   H14S 6043   6.773   2.654   4.653  0.0656 -0.3882  0.3305
   71OSM   H14T 6044   6.619   2.577   4.616 -0.7921  0.7045  2.1791
   71OSM   C15S 6045   6.798   2.454   4.589  0.2465  0.0746 -0.5090
   71OSM   H15S 6046   6.748   2.359   4.616 -0.4808  0.5372 -0.2170
   71OSM   H15T 6047   6.896   2.438   4.638 -0.9204  1.6568  2.5814
   71OSM   C16S 6048   6.795   2.465   4.436  0.0676  0.6669  0.0234
   71OSM   H16S 6049   6.703   2.523   4.411  0.3515  1.0220 -0.2121
   71OSM   H16T 6050   6.787   2.367   4.385 -0.2223  0.5641  0.2638
   71OSM   C17S 6051   6.911   2.541   4.371 -0.4054 -1.3035  0.0683
   71OSM   H17S 6052   6.940   2.637   4.418  0.9958 -1.7041  0.0678
   71OSM   H17T 6053   6.886   2.565   4.266 -3.7905 -2.7917  0.3936
   71OSM   C18S 6054   7.034   2.459   4.385  0.4590  0.0018 -0.1815
   71OSM   H18S 6055   7.114   2.510   4.329 -0.4010  0.3756 -1.1109
   71OSM   H18T 6056   7.017   2.365   4.327  1.3226 -0.1653 -0.1756
   71OSM   H18U 6057   7.051   2.438   4.493 -0.9403  0.1184  0.0824
   71OSM    C1F 6058   6.216   3.088   5.887 -0.1816 -0.7208  0.0794
   71OSM     OF 6059   6.284   3.182   5.916 -0.3761 -0.0499 -0.1639
   71OSM    C2F 6060   6.080   3.111   5.830  0.5638  0.8289  0.3875
   71OSM    H2F 6061   6.004   3.093   5.909  0.3596  3.5471  0.9032
   71OSM    H2G 6062   6.063   3.042   5.744 -3.0407  1.3548  0.5162
   71OSM    C3F 6063   6.060   3.251   5.771  0.2634 -0.3350 -0.0117
   71OSM    H3F 6064   6.066   3.331   5.847  3.4102 -0.6227  0.1759
   71OSM    H3G 6065   5.957   3.245   5.728  0.3604 -4.0265 -0.0317
   71OSM    C4F 6066   6.167   3.273   5.660  0.0494 -0.4718 -0.4442
   71OSM    H4F 6067   6.189   3.176   5.609 -0.4706 -0.4587 -0.7022
   71OSM    H4G 6068   6.268   3.284   5.702  0.0878 -0.6160 -0.4989
   71OSM    C5F 6069   6.114   3.379   5.554 -0.1303  0.4145 -0.1940
   71OSM    H5F 6070   6.123   3.476   5.607 -3.7604  2.1207 -2.3017
   71OSM    H5G 6071   6.007   3.354   5.537  0.2392 -0.5416 -1.2194
   71OSM    C6F 6072   6.193   3.390   5.422  1.1179  0.5474 -0.4980
   71OSM    H6F 6073   6.218   3.295   5.370 -0.3002 -0.0649 -0.1076
   71OSM    H6G 6074   6.292   3.435   5.443  2.3006 -1.8930 -0.4712
   71OSM    C7F 6075   6.113   3.485   5.325 -1.0165  0.2819  0.0442
   71OSM    H7F 6076   6.118   3.588   5.367  3.0562  0.5759 -0.6848
   71OSM    H7G 6077   6.008   3.452   5.334 -1.6583  2.4656  1.1609
   71OSM    C8F 6078   6.174   3.484   5.180 -0.0218  0.4433  0.2743
   71OSM    H8F 6079   6.165   3.379   5.144 -0.2024  1.1335 -1.7827
   71OSM    H8G 6080   6.282   3.508   5.172  0.0892 -0.5048 -1.8056
   71OSM    C9F 6081   6.101   3.577   5.090 -0.1424 -0.0620  0.0228
   71OSM    H9F 6082   6.111   3.680   5.127  1.7565 -0.7883  1.6967
   71OSM   C10F 6083   6.034   3.557   4.977  0.1724 -0.7957 -0.4302
   71OSM   H10F 6084   5.992   3.642   4.921  0.6591 -0.0859  0.2688
   71OSM   C11F 6085   6.012   3.423   4.910  0.7487 -0.5801  0.4500
   71OSM   H11F 6086   5.902   3.421   4.891  0.8441  0.3959 -0.3237
   71OSM   H11G 6087   6.057   3.343   4.973  1.7820 -0.5950 -0.2932
   71OSM   C12F 6088   6.068   3.420   4.765  0.2947  0.7245 -0.4568
   71OSM   H12F 6089   6.174   3.443   4.787  0.6682 -0.7027 -0.6766
   71OSM   H12G 6090   6.009   3.493   4.705 -1.5543 -0.4418 -0.1561
   71OSM   C13F 6091   6.052   3.279   4.708  0.2226 -0.3568  0.0432
   71OSM   H13F 6092   5.948   3.252   4.681 -0.0821  1.2114 -0.4003
   71OSM   H13G 6093   6.093   3.201   4.776  0.0526  0.4034  1.0342
   71OSM   C14F 6094   6.120   3.246   4.566  0.3178 -0.3448 -0.2079
   71OSM   H14F 6095   6.066   3.302   4.486  1.3884  0.4791 -0.3825
   71OSM   H14G 6096   6.108   3.137   4.548  0.2688 -0.4391  0.3787
   71OSM   C15F 6097   6.266   3.291   4.558  0.6919  0.3954  0.1427
   71OSM   H15F 6098   6.315   3.248   4.649 -0.8279 -2.2102 -0.1577
   71OSM   H15G 6099   6.264   3.402   4.566  0.5266  0.4031  0.0084
   71OSM   C16F 6100   6.333   3.233   4.437 -0.1722  0.1685 -1.3636
   71OSM   H16F 6101   6.288   3.258   4.338 -4.3917  0.8593  0.5070
   71OSM   H16G 6102   6.333   3.122   4.436 -1.2876  0.0653  1.4473
   71OSM   C17F 6103   6.477   3.282   4.433  0.3290  0.5298  0.5661
   71OSM   H17F 6104   6.534   3.227   4.510  1.3998 -0.7103 -1.0370
   71OSM   H17G 6105   6.477   3.391   4.453 -2.7577  0.3252  2.2551
   71OSM   C18F 6106   6.552   3.268   4.295  0.2371 -0.3044 -0.0959
   71OSM   H18F 6107   6.662   3.265   4.309  0.0457 -2.1012  1.4022
   71OSM   H18G 6108   6.527   3.349   4.224 -0.4596 -0.6970 -0.3177
   71OSM   H18H 6109   6.509   3.174   4.254  0.1358 -2.3355  4.0994
   72OSM      N 6110   0.041   2.325   6.621 -0.3493 -0.4438 -0.0912
   72OSM    C15 6111   0.137   2.318   6.502 -0.4217 -0.0789 -0.0247
   72OSM   H15A 6112   0.123   2.404   6.439  1.7182 -0.5261 -1.2042
   72OSM   H15B 6113   0.122   2.228   6.444  1.7407 -1.6615  1.6575
   72OSM   H15C 6114   0.239   2.325   6.538 -0.4697  0.3930  0.0158
   72OSM    C14 6115  -0.097   2.311   6.569  0.5475 -0.2463  0.6513
   72OSM   H14A 6116  -0.122   2.395   6.507 -1.5065 -0.3782  1.2438
   72OSM   H14B 6117  -0.179   2.307   6.639 -1.9422 -2.0498 -2.1129
   72OSM   H14C 6118  -0.101   2.226   6.502 -0.8840  0.4218 -0.1466
   72OSM    C13 6119   0.067   2.203   6.701  0.4221  0.3310  0.3226
   72OSM   H13A 6120  -0.025   2.169   6.746 -0.6555  1.6991 -0.7929
   72OSM   H13B 6121   0.143   2.224   6.776  0.6138  1.6268 -0.2084
   72OSM   H13C 6122   0.105   2.118   6.646  1.2547  0.7386  0.2466
   72OSM    C12 6123   0.050   2.445   6.715 -0.1549  0.3192  0.4578
   72OSM   H12A 6124   0.149   2.445   6.758 -0.5105  0.3684  1.2946
   72OSM   H12B 6125  -0.023   2.424   6.791 -2.0448  1.1641 -1.0382
   72OSM    C11 6126   0.026   2.581   6.654  1.1618  0.2488  0.4445
   72OSM   H11A 6127   0.024   2.665   6.727 -0.4983  1.3299 -0.7500
   72OSM   H11B 6128  -0.070   2.573   6.599  1.8093 -1.7450 -0.4553
   72OSM      P 6129   0.117   2.702   6.444 -0.0823 -0.0462  0.1135
   72OSM    O13 6130   0.045   2.826   6.490 -0.5045  0.5766  0.2548
   72OSM    O14 6131   0.248   2.712   6.377 -0.6127  0.4448 -0.0762
   72OSM    O11 6132   0.016   2.614   6.356 -0.4340 -0.3555 -0.0784
   72OSM    O12 6133   0.138   2.611   6.571 -0.4661 -0.5634  0.0689
   72OSM    C1S 6134  -0.045   2.687   6.245 -0.5246  0.2556  0.8843
   72OSM    H1S 6135   0.025   2.755   6.191  1.6609 -1.5257  1.2852
   72OSM    H1T 6136  -0.128   2.747   6.286 -0.1784  1.6214 -0.3414
   72OSM     NF 6137  -0.141   2.672   6.021  0.5208  0.3444  0.1663
   72OSM    HNF 6138  -0.232   2.711   6.009  0.4943  0.6202  1.1413
   72OSM    C2S 6139  -0.108   2.595   6.142 -0.6311 -0.5579  0.5725
   72OSM    H2S 6140  -0.034   2.516   6.118 -0.4225 -0.1397 -0.1912
   72OSM    C3S 6141  -0.239   2.527   6.198 -0.5767 -0.2966  0.3518
   72OSM    H3S 6142  -0.324   2.598   6.210 -1.9641 -1.6688 -0.9900
   72OSM     O3 6143  -0.231   2.486   6.335  0.3727 -0.4651  0.2590
   72OSM    HO3 6144  -0.157   2.531   6.377  0.9978 -1.8861  0.7544
   72OSM    C4S 6145  -0.297   2.424   6.107 -0.1174 -0.6944  0.6663
   72OSM    H4S 6146  -0.231   2.337   6.090 -1.1760 -1.2172 -0.9725
   72OSM    C5S 6147  -0.430   2.413   6.064  0.0388  0.4669 -0.6539
   72OSM    H5S 6148  -0.509   2.479   6.102 -0.3491 -0.9995  1.2820
   72OSM    C6S 6149  -0.481   2.315   5.962  0.3117  0.7932 -0.0078
   72OSM    H6S 6150  -0.576   2.277   6.006 -0.0759  0.9319 -0.7175
   72OSM    H6T 6151  -0.410   2.232   5.939  1.1738  1.0459  1.5621
   72OSM    C7S 6152  -0.519   2.394   5.834 -0.2051  0.0694 -0.1500
   72OSM    H7S 6153  -0.428   2.445   5.794 -0.0875 -0.2314 -0.2686
   72OSM    H7T 6154  -0.584   2.482   5.851 -1.3401 -0.7379 -0.2150
   72OSM    C8S 6155  -0.568   2.314   5.717  0.1861  0.8689 -0.4132
   72OSM    H8S 6156  -0.666   2.266   5.737  1.1110 -0.4328  1.2930
   72OSM    H8T 6157  -0.502   2.227   5.695 -0.4094  0.8072 -2.0577
   72OSM    C9S 6158  -0.585   2.394   5.584  0.8953 -0.1314 -0.1066
   72OSM    H9S 6159  -0.483   2.427   5.557  1.8311 -1.8433  1.1074
   72OSM    H9T 6160  -0.631   2.489   5.618 -1.8524 -1.7491  1.1173
   72OSM   C10S 6161  -0.651   2.331   5.471  0.3093  0.8621  0.3285
   72OSM   H10S 6162  -0.656   2.405   5.387 -0.1327  0.2170 -0.2239
   72OSM   H10T 6163  -0.754   2.297   5.493  1.1071 -2.4153 -0.4439
   72OSM   C11S 6164  -0.585   2.210   5.427 -0.8933 -0.1644 -0.4501
   72OSM   H11S 6165  -0.611   2.131   5.500 -2.5048  0.8212  0.0871
   72OSM   H11T 6166  -0.477   2.227   5.408 -0.1816 -0.6400  2.6389
   72OSM   C12S 6167  -0.641   2.159   5.295  0.8984 -0.5547 -0.2056
   72OSM   H12S 6168  -0.752   2.160   5.306  0.8234  2.5501 -0.3826
   72OSM   H12T 6169  -0.611   2.053   5.281  1.4268 -0.4047 -0.2195
   72OSM   C13S 6170  -0.577   2.240   5.174  0.7209  0.2045 -0.1309
   72OSM   H13S 6171  -0.467   2.220   5.169  1.0076  1.7945 -0.9164
   72OSM   H13T 6172  -0.608   2.345   5.190  1.3638  0.0669  2.4955
   72OSM   C14S 6173  -0.636   2.191   5.044  0.5390  0.5822 -1.2360
   72OSM   H14S 6174  -0.745   2.190   5.063  0.7003  1.0975 -0.2046
   72OSM   H14T 6175  -0.601   2.087   5.029 -0.9223  0.0899 -1.3989
   72OSM   C15S 6176  -0.602   2.255   4.917  0.0999  0.3561  0.0529
   72OSM   H15S 6177  -0.494   2.264   4.893  0.6379 -0.4018  2.0048
   72OSM   H15T 6178  -0.652   2.354   4.911  0.6738  0.6207 -0.4803
   72OSM   C16S 6179  -0.672   2.179   4.792 -0.7813  0.1298 -0.6616
   72OSM   H16S 6180  -0.778   2.159   4.821 -1.2556  0.7543 -1.9038
   72OSM   H16T 6181  -0.613   2.085   4.791 -0.2313  0.4041  1.2553
   72OSM   C17S 6182  -0.663   2.249   4.659  0.7380  0.1633 -0.1824
   72OSM   H17S 6183  -0.555   2.234   4.639  1.4227  3.1363  0.7650
   72OSM   H17T 6184  -0.688   2.356   4.673 -0.5454 -0.4358  3.1282
   72OSM   C18S 6185  -0.743   2.187   4.540 -1.0219 -0.0530 -0.4372
   72OSM   H18S 6186  -0.724   2.077   4.542 -1.9606 -0.3028  3.5758
   72OSM   H18T 6187  -0.705   2.232   4.447  2.0815 -1.7322 -0.1227
   72OSM   H18U 6188  -0.854   2.197   4.543 -1.1585 -1.2308 -0.9215
   72OSM    C1F 6189  -0.045   2.712   5.934  0.3733  0.2882  0.5633
   72OSM     OF 6190   0.070   2.676   5.944 -0.1634  0.7830  0.7078
   72OSM    C2F 6191  -0.099   2.794   5.813 -0.0747  0.0776  0.4744
   72OSM    H2F 6192  -0.133   2.896   5.841 -0.1151  0.2445 -0.1690
   72OSM    H2G 6193  -0.189   2.734   5.786 -0.9923  2.2038 -1.5903
   72OSM    C3F 6194  -0.004   2.800   5.693 -1.2516 -0.1969 -0.1308
   72OSM    H3F 6195   0.042   2.702   5.668 -2.5719 -0.7381 -0.5185
   72OSM    H3G 6196   0.090   2.854   5.719 -0.0314 -1.9900 -0.6396
   72OSM    C4F 6197  -0.050   2.881   5.572 -0.8059 -0.1687  0.1089
   72OSM    H4F 6198  -0.068   2.980   5.620 -0.6292 -0.7749  1.4902
   72OSM    H4G 6199  -0.147   2.847   5.530 -0.5203 -0.3418 -0.4221
   72OSM    C5F 6200   0.056   2.903   5.458  0.2587  0.3774 -0.1134
   72OSM    H5F 6201   0.085   2.797   5.437 -0.7609 -0.7480  3.4589
   72OSM    H5G 6202   0.151   2.951   5.489 -0.1036  1.7910 -1.1054
   72OSM    C6F 6203  -0.006   2.977   5.337  0.1512  0.3023 -0.0268
   72OSM    H6F 6204   0.078   3.027   5.284  0.5086  2.3821  2.3223
   72OSM    H6G 6205  -0.071   3.059   5.372 -0.9680 -1.2734  1.7401
   72OSM    C7F 6206  -0.079   2.881   5.242  0.0651  0.5212  0.0858
   72OSM    H7F 6207  -0.175   2.838   5.279 -0.3698 -0.3710 -1.9501
   72OSM    H7G 6208  -0.003   2.802   5.228 -0.9588 -0.8693  1.8892
   72OSM    C8F 6209  -0.094   2.939   5.097  0.3453 -1.0615  0.5645
   72OSM    H8F 6210  -0.011   2.996   5.051 -1.9511  1.3621 -0.9157
   72OSM    H8G 6211  -0.164   3.023   5.118  2.6545  1.2748 -0.5347
   72OSM    C9F 6212  -0.159   2.866   4.978 -0.1409  0.0618 -0.2134
   72OSM    H9F 6213  -0.268   2.869   4.974 -0.1090  0.1566 -1.3445
   72OSM   C10F 6214  -0.096   2.794   4.883 -0.1001  0.0924  0.0346
   72OSM   H10F 6215  -0.138   2.770   4.784  1.0688  0.5864 -0.6058
   72OSM   C11F 6216   0.051   2.780   4.878  0.2469 -0.9700  0.1797
   72OSM   H11F 6217   0.078   2.693   4.814 -2.2851 -0.6481 -1.4631
   72OSM   H11G 6218   0.099   2.761   4.977  1.1190 -0.7955 -0.1989
   72OSM   C12F 6219   0.124   2.894   4.795  0.3781  0.2093 -0.0216
   72OSM   H12F 6220   0.230   2.898   4.828  0.2957  1.1125  0.1567
   72OSM   H12G 6221   0.082   2.994   4.818  1.4703  0.1989  2.2854
   72OSM   C13F 6222   0.132   2.859   4.640 -0.0591 -0.3404 -0.0354
   72OSM   H13F 6223   0.027   2.846   4.605  0.2906 -2.8526 -0.3601
   72OSM   H13G 6224   0.187   2.764   4.622  1.7257  0.9024 -1.4556
   72OSM   C14F 6225   0.198   2.971   4.557 -0.6311 -0.0934 -0.8136
   72OSM   H14F 6226   0.224   2.936   4.454 -0.0316 -1.0101 -0.3684
   72OSM   H14G 6227   0.289   3.007   4.610 -0.1484 -0.2201 -1.5302
   72OSM   C15F 6228   0.099   3.087   4.533 -0.5721  0.7307 -0.2527
   72OSM   H15F 6229   0.164   3.175   4.514 -0.4319  1.3852  2.7082
   72OSM   H15G 6230   0.042   3.103   4.627 -2.3860  2.7563 -1.6010
   72OSM   C16F 6231   0.007   3.064   4.410  0.0912 -0.3278  0.3929
   72OSM   H16F 6232  -0.045   2.967   4.425  2.2225 -1.1539  3.7482
   72OSM   H16G 6233   0.061   3.038   4.317 -0.1098 -1.8107  0.6596
   72OSM   C17F 6234  -0.097   3.173   4.387 -0.3866 -0.3954 -0.3317
   72OSM   H17F 6235  -0.172   3.182   4.468 -1.4497  0.6644 -1.3888
   72OSM   H17G 6236  -0.159   3.135   4.303  0.2172 -0.4764 -0.7548
   72OSM   C18F 6237  -0.048   3.316   4.363  0.3536 -0.5405  0.1401
   72OSM   H18F 6238  -0.109   3.364   4.284 -0.9299  1.5423  2.2486
   72OSM   H18G 6239   0.059   3.308   4.337  0.7121  0.0010  1.3913
   72OSM   H18H 6240  -0.055   3.373   4.458  0.2449 -1.6304  0.8141
   73OSM      N 6241   3.228   6.936   6.591 -1.5625 -0.5390 -0.0513
   73OSM    C15 6242   3.375   6.918   6.614  0.2463  0.2977  0.3442
   73OSM   H15A 6243   3.427   7.004   6.574 -2.7419  2.0415 -0.0938
   73OSM   H15B 6244   3.409   6.821   6.581 -0.4604  0.4328 -0.8488
   73OSM   H15C 6245   3.383   6.919   6.722 -1.5100 -0.8331  0.5217
   73OSM    C14 6246   3.147   6.831   6.648 -0.1283 -0.6027  0.3674
   73OSM   H14A 6247   3.134   6.842   6.755  0.2042  0.1330  0.3438
   73OSM   H14B 6248   3.179   6.733   6.618 -0.7270 -0.5010 -0.6514
   73OSM   H14C 6249   3.043   6.842   6.621 -0.1745 -2.7379 -0.4703
   73OSM    C13 6250   3.186   7.068   6.649  0.4385  0.2242 -0.2040
   73OSM   H13A 6251   3.079   7.075   6.660  0.1499 -1.3175 -1.5146
   73OSM   H13B 6252   3.219   7.151   6.589  1.5724 -0.2470 -0.2612
   73OSM   H13C 6253   3.227   7.080   6.748 -3.2471 -1.7669  1.8083
   73OSM    C12 6254   3.191   6.948   6.440 -0.4389  0.3060  0.5138
   73OSM   H12A 6255   3.261   7.015   6.392  0.8123 -2.6401 -2.1306
   73OSM   H12B 6256   3.099   7.004   6.437 -0.3041  0.5635  1.1677
   73OSM    C11 6257   3.194   6.817   6.357 -0.2015  0.3627  0.1951
   73OSM   H11A 6258   3.151   6.840   6.257  1.6111 -0.1160 -0.7392
   73OSM   H11B 6259   3.134   6.739   6.410  0.8453  2.2752  4.5782
   73OSM      P 6260   3.361   6.619   6.317  0.0717 -0.2522  0.0502
   73OSM    O13 6261   3.505   6.608   6.311 -0.3718  0.1532 -0.0721
   73OSM    O14 6262   3.293   6.536   6.427 -0.6625 -0.0726  0.0881
   73OSM    O11 6263   3.302   6.589   6.170 -0.2694 -0.0139 -0.2871
   73OSM    O12 6264   3.329   6.767   6.344 -0.0742 -0.2750  0.5058
   73OSM    C1S 6265   3.337   6.688   6.071 -0.4225 -0.3881  0.6221
   73OSM    H1S 6266   3.440   6.727   6.081 -0.9779  1.0175  1.2412
   73OSM    H1T 6267   3.272   6.777   6.086  0.3150  0.3112 -0.2249
   73OSM     NF 6268   3.330   6.754   5.827 -0.8376  0.0118 -1.0231
   73OSM    HNF 6269   3.263   6.816   5.787  0.1904  1.2906 -0.8529
   73OSM    C2S 6270   3.296   6.647   5.928  0.5980 -0.0576 -0.4112
   73OSM    H2S 6271   3.343   6.550   5.900 -0.1842 -0.0925 -1.6853
   73OSM    C3S 6272   3.140   6.610   5.928 -0.6674  0.2178 -0.2612
   73OSM    H3S 6273   3.086   6.702   5.960  2.0804  2.8076 -2.5617
   73OSM     O3 6274   3.104   6.493   5.998  0.2611  0.2348  0.0362
   73OSM    HO3 6275   3.180   6.470   6.054  1.0433  3.1266  0.3211
   73OSM    C4S 6276   3.099   6.581   5.787  0.0990  0.3506 -0.0284
   73OSM    H4S 6277   3.168   6.506   5.745  0.8225  1.6563 -1.2657
   73OSM    C5S 6278   3.010   6.641   5.705 -0.1667 -0.5687 -0.3544
   73OSM    H5S 6279   2.939   6.721   5.730 -1.4377 -0.5667 -3.4994
   73OSM    C6S 6280   2.994   6.599   5.564 -0.3348 -0.8757 -0.5028
   73OSM    H6S 6281   2.888   6.628   5.543 -0.0343  1.3517  0.7131
   73OSM    H6T 6282   2.999   6.489   5.548  0.9378 -0.8812 -0.1366
   73OSM    C7S 6283   3.100   6.670   5.469 -0.9849 -0.2780 -0.3595
   73OSM    H7S 6284   3.202   6.627   5.477 -0.2583  0.9000 -2.3005
   73OSM    H7T 6285   3.107   6.780   5.485 -1.7628 -0.1813 -0.6525
   73OSM    C8S 6286   3.064   6.639   5.320 -0.0145 -0.6433 -0.4493
   73OSM    H8S 6287   2.954   6.650   5.309  0.0263 -0.9536 -1.2356
   73OSM    H8T 6288   3.091   6.531   5.319  3.7265  0.1148 -2.2695
   73OSM    C9S 6289   3.141   6.709   5.212  0.8519  1.1171  0.0665
   73OSM    H9S 6290   3.249   6.683   5.220  0.6708  0.7192  1.2839
   73OSM    H9T 6291   3.116   6.816   5.225 -2.7375  0.3442  0.6109
   73OSM   C10S 6292   3.089   6.665   5.073 -0.5482  0.3650 -0.1830
   73OSM   H10S 6293   3.093   6.554   5.081 -0.9137  0.2874 -1.0135
   73OSM   H10T 6294   3.163   6.702   4.998 -1.6672 -0.6275 -1.8318
   73OSM   C11S 6295   2.948   6.712   5.046 -0.0732  0.4548 -0.3060
   73OSM   H11S 6296   2.939   6.823   5.045 -2.9564  0.3017 -0.5981
   73OSM   H11T 6297   2.891   6.674   5.133 -0.6176  0.9203 -0.4515
   73OSM   C12S 6298   2.885   6.652   4.914  0.0331  0.5072 -0.0937
   73OSM   H12S 6299   2.776   6.671   4.906  0.1247  1.9336  1.5654
   73OSM   H12T 6300   2.894   6.541   4.914  1.7190  0.6139 -0.5819
   73OSM   C13S 6301   2.952   6.707   4.786  0.2440  0.4967 -0.1611
   73OSM   H13S 6302   2.929   6.632   4.708 -0.2315 -0.9553  1.3048
   73OSM   H13T 6303   3.063   6.707   4.789  0.2591 -1.1338  0.4212
   73OSM   C14S 6304   2.906   6.844   4.738 -0.0218 -0.3592  0.3605
   73OSM   H14S 6305   2.939   6.918   4.814 -1.1606 -0.6633  1.1849
   73OSM   H14T 6306   2.795   6.846   4.741  0.0121  0.5942  1.6095
   73OSM   C15S 6307   2.962   6.881   4.598  0.2070  0.1270 -0.2074
   73OSM   H15S 6308   2.928   6.815   4.515 -1.8742 -0.8056  1.2730
   73OSM   H15T 6309   3.072   6.866   4.605  0.2865  0.0611 -1.4163
   73OSM   C16S 6310   2.917   7.027   4.561  0.6397 -0.1860 -0.3949
   73OSM   H16S 6311   2.941   7.100   4.641  1.1717 -0.4216 -0.3298
   73OSM   H16T 6312   2.808   7.030   4.540  0.6954 -0.4057 -0.7363
   73OSM   C17S 6313   2.996   7.075   4.437  0.3741 -0.0187  0.2443
   73OSM   H17S 6314   3.003   6.993   4.362 -0.9909  2.1214 -2.3862
   73OSM   H17T 6315   3.096   7.108   4.471  0.2481  1.4947 -0.7952
   73OSM   C18S 6316   2.930   7.201   4.375  0.1441  0.2879 -0.1305
   73OSM   H18S 6317   2.841   7.174   4.314 -2.2392 -0.0637  3.2590
   73OSM   H18T 6318   3.009   7.259   4.323  1.7696 -0.4902  1.3875
   73OSM   H18U 6319   2.892   7.266   4.457  0.4003 -0.5995  0.7116
   73OSM    C1F 6320   3.457   6.775   5.799 -0.0271  0.0940 -0.2312
   73OSM     OF 6321   3.541   6.700   5.848 -0.6289 -0.5544  0.8190
   73OSM    C2F 6322   3.496   6.880   5.703 -0.5714  0.1008  0.7283
   73OSM    H2F 6323   3.586   6.937   5.734  0.0892 -0.1273 -0.6817
   73OSM    H2G 6324   3.417   6.958   5.692 -0.1451  0.9484  3.1097
   73OSM    C3F 6325   3.527   6.811   5.568 -0.5551 -0.3856  0.6818
   73OSM    H3F 6326   3.434   6.760   5.533 -1.5407  1.6863  0.1240
   73OSM    H3G 6327   3.617   6.748   5.582  0.3266  0.5666 -0.5175
   73OSM    C4F 6328   3.563   6.925   5.470  0.0451 -0.4669 -0.1916
   73OSM    H4F 6329   3.645   6.987   5.511 -0.7819 -1.2173  2.9031
   73OSM    H4G 6330   3.478   6.995   5.463 -0.3672 -0.7634  1.4568
   73OSM    C5F 6331   3.598   6.883   5.330 -0.3997 -0.0427 -0.5394
   73OSM    H5F 6332   3.506   6.855   5.274 -0.4188 -2.5806  0.6035
   73OSM    H5G 6333   3.661   6.791   5.322  0.1035  0.3344 -1.0118
   73OSM    C6F 6334   3.664   6.992   5.243  0.1528 -0.1936 -0.4157
   73OSM    H6F 6335   3.772   6.971   5.258  0.0321  0.6561  2.1818
   73OSM    H6G 6336   3.637   7.096   5.274 -0.1428 -0.6844  1.0615
   73OSM    C7F 6337   3.635   6.964   5.097 -0.7147  0.1300  0.1962
   73OSM    H7F 6338   3.537   7.014   5.083 -0.5527  0.5790  0.6650
   73OSM    H7G 6339   3.625   6.853   5.093  0.4414  0.0074  0.3726
   73OSM    C8F 6340   3.737   7.016   4.994 -0.0262 -0.2090 -0.2589
   73OSM    H8F 6341   3.839   6.999   5.036  0.2731 -0.3249 -1.0280
   73OSM    H8G 6342   3.715   7.124   4.983 -1.2461 -0.4340 -0.2372
   73OSM    C9F 6343   3.707   6.941   4.864  0.4438 -0.0375 -0.6239
   73OSM    H9F 6344   3.609   6.892   4.856  0.3793  0.1036 -0.7017
   73OSM   C10F 6345   3.801   6.917   4.772 -0.6477  0.6486  0.5034
   73OSM   H10F 6346   3.779   6.862   4.679  0.0892  1.3401 -0.0992
   73OSM   C11F 6347   3.945   6.967   4.782 -0.0243  0.0644  0.4256
   73OSM   H11F 6348   3.986   6.960   4.885  0.8415 -0.1383  0.0723
   73OSM   H11G 6349   3.953   7.071   4.745  3.0631 -1.5364 -4.4838
   73OSM   C12F 6350   4.049   6.888   4.689 -0.3532 -0.4331 -0.3570
   73OSM   H12F 6351   4.147   6.938   4.703 -2.6389  4.4136  0.4526
   73OSM   H12G 6352   4.014   6.899   4.584  0.0259 -0.9759 -0.5447
   73OSM   C13F 6353   4.056   6.743   4.731  0.6544 -0.4977 -0.3456
   73OSM   H13F 6354   3.957   6.695   4.715 -0.3493  1.3454  0.0252
   73OSM   H13G 6355   4.090   6.725   4.835 -0.7391  2.0949  0.6523
   73OSM   C14F 6356   4.161   6.674   4.638 -0.1021 -0.1073  0.2432
   73OSM   H14F 6357   4.176   6.570   4.676 -2.6049  0.6365  3.8633
   73OSM   H14G 6358   4.257   6.728   4.644  1.1395 -2.2905  1.5108
   73OSM   C15F 6359   4.132   6.682   4.485  0.2058  0.1556 -1.1584
   73OSM   H15F 6360   4.162   6.778   4.438  0.8553 -0.0111 -1.1057
   73OSM   H15G 6361   4.031   6.654   4.450  0.4186  0.3703 -1.9652
   73OSM   C16F 6362   4.223   6.572   4.422 -0.0498  0.4712 -0.0478
   73OSM   H16F 6363   4.208   6.475   4.476  1.5322  1.8612  3.1603
   73OSM   H16G 6364   4.328   6.603   4.435 -0.0746  0.9459 -0.9193
   73OSM   C17F 6365   4.205   6.544   4.266 -0.4720  0.6983 -0.9044
   73OSM   H17F 6366   4.305   6.502   4.240 -0.6513 -1.7688  1.8479
   73OSM   H17G 6367   4.184   6.634   4.204  0.3473  0.9555 -0.8201
   73OSM   C18F 6368   4.114   6.427   4.228 -0.0469 -0.0698 -0.3280
   73OSM   H18F 6369   4.118   6.429   4.117  1.2033 -1.1876 -0.3197
   73OSM   H18G 6370   4.008   6.443   4.261  0.6850 -0.5917  2.5842
   73OSM   H18H 6371   4.138   6.326   4.266  1.1424  1.5982  4.0281
   74OSM      N 6372   2.037   5.612   6.395  0.0044  0.5048 -0.1549
   74OSM    C15 6373   2.050   5.523   6.514  0.1902 -0.5224 -0.5101
   74OSM   H15A 6374   1.957   5.510   6.568  0.5910 -3.0270 -0.2980
   74OSM   H15B 6375   2.132   5.543   6.582  0.0172 -0.5984 -0.2790
   74OSM   H15C 6376   2.074   5.425   6.476  3.9951 -0.2954  0.8140
   74OSM    C14 6377   2.050   5.750   6.462  0.0096  0.0315 -0.6218
   74OSM   H14A 6378   2.030   5.822   6.385 -0.3067 -1.2713 -1.8007
   74OSM   H14B 6379   2.151   5.762   6.499  0.5175  0.8097 -2.1894
   74OSM   H14C 6380   1.982   5.761   6.545 -1.1709 -0.2057 -1.5324
   74OSM    C13 6381   2.143   5.588   6.289  0.5135  0.2132 -0.7951
   74OSM   H13A 6382   2.131   5.646   6.198  2.5598  2.3751  0.2262
   74OSM   H13B 6383   2.147   5.481   6.271 -0.6017  0.0172  0.0279
   74OSM   H13C 6384   2.237   5.620   6.331  0.3243 -0.9299  0.5521
   74OSM    C12 6385   1.899   5.589   6.326 -0.2034 -0.3196 -0.2501
   74OSM   H12A 6386   1.816   5.617   6.390 -1.4967  1.6538 -2.5926
   74OSM   H12B 6387   1.886   5.484   6.305  0.7288 -0.3970 -0.4794
   74OSM    C11 6388   1.860   5.672   6.202 -0.1570 -0.4532  0.6376
   74OSM   H11A 6389   1.761   5.638   6.166 -0.6619  2.7129 -1.3723
   74OSM   H11B 6390   1.931   5.664   6.117  0.7628  2.9408  0.9593
   74OSM      P 6391   1.730   5.871   6.317 -0.1305 -0.0799 -0.2709
   74OSM    O13 6392   1.674   5.762   6.406 -0.0093 -0.3295  0.3483
   74OSM    O14 6393   1.768   5.995   6.373  0.4995 -0.6106 -0.0291
   74OSM    O11 6394   1.619   5.898   6.207  0.3617 -0.3016 -0.2096
   74OSM    O12 6395   1.850   5.808   6.243 -0.5139  0.4728 -0.0074
   74OSM    C1S 6396   1.664   5.942   6.077  0.2675  0.0639 -0.1010
   74OSM    H1S 6397   1.700   5.856   6.016  2.0923  0.8847 -0.2457
   74OSM    H1T 6398   1.754   6.006   6.084  0.2457  0.2010 -0.9096
   74OSM     NF 6399   1.580   6.035   5.869 -0.0467 -0.5172 -0.0331
   74OSM    HNF 6400   1.614   6.127   5.852 -0.8625 -0.4297 -1.3025
   74OSM    C2S 6401   1.549   6.025   6.012  0.1126  0.4241  0.6863
   74OSM    H2S 6402   1.457   5.964   6.019 -0.6620  1.0631 -2.3557
   74OSM    C3S 6403   1.527   6.160   6.080 -0.3051 -0.0140  0.6771
   74OSM    H3S 6404   1.619   6.221   6.081 -0.9505  0.9904  0.4875
   74OSM     O3 6405   1.495   6.148   6.222 -0.3550 -0.0430  0.7602
   74OSM    HO3 6406   1.509   6.054   6.237  0.5493  0.2142  1.6585
   74OSM    C4S 6407   1.413   6.246   6.020 -0.3380  0.5290  0.6205
   74OSM    H4S 6408   1.315   6.198   6.026  0.2514 -1.1362 -1.5038
   74OSM    C5S 6409   1.426   6.363   5.956  0.4611 -0.0637  0.0102
   74OSM    H5S 6410   1.521   6.418   5.952  0.7028 -0.5552 -1.2014
   74OSM    C6S 6411   1.310   6.435   5.898  0.1227  0.7445 -0.7379
   74OSM    H6S 6412   1.341   6.538   5.870  2.7643 -0.3690 -2.2394
   74OSM    H6T 6413   1.229   6.460   5.970  0.6281  0.5379 -0.0879
   74OSM    C7S 6414   1.252   6.374   5.765 -0.2051  0.3704 -0.2168
   74OSM    H7S 6415   1.161   6.314   5.788  0.4008 -0.3063  0.4651
   74OSM    H7T 6416   1.315   6.294   5.719 -0.8964 -0.1828 -0.2190
   74OSM    C8S 6417   1.204   6.490   5.672  0.8988 -0.3583  0.1863
   74OSM    H8S 6418   1.282   6.568   5.659  0.2629  0.4118  0.8455
   74OSM    H8T 6419   1.123   6.542   5.727 -0.7638  0.7708 -3.0968
   74OSM    C9S 6420   1.164   6.430   5.533 -0.6273  0.4703 -0.9307
   74OSM    H9S 6421   1.075   6.364   5.532 -2.3149  2.5529 -3.2137
   74OSM    H9T 6422   1.240   6.371   5.479 -0.3077 -0.0089  0.0389
   74OSM   C10S 6423   1.131   6.536   5.425  0.0374  0.3914  0.0276
   74OSM   H10S 6424   1.215   6.598   5.384 -0.4770 -0.1881 -2.0417
   74OSM   H10T 6425   1.058   6.605   5.471 -0.4350 -0.0382 -0.0750
   74OSM   C11S 6426   1.042   6.476   5.315  0.3238 -0.8395  0.7780
   74OSM   H11S 6427   0.937   6.448   5.337 -0.4417  3.0230  2.9355
   74OSM   H11T 6428   1.085   6.383   5.271 -0.8281 -0.0897 -2.1659
   74OSM   C12S 6429   1.042   6.568   5.194  0.3434  0.0691 -0.3601
   74OSM   H12S 6430   1.144   6.591   5.158  0.6487  1.1704  1.1296
   74OSM   H12T 6431   0.994   6.665   5.221 -2.4804 -1.1519 -0.5813
   74OSM   C13S 6432   0.970   6.497   5.076 -0.5366  0.1875 -0.8464
   74OSM   H13S 6433   0.872   6.458   5.110  0.0849 -1.3993 -0.7692
   74OSM   H13T 6434   1.033   6.409   5.052 -0.1152 -0.2918  1.7247
   74OSM   C14S 6435   0.948   6.579   4.951  0.0685 -0.0195  0.5740
   74OSM   H14S 6436   0.884   6.520   4.881 -0.4670  1.0594  0.1254
   74OSM   H14T 6437   1.041   6.623   4.909 -0.6578  0.3619 -0.6914
   74OSM   C15S 6438   0.860   6.696   4.990  0.2738 -0.1949 -0.3165
   74OSM   H15S 6439   0.914   6.768   5.055 -0.5512  1.5882 -1.5256
   74OSM   H15T 6440   0.773   6.652   5.043  1.2157 -0.9967  0.6227
   74OSM   C16S 6441   0.795   6.779   4.877  0.3266 -0.8326  0.7173
   74OSM   H16S 6442   0.765   6.701   4.805  1.4830 -0.1669 -0.5161
   74OSM   H16T 6443   0.869   6.840   4.822 -0.2075 -0.2242  0.6596
   74OSM   C17S 6444   0.677   6.865   4.916  0.1751  0.5691 -1.0797
   74OSM   H17S 6445   0.711   6.931   4.998  1.6577 -0.4975 -0.7834
   74OSM   H17T 6446   0.603   6.796   4.961  1.3370 -0.9960 -1.4869
   74OSM   C18S 6447   0.612   6.943   4.807 -0.0645  0.1314  0.0211
   74OSM   H18S 6448   0.615   6.877   4.718 -0.5172 -0.0559  0.1377
   74OSM   H18T 6449   0.686   7.020   4.778  2.8927 -2.0536  1.2486
   74OSM   H18U 6450   0.510   6.981   4.831 -1.2178 -1.9890 -1.1782
   74OSM    C1F 6451   1.582   5.931   5.786 -0.8999 -0.0938 -0.8082
   74OSM     OF 6452   1.552   5.817   5.818  0.1102 -0.1353 -0.0322
   74OSM    C2F 6453   1.631   5.972   5.654 -0.4360 -0.1955 -0.3985
   74OSM    H2F 6454   1.683   6.071   5.659  0.7853 -0.7450 -1.5253
   74OSM    H2G 6455   1.539   5.979   5.592 -0.7198 -0.7673 -0.0421
   74OSM    C3F 6456   1.718   5.864   5.584  0.4902  0.6635  0.0549
   74OSM    H3F 6457   1.653   5.775   5.578  0.8461  0.4009  0.0845
   74OSM    H3G 6458   1.804   5.838   5.650  0.2065  1.4760  0.7692
   74OSM    C4F 6459   1.771   5.905   5.444 -0.6943 -0.1751 -0.1630
   74OSM    H4F 6460   1.849   5.831   5.417  2.4451  3.1709 -1.0694
   74OSM    H4G 6461   1.819   6.006   5.450 -2.3990  0.6589  0.0919
   74OSM    C5F 6462   1.661   5.923   5.338 -0.7400 -0.2527  0.4076
   74OSM    H5F 6463   1.577   5.984   5.380 -0.9171 -0.3325  0.1711
   74OSM    H5G 6464   1.601   5.834   5.311 -2.8443  1.1632  0.1012
   74OSM    C6F 6465   1.718   5.977   5.199 -0.5172  0.4596 -0.7771
   74OSM    H6F 6466   1.735   6.083   5.225  1.9905 -0.0903  0.0974
   74OSM    H6G 6467   1.629   5.956   5.137 -1.9850 -1.7985  1.8106
   74OSM    C7F 6468   1.847   5.900   5.144  0.4342 -0.3204  0.2949
   74OSM    H7F 6469   1.818   5.796   5.117  1.3102 -0.4056 -0.3567
   74OSM    H7G 6470   1.926   5.901   5.222  0.8692  4.1694  0.0318
   74OSM    C8F 6471   1.921   5.975   5.032 -0.1729 -0.0368 -0.1661
   74OSM    H8F 6472   1.983   6.057   5.074 -1.1735  0.3413  0.6057
   74OSM    H8G 6473   1.845   6.020   4.964  1.6593  1.3785 -1.3814
   74OSM    C9F 6474   2.009   5.877   4.954 -0.0693 -0.7357  0.5830
   74OSM    H9F 6475   1.945   5.808   4.895  0.4536 -0.2333 -0.6020
   74OSM   C10F 6476   2.143   5.870   4.929  0.7688  0.1788  0.3470
   74OSM   H10F 6477   2.172   5.786   4.863 -2.6507 -0.4100 -0.6022
   74OSM   C11F 6478   2.261   5.959   4.961  0.1699 -0.2696  0.1796
   74OSM   H11F 6479   2.346   5.895   4.993 -1.0805 -1.2262  1.7561
   74OSM   H11G 6480   2.231   6.040   5.032 -0.3892 -0.5048  0.2131
   74OSM   C12F 6481   2.303   6.034   4.838 -0.7294  0.3173  1.0481
   74OSM   H12F 6482   2.340   6.134   4.866  0.4588  0.3993 -0.7019
   74OSM   H12G 6483   2.212   6.053   4.777 -2.3269 -0.7534  2.9547
   74OSM   C13F 6484   2.413   5.969   4.745  0.6372  0.0335 -0.5455
   74OSM   H13F 6485   2.395   5.861   4.724  0.1923 -0.0946  0.4339
   74OSM   H13G 6486   2.496   5.957   4.818  2.1109 -0.4701 -2.2399
   74OSM   C14F 6487   2.471   6.052   4.629 -0.6142  0.3818  0.6223
   74OSM   H14F 6488   2.576   6.021   4.612 -0.7179  0.2232  0.2592
   74OSM   H14G 6489   2.472   6.161   4.649  1.8520  1.1332 -2.6571
   74OSM   C15F 6490   2.389   6.020   4.503 -0.0868  0.1049 -0.1848
   74OSM   H15F 6491   2.288   6.065   4.502  0.3537  1.1423  0.2636
   74OSM   H15G 6492   2.384   5.909   4.498 -1.4475  0.2018 -1.4249
   74OSM   C16F 6493   2.468   6.068   4.384 -0.4991 -0.1069 -0.0410
   74OSM   H16F 6494   2.573   6.032   4.392 -0.5452 -0.1774  0.2853
   74OSM   H16G 6495   2.487   6.177   4.398  2.3425 -0.5265  0.0166
   74OSM   C17F 6496   2.409   6.042   4.251  0.6546  0.0280  0.6849
   74OSM   H17F 6497   2.309   6.091   4.251 -0.0005 -1.1131 -1.9962
   74OSM   H17G 6498   2.387   5.933   4.244  1.1054 -0.0148 -0.2261
   74OSM   C18F 6499   2.507   6.085   4.133 -0.4931 -0.2627 -0.3109
   74OSM   H18F 6500   2.439   6.088   4.045 -0.4640 -0.3837 -0.3377
   74OSM   H18G 6501   2.600   6.025   4.122 -0.0947  0.1461  0.6897
   74OSM   H18H 6502   2.546   6.184   4.164 -0.8211 -0.4780  0.8216
   75OSM      N 6503   0.052   0.277   6.686  0.4415 -0.8364  0.1491
   75OSM    C15 6504  -0.088   0.339   6.718  0.4425 -0.5539 -0.1216
   75OSM   H15A 6505  -0.160   0.259   6.721 -0.1086 -0.0376  1.5224
   75OSM   H15B 6506  -0.108   0.404   6.634  0.0862 -1.5625 -0.8447
   75OSM   H15C 6507  -0.079   0.386   6.814 -0.0497 -1.2103  0.2536
   75OSM    C14 6508   0.153   0.348   6.771  0.5469 -0.0009  0.2559
   75OSM   H14A 6509   0.141   0.312   6.872 -1.4701  0.6126  0.2805
   75OSM   H14B 6510   0.143   0.455   6.776 -1.1639 -0.1706  1.3680
   75OSM   H14C 6511   0.250   0.315   6.736  0.4988 -2.1389  1.8978
   75OSM    C13 6512   0.038   0.143   6.742 -0.1682  0.3095  0.2583
   75OSM   H13A 6513   0.010   0.143   6.846  0.3497 -1.1629  0.4215
   75OSM   H13B 6514   0.129   0.085   6.739 -1.8789 -2.5291 -0.1102
   75OSM   H13C 6515  -0.033   0.082   6.689  0.5364 -1.0313  0.8099
   75OSM    C12 6516   0.089   0.279   6.546 -1.2186  0.7023 -0.0783
   75OSM   H12A 6517   0.158   0.203   6.513 -2.2465  0.8368 -2.8109
   75OSM   H12B 6518   0.149   0.367   6.531  0.7651 -0.3853  1.0788
   75OSM    C11 6519  -0.032   0.276   6.444 -0.1326  0.1242  0.1726
   75OSM   H11A 6520  -0.112   0.203   6.468 -2.0537  1.4257 -1.8218
   75OSM   H11B 6521   0.019   0.238   6.353 -2.0190 -0.5239 -0.6754
   75OSM      P 6522  -0.004   0.519   6.349  0.3479 -0.0809 -0.2846
   75OSM    O13 6523  -0.105   0.624   6.338  0.7296 -0.5623  0.3477
   75OSM    O14 6524   0.126   0.550   6.411 -0.2062 -0.9061 -0.2085
   75OSM    O11 6525   0.014   0.458   6.203 -0.1496  0.1864  0.1871
   75OSM    O12 6526  -0.082   0.407   6.429 -0.1295 -0.1691  0.1370
   75OSM    C1S 6527   0.036   0.528   6.084 -0.1177 -0.5348  0.8958
   75OSM    H1S 6528   0.140   0.566   6.078 -0.4544  0.3015  0.2440
   75OSM    H1T 6529  -0.030   0.618   6.084 -0.4238 -0.7598  0.5136
   75OSM     NF 6530   0.046   0.526   5.837 -0.2546 -0.8437 -0.0220
   75OSM    HNF 6531  -0.033   0.577   5.806 -0.5880 -0.9116  0.6832
   75OSM    C2S 6532   0.009   0.447   5.955 -0.4309 -0.0316  0.0867
   75OSM    H2S 6533   0.080   0.361   5.954 -1.3511 -0.7949 -0.3459
   75OSM    C3S 6534  -0.138   0.407   5.958  1.3344 -0.0028  0.0959
   75OSM    H3S 6535  -0.207   0.493   5.944 -2.1338 -2.5172  0.6139
   75OSM     O3 6536  -0.190   0.346   6.079 -0.0325  0.5979  0.1943
   75OSM    HO3 6537  -0.116   0.366   6.137  1.5716 -0.4145 -1.4191
   75OSM    C4S 6538  -0.161   0.319   5.838  0.3209 -0.7211  0.2097
   75OSM    H4S 6539  -0.079   0.256   5.800 -0.7451 -0.8849 -1.9829
   75OSM    C5S 6540  -0.280   0.324   5.766 -0.2542  1.0103  0.5910
   75OSM    H5S 6541  -0.369   0.383   5.793 -0.7548  0.6966 -0.3330
   75OSM    C6S 6542  -0.301   0.237   5.646  0.5395  0.4600 -0.2427
   75OSM    H6S 6543  -0.393   0.176   5.657  0.4547  0.4712 -0.8615
   75OSM    H6T 6544  -0.217   0.167   5.628 -1.6582 -1.8038 -2.3992
   75OSM    C7S 6545  -0.332   0.337   5.529  0.1877  0.4364 -0.1455
   75OSM    H7S 6546  -0.254   0.415   5.521  0.2614  0.5632  1.4998
   75OSM    H7T 6547  -0.427   0.394   5.536  0.2872  0.9072 -2.0716
   75OSM    C8S 6548  -0.339   0.258   5.396  0.0757  1.1831 -0.5207
   75OSM    H8S 6549  -0.392   0.162   5.416 -0.1403  1.7925  2.2349
   75OSM    H8T 6550  -0.239   0.220   5.366 -0.7757  0.2858 -2.3677
   75OSM    C9S 6551  -0.382   0.346   5.286 -0.3354 -0.6519  0.5073
   75OSM    H9S 6552  -0.342   0.446   5.312 -0.1292 -0.3720 -0.8135
   75OSM    H9T 6553  -0.493   0.341   5.282 -0.3653 -0.0709  0.6424
   75OSM   C10S 6554  -0.320   0.314   5.141  0.2994  0.1054 -0.2633
   75OSM   H10S 6555  -0.397   0.239   5.110  0.3328 -0.0471  0.0182
   75OSM   H10T 6556  -0.224   0.262   5.161  0.3492  0.4700  0.4855
   75OSM   C11S 6557  -0.307   0.440   5.057  0.1697  0.0947 -0.7612
   75OSM   H11S 6558  -0.212   0.491   5.083  0.8391 -0.6235 -1.7051
   75OSM   H11T 6559  -0.387   0.512   5.085  0.1627  0.4909 -1.7501
   75OSM   C12S 6560  -0.312   0.411   4.912 -0.5989 -0.5238 -0.2817
   75OSM   H12S 6561  -0.410   0.372   4.878 -2.4198  2.3588  1.3245
   75OSM   H12T 6562  -0.237   0.330   4.904 -0.8138 -0.7771  0.2309
   75OSM   C13S 6563  -0.274   0.524   4.824  0.0680  0.1018  0.6454
   75OSM   H13S 6564  -0.178   0.567   4.858 -0.6477  1.8839  0.5185
   75OSM   H13T 6565  -0.351   0.604   4.822 -0.0573  0.0138 -2.2057
   75OSM   C14S 6566  -0.253   0.492   4.670  0.5734 -0.3740  0.5884
   75OSM   H14S 6567  -0.352   0.470   4.624  1.3955  0.0558 -1.5023
   75OSM   H14T 6568  -0.184   0.407   4.652 -0.0203 -0.8432  0.4787
   75OSM   C15S 6569  -0.205   0.615   4.596 -0.0180 -0.4856 -0.0616
   75OSM   H15S 6570  -0.104   0.645   4.632  0.6601 -1.1727 -1.3205
   75OSM   H15T 6571  -0.275   0.701   4.598  1.2222  0.5458  0.4328
   75OSM   C16S 6572  -0.183   0.589   4.447 -0.8986 -0.4316  0.1025
   75OSM   H16S 6573  -0.146   0.485   4.445 -1.9095 -0.7925 -0.4043
   75OSM   H16T 6574  -0.104   0.651   4.400 -2.1668  2.7993  1.8794
   75OSM   C17S 6575  -0.309   0.603   4.372  0.5375  0.1546 -0.1577
   75OSM   H17S 6576  -0.345   0.708   4.363  1.3667  0.5369  0.7443
   75OSM   H17T 6577  -0.391   0.540   4.412  0.8331 -0.8016 -1.0215
   75OSM   C18S 6578  -0.292   0.557   4.228  0.1976  0.5401 -0.1934
   75OSM   H18S 6579  -0.260   0.451   4.232 -0.6857  0.1511 -2.0319
   75OSM   H18T 6580  -0.215   0.617   4.174  1.3866 -0.1542  0.6924
   75OSM   H18U 6581  -0.387   0.550   4.170  1.9088  0.3105 -3.1901
   75OSM    C1F 6582   0.173   0.542   5.799  0.0224  0.1594  0.8449
   75OSM     OF 6583   0.265   0.470   5.848 -0.1591  0.2519 -0.4205
   75OSM    C2F 6584   0.206   0.650   5.698 -0.4071 -0.8731 -0.6640
   75OSM    H2F 6585   0.254   0.736   5.750  0.6078 -0.7815 -1.7110
   75OSM    H2G 6586   0.111   0.671   5.643  0.3457  1.5990 -1.1455
   75OSM    C3F 6587   0.306   0.617   5.584 -0.0600  0.6843 -0.3785
   75OSM    H3F 6588   0.258   0.533   5.529  0.2664  0.8800 -0.9681
   75OSM    H3G 6589   0.403   0.587   5.630 -0.4464  0.6580  0.4348
   75OSM    C4F 6590   0.349   0.723   5.487  0.4246  0.0522  0.1303
   75OSM    H4F 6591   0.394   0.674   5.398 -0.1812  1.3680 -0.9389
   75OSM    H4G 6592   0.425   0.777   5.548  0.9613 -1.3978  0.7900
   75OSM    C5F 6593   0.259   0.837   5.438  0.1508  0.1511  0.3966
   75OSM    H5F 6594   0.201   0.881   5.522  0.1607 -1.6365  1.3760
   75OSM    H5G 6595   0.180   0.793   5.373  1.3541  0.9444 -1.6981
   75OSM    C6F 6596   0.330   0.941   5.349 -0.1726 -0.0130  0.8463
   75OSM    H6F 6597   0.414   0.898   5.291 -0.3860  1.6090 -0.7552
   75OSM    H6G 6598   0.366   1.029   5.406  0.1290  0.5735 -0.2224
   75OSM    C7F 6599   0.226   1.001   5.249  0.5032 -0.6361  0.7773
   75OSM    H7F 6600   0.153   1.071   5.294  0.9253  0.3493 -0.0371
   75OSM    H7G 6601   0.171   0.918   5.200  0.2476 -0.1975  0.3098
   75OSM    C8F 6602   0.295   1.074   5.132 -0.4272 -0.7494 -0.4777
   75OSM    H8F 6603   0.367   1.013   5.074  0.1090 -0.5050 -0.0778
   75OSM    H8G 6604   0.353   1.155   5.181 -3.3270  1.4156 -0.3386
   75OSM    C9F 6605   0.200   1.136   5.036  0.2306 -0.6286  0.1489
   75OSM    H9F 6606   0.098   1.094   5.042  1.2943 -4.0200 -2.1483
   75OSM   C10F 6607   0.233   1.241   4.958  0.3477  0.0082 -0.0119
   75OSM   H10F 6608   0.171   1.274   4.873  0.1521 -0.6272 -0.1161
   75OSM   C11F 6609   0.372   1.300   4.961  0.3907 -0.6495  0.5249
   75OSM   H11F 6610   0.446   1.280   5.041  1.0165 -0.9846 -0.1240
   75OSM   H11G 6611   0.347   1.407   4.976 -3.0754 -1.4177  1.0756
   75OSM   C12F 6612   0.436   1.290   4.825 -0.8984  0.0335 -0.0549
   75OSM   H12F 6613   0.359   1.322   4.751 -1.9389 -1.4445  0.3508
   75OSM   H12G 6614   0.466   1.186   4.800  0.1634  0.3002  0.0567
   75OSM   C13F 6615   0.559   1.378   4.812 -0.8473 -0.0362  0.4425
   75OSM   H13F 6616   0.615   1.387   4.908  1.3826  0.8927 -0.8803
   75OSM   H13G 6617   0.521   1.480   4.790  1.5230  0.5771 -1.1355
   75OSM   C14F 6618   0.645   1.333   4.692  0.1547  0.0393  1.0122
   75OSM   H14F 6619   0.581   1.329   4.601  0.7920  1.0216  0.5054
   75OSM   H14G 6620   0.671   1.226   4.705  0.3878  0.0827  0.9013
   75OSM   C15F 6621   0.770   1.427   4.686  0.6374 -0.1206  0.2349
   75OSM   H15F 6622   0.834   1.414   4.776  0.4084  0.4573  0.4859
   75OSM   H15G 6623   0.738   1.534   4.691  0.0236 -0.3402  1.6126
   75OSM   C16F 6624   0.846   1.412   4.558  0.6051  0.3974  0.5957
   75OSM   H16F 6625   0.772   1.399   4.477 -0.6275 -0.1617  1.7784
   75OSM   H16G 6626   0.899   1.315   4.572 -1.1978 -0.2890  3.7345
   75OSM   C17F 6627   0.953   1.521   4.527 -0.1082  0.2232  0.1556
   75OSM   H17F 6628   1.027   1.522   4.610 -0.5399 -2.2237  0.6429
   75OSM   H17G 6629   0.896   1.614   4.506 -1.8898 -0.6846  0.7147
   75OSM   C18F 6630   1.022   1.472   4.403  0.0964  0.6160  0.5178
   75OSM   H18F 6631   0.952   1.465   4.317  0.5740  2.6605 -0.1020
   75OSM   H18G 6632   1.075   1.376   4.422 -0.1768  0.1385 -0.9794
   75OSM   H18H 6633   1.102   1.546   4.382 -0.7321  1.6169  0.8271
   76OSM      N 6634   2.059   0.590   6.467 -0.5591  0.2076 -0.4218
   76OSM    C15 6635   2.163   0.649   6.545  0.2284  0.2309 -0.6866
   76OSM   H15A 6636   2.254   0.591   6.543  1.2203  1.5776  1.4473
   76OSM   H15B 6637   2.145   0.637   6.651 -0.3197 -2.7091 -1.0172
   76OSM   H15C 6638   2.172   0.756   6.531  0.0259  0.8365  2.7830
   76OSM    C14 6639   2.048   0.444   6.496 -0.4307  0.1060  0.0949
   76OSM   H14A 6640   1.959   0.404   6.449  0.9230 -0.0254 -2.5222
   76OSM   H14B 6641   2.042   0.428   6.603  0.3014 -1.6476 -0.0890
   76OSM   H14C 6642   2.131   0.394   6.449 -0.2798 -1.2899  1.7616
   76OSM    C13 6643   1.933   0.645   6.504 -0.2851  0.3431 -0.6755
   76OSM   H13A 6644   1.911   0.747   6.477 -2.2833  0.5705  1.4841
   76OSM   H13B 6645   1.920   0.632   6.611 -1.3612 -1.1147 -0.9664
   76OSM   H13C 6646   1.852   0.586   6.464 -1.2713 -2.1633  4.2274
   76OSM    C12 6647   2.074   0.611   6.316  0.1709 -0.6016  0.5449
   76OSM   H12A 6648   1.999   0.561   6.257  0.1983 -1.4629  1.2250
   76OSM   H12B 6649   2.163   0.569   6.272  1.4368  1.8425  0.6039
   76OSM    C11 6650   2.084   0.763   6.267  0.1062  0.0381 -0.5058
   76OSM   H11A 6651   1.994   0.818   6.303  0.1173  0.7309 -1.4942
   76OSM   H11B 6652   2.087   0.758   6.156 -0.2861  0.1959 -0.5276
   76OSM      P 6653   2.230   0.978   6.308  0.5394  0.1454 -0.1651
   76OSM    O13 6654   2.134   1.039   6.399 -0.0469  0.4378  0.1607
   76OSM    O14 6655   2.371   1.003   6.334  0.0823  0.1471 -0.3366
   76OSM    O11 6656   2.198   1.007   6.153 -0.6299 -0.3951 -0.1961
   76OSM    O12 6657   2.203   0.821   6.309 -0.8152  0.4860 -0.5800
   76OSM    C1S 6658   2.275   0.947   6.048 -0.1769 -0.1934  0.3603
   76OSM    H1S 6659   2.250   0.839   6.040 -1.9823  0.1378  0.9952
   76OSM    H1T 6660   2.384   0.961   6.065  0.5705  0.6545 -3.9316
   76OSM     NF 6661   2.284   0.913   5.804  0.1210 -0.5492  0.0751
   76OSM    HNF 6662   2.379   0.923   5.777  0.3757  0.1999  1.1981
   76OSM    C2S 6663   2.239   1.003   5.908 -0.2553  0.4720 -0.7711
   76OSM    H2S 6664   2.132   1.026   5.893 -0.2357  0.9811 -0.1474
   76OSM    C3S 6665   2.302   1.146   5.906  0.4326 -0.0096  0.3532
   76OSM    H3S 6666   2.409   1.132   5.933  0.7451 -1.6600 -1.4731
   76OSM     O3 6667   2.236   1.232   6.001 -0.4941 -0.2248 -0.1034
   76OSM    HO3 6668   2.170   1.176   6.042 -1.4067  1.4014  0.7409
   76OSM    C4S 6669   2.293   1.209   5.775  0.2136 -0.4049  0.3697
   76OSM    H4S 6670   2.192   1.246   5.752  0.6631 -0.4527 -1.9724
   76OSM    C5S 6671   2.384   1.227   5.682  0.3264 -0.3880 -0.3589
   76OSM    H5S 6672   2.489   1.197   5.695 -0.0869 -1.8149 -0.0757
   76OSM    C6S 6673   2.356   1.288   5.551 -0.5551 -0.3258 -0.0309
   76OSM    H6S 6674   2.416   1.374   5.514  1.3702 -1.9457 -0.8416
   76OSM    H6T 6675   2.252   1.325   5.545  0.0983  1.7354  0.4576
   76OSM    C7S 6676   2.367   1.187   5.442 -0.1602  0.0059 -0.0650
   76OSM    H7S 6677   2.307   1.095   5.459  0.7665 -0.5720  0.1076
   76OSM    H7T 6678   2.474   1.168   5.421  0.2881  2.4672 -0.3118
   76OSM    C8S 6679   2.313   1.258   5.317  0.1751  0.1036  0.3383
   76OSM    H8S 6680   2.360   1.358   5.304 -0.2724  0.7493  3.0337
   76OSM    H8T 6681   2.206   1.288   5.326 -0.0711 -1.1647  2.2078
   76OSM    C9S 6682   2.334   1.179   5.186 -0.0842 -0.5925 -0.3292
   76OSM    H9S 6683   2.273   1.086   5.185  2.2812 -2.2399 -2.2016
   76OSM    H9T 6684   2.437   1.137   5.186 -0.4947 -1.8354  2.4782
   76OSM   C10S 6685   2.302   1.264   5.066 -0.3095  0.2561  0.0413
   76OSM   H10S 6686   2.367   1.354   5.066 -0.1071  0.1317 -1.5019
   76OSM   H10T 6687   2.197   1.298   5.071 -0.7048 -0.8481 -0.4806
   76OSM   C11S 6688   2.333   1.183   4.939 -0.4206  0.2739 -0.5046
   76OSM   H11S 6689   2.254   1.106   4.927  0.9828 -1.2425 -0.4074
   76OSM   H11T 6690   2.432   1.134   4.949 -0.8856 -0.4352  0.8701
   76OSM   C12S 6691   2.332   1.261   4.809 -0.5142 -0.3796  0.0847
   76OSM   H12S 6692   2.414   1.335   4.804 -0.2003 -0.5846  1.7405
   76OSM   H12T 6693   2.236   1.316   4.807 -0.2874  0.3130  3.0877
   76OSM   C13S 6694   2.359   1.178   4.684  0.6188 -0.2829 -0.0076
   76OSM   H13S 6695   2.267   1.119   4.662  1.5009 -1.1899 -1.3858
   76OSM   H13T 6696   2.443   1.107   4.698  0.4020 -0.5460 -0.0315
   76OSM   C14S 6697   2.371   1.268   4.563 -0.1636 -0.1015  0.2485
   76OSM   H14S 6698   2.441   1.353   4.578 -2.7131  2.8542 -2.9226
   76OSM   H14T 6699   2.270   1.312   4.550  0.5009  1.8788  1.3231
   76OSM   C15S 6700   2.404   1.184   4.433  0.1286  0.2454  0.1174
   76OSM   H15S 6701   2.307   1.136   4.406  1.3576 -1.0993 -2.2376
   76OSM   H15T 6702   2.474   1.099   4.446 -1.6328 -1.2302  0.4165
   76OSM   C16S 6703   2.449   1.274   4.317 -0.4364  0.3408 -0.1530
   76OSM   H16S 6704   2.499   1.203   4.248  0.1253  0.6756 -0.0942
   76OSM   H16T 6705   2.531   1.345   4.342  0.8449 -1.2236  0.2428
   76OSM   C17S 6706   2.336   1.351   4.251  0.1923 -0.2169  0.5122
   76OSM   H17S 6707   2.316   1.422   4.333 -2.9319 -0.1263 -0.1999
   76OSM   H17T 6708   2.251   1.280   4.240 -1.9870  2.5231 -2.3918
   76OSM   C18S 6709   2.378   1.413   4.116  0.5578 -0.0760  0.1300
   76OSM   H18S 6710   2.294   1.476   4.079  1.0076  0.3304 -0.2228
   76OSM   H18T 6711   2.405   1.331   4.046 -0.4409  0.9471 -1.5195
   76OSM   H18U 6712   2.464   1.478   4.143  2.6172 -2.3066 -0.6350
   76OSM    C1F 6713   2.206   0.817   5.767 -0.4148 -0.1444  0.0002
   76OSM     OF 6714   2.093   0.802   5.812 -0.7876  0.1573 -0.0586
   76OSM    C2F 6715   2.265   0.714   5.667 -0.2778  0.0043  0.3684
   76OSM    H2F 6716   2.315   0.633   5.726  0.2974 -0.2739 -0.4766
   76OSM    H2G 6717   2.345   0.767   5.612 -1.3540 -0.6666 -1.9752
   76OSM    C3F 6718   2.152   0.662   5.564 -0.0390 -0.2399  0.1453
   76OSM    H3F 6719   2.081   0.746   5.550  1.8607  1.2221 -1.3287
   76OSM    H3G 6720   2.096   0.577   5.609  1.0352 -2.2108 -2.0622
   76OSM    C4F 6721   2.212   0.632   5.419 -0.2774  0.7244  0.0635
   76OSM    H4F 6722   2.297   0.562   5.436 -1.0478 -0.6846 -1.5913
   76OSM    H4G 6723   2.255   0.714   5.357  0.2411 -0.0415 -0.6274
   76OSM    C5F 6724   2.115   0.529   5.340 -0.3492 -0.0298  0.2934
   76OSM    H5F 6725   2.012   0.565   5.359 -0.8047 -2.3641  2.8700
   76OSM    H5G 6726   2.121   0.429   5.389  0.9526 -0.8332 -1.4010
   76OSM    C6F 6727   2.155   0.516   5.194 -0.4921 -0.6833 -0.2136
   76OSM    H6F 6728   2.259   0.478   5.203  0.1691  1.4788  4.5163
   76OSM    H6G 6729   2.158   0.616   5.146 -1.8555 -1.2972 -1.6809
   76OSM    C7F 6730   2.054   0.431   5.109  0.2144 -0.4405  0.2740
   76OSM    H7F 6731   1.960   0.489   5.094  0.8922  0.6845  0.3032
   76OSM    H7G 6732   2.017   0.340   5.161  0.2374 -0.8228 -0.3715
   76OSM    C8F 6733   2.113   0.407   4.966 -0.3289  0.2972 -0.3339
   76OSM    H8F 6734   2.215   0.362   4.977 -1.1642 -1.5527  0.3157
   76OSM    H8G 6735   2.147   0.504   4.925 -1.2769  0.1203 -1.6058
   76OSM    C9F 6736   2.020   0.342   4.865  0.0218 -0.3399 -0.0394
   76OSM    H9F 6737   1.979   0.245   4.894 -2.8169  0.6165 -0.5706
   76OSM   C10F 6738   1.972   0.390   4.747  0.1390  0.2108 -0.8551
   76OSM   H10F 6739   1.888   0.334   4.703 -1.3282  0.8094  1.0278
   76OSM   C11F 6740   2.006   0.524   4.680 -0.1463 -0.0383  0.3173
   76OSM   H11F 6741   2.089   0.504   4.609  0.8422 -0.3006  1.5039
   76OSM   H11G 6742   2.037   0.602   4.753 -1.9905  0.6330  0.4288
   76OSM   C12F 6743   1.888   0.584   4.596 -0.2711 -0.3174  0.0993
   76OSM   H12F 6744   1.911   0.684   4.555 -1.9347  0.4706  0.9622
   76OSM   H12G 6745   1.808   0.609   4.669  0.3941 -1.4729  1.2691
   76OSM   C13F 6746   1.824   0.500   4.482 -0.6449 -0.2258 -0.2902
   76OSM   H13F 6747   1.805   0.398   4.522 -1.5887  0.7076  1.7829
   76OSM   H13G 6748   1.898   0.496   4.400  0.7311  3.1436  0.6282
   76OSM   C14F 6749   1.691   0.564   4.444 -0.3322 -0.1914 -0.2190
   76OSM   H14F 6750   1.700   0.667   4.405  0.8870  0.2829  1.2033
   76OSM   H14G 6751   1.618   0.553   4.527  0.8576 -3.7017  0.5565
   76OSM   C15F 6752   1.635   0.485   4.326  0.1859 -0.5382  0.1874
   76OSM   H15F 6753   1.524   0.486   4.330  0.1631 -0.8798 -0.3171
   76OSM   H15G 6754   1.670   0.380   4.333  0.8757 -0.2823  0.7606
   76OSM   C16F 6755   1.668   0.532   4.181  1.0799 -0.5516 -0.2723
   76OSM   H16F 6756   1.778   0.538   4.176  1.2479  0.6429  2.7354
   76OSM   H16G 6757   1.620   0.629   4.158  1.2392 -1.0048 -2.8152
   76OSM   C17F 6758   1.616   0.432   4.072 -0.7371  0.1406  0.1154
   76OSM   H17F 6759   1.507   0.423   4.087 -1.1158  1.4020 -1.5585
   76OSM   H17G 6760   1.665   0.333   4.086  1.2257  1.0543  0.1750
   76OSM   C18F 6761   1.636   0.470   3.926  0.0422 -0.3886  0.5596
   76OSM   H18F 6762   1.601   0.576   3.919  0.5413 -0.3182 -1.1807
   76OSM   H18G 6763   1.570   0.403   3.867  2.4291 -1.8262 -0.6026
   76OSM   H18H 6764   1.740   0.477   3.888 -1.5589  1.7534 -4.2516
   77OSM      N 6765   0.407   4.458   6.421  0.0334 -1.3973  0.3762
   77OSM    C15 6766   0.299   4.385   6.488 -0.0064  0.2463  0.1508
   77OSM   H15A 6767   0.203   4.435   6.484 -1.7651 -2.7197  1.7939
   77OSM   H15B 6768   0.318   4.371   6.593  2.3035  2.2541  0.0869
   77OSM   H15C 6769   0.284   4.286   6.447  0.1704  0.7015 -1.0663
   77OSM    C14 6770   0.418   4.593   6.480  0.2270 -0.3585  0.4032
   77OSM   H14A 6771   0.446   4.598   6.584  0.0228  1.9429  0.4034
   77OSM   H14B 6772   0.322   4.641   6.466  0.5893  0.0576 -0.8195
   77OSM   H14C 6773   0.497   4.653   6.436  0.7076  1.0625  2.9767
   77OSM    C13 6774   0.526   4.388   6.457  0.2609  0.3582 -0.4709
   77OSM   H13A 6775   0.618   4.409   6.404  0.7360 -1.3869 -0.4296
   77OSM   H13B 6776   0.510   4.286   6.424  0.0645  0.1992  0.0908
   77OSM   H13C 6777   0.551   4.386   6.562  0.7341  2.4654 -0.5129
   77OSM    C12 6778   0.390   4.457   6.271 -0.1298 -0.3642  0.2204
   77OSM   H12A 6779   0.375   4.354   6.242 -2.7499 -0.1557  0.5501
   77OSM   H12B 6780   0.480   4.495   6.225 -0.6410 -0.4251 -0.8702
   77OSM    C11 6781   0.268   4.526   6.201  0.1341  1.0910 -0.2252
   77OSM   H11A 6782   0.180   4.461   6.218  1.3760 -0.4206  0.8250
   77OSM   H11B 6783   0.276   4.529   6.090 -0.0203 -0.6937 -0.3167
   77OSM      P 6784   0.127   4.752   6.252  0.2421  0.5732  0.7230
   77OSM    O13 6785   0.010   4.667   6.283  0.5874  0.9770 -0.0491
   77OSM    O14 6786   0.152   4.875   6.318 -0.0596  0.3423 -0.4194
   77OSM    O11 6787   0.114   4.783   6.098  0.2121 -0.2591  0.1795
   77OSM    O12 6788   0.257   4.659   6.253 -0.5676  0.9002 -0.6652
   77OSM    C1S 6789  -0.021   4.792   6.035 -0.9636 -0.2747  0.6062
   77OSM    H1S 6790  -0.084   4.840   6.113 -0.9149  0.2565  0.3186
   77OSM    H1T 6791  -0.061   4.691   6.014 -1.1731  0.2664 -1.9057
   77OSM     NF 6792  -0.149   4.898   5.862  0.6278 -0.3821 -0.4311
   77OSM    HNF 6793  -0.197   4.830   5.808 -1.4662 -0.2962  1.2079
   77OSM    C2S 6794  -0.011   4.864   5.898 -0.6341 -0.0818  0.0524
   77OSM    H2S 6795   0.039   4.962   5.913  1.0068 -0.6489 -1.3974
   77OSM    C3S 6796   0.076   4.788   5.794  0.3253  0.0049  0.2134
   77OSM    H3S 6797   0.028   4.700   5.745  2.9238 -0.8767 -0.9751
   77OSM     O3 6798   0.205   4.742   5.834  0.0154 -0.4758 -0.2858
   77OSM    HO3 6799   0.181   4.727   5.925 -3.0954 -1.7493 -1.1845
   77OSM    C4S 6800   0.085   4.891   5.677  0.5959  0.3191 -0.5013
   77OSM    H4S 6801  -0.015   4.920   5.639  0.2448 -0.9294 -0.5540
   77OSM    C5S 6802   0.191   4.971   5.644  0.3249  0.4266 -0.5398
   77OSM    H5S 6803   0.278   4.969   5.712  0.1629  0.9059 -0.3111
   77OSM    C6S 6804   0.202   5.066   5.528 -0.1459  0.3930 -0.3413
   77OSM    H6S 6805   0.280   5.034   5.456 -1.6682 -0.7634 -1.5586
   77OSM    H6T 6806   0.225   5.166   5.572 -0.5470  0.2169  0.2879
   77OSM    C7S 6807   0.068   5.089   5.450  0.4464  0.1666 -0.0711
   77OSM    H7S 6808  -0.015   5.105   5.522 -0.9644 -2.7494 -0.9175
   77OSM    H7T 6809   0.049   4.990   5.404  0.9668 -0.6946  1.5024
   77OSM    C8S 6810   0.083   5.207   5.351  0.5857  0.3742  0.1798
   77OSM    H8S 6811   0.160   5.175   5.278  0.9681 -0.2552  0.8520
   77OSM    H8T 6812   0.120   5.298   5.403 -0.2832 -0.7581  2.9608
   77OSM    C9S 6813  -0.039   5.231   5.264  0.4265 -0.4542  0.3303
   77OSM    H9S 6814  -0.116   5.273   5.332  0.5891  1.6301 -0.6896
   77OSM    H9T 6815  -0.054   5.130   5.221  2.4026 -0.7538  0.2325
   77OSM   C10S 6816  -0.020   5.331   5.149 -0.6590  0.5072 -0.7376
   77OSM   H10S 6817   0.072   5.299   5.094 -0.9051 -0.7583 -0.4215
   77OSM   H10T 6818   0.001   5.432   5.192 -1.1070  0.4523 -0.3954
   77OSM   C11S 6819  -0.133   5.345   5.040  0.2096 -0.1609  0.2283
   77OSM   H11S 6820  -0.217   5.400   5.088  1.1150 -1.5781  3.7655
   77OSM   H11T 6821  -0.167   5.250   4.993  1.2232 -0.3734 -0.1117
   77OSM   C12S 6822  -0.089   5.424   4.918 -0.1702 -0.5332 -0.5436
   77OSM   H12S 6823   0.015   5.391   4.901  0.3689  1.2262 -0.8567
   77OSM   H12T 6824  -0.089   5.533   4.940  0.7812 -0.9965  2.1200
   77OSM   C13S 6825  -0.162   5.399   4.793 -0.1264  0.0107  0.1679
   77OSM   H13S 6826  -0.269   5.405   4.824  0.4372 -0.9419  2.5000
   77OSM   H13T 6827  -0.120   5.301   4.762 -0.2745 -0.1712  0.5349
   77OSM   C14S 6828  -0.136   5.518   4.696 -0.0545  0.0465  1.1006
   77OSM   H14S 6829  -0.027   5.525   4.679 -0.1839 -1.1525 -0.3823
   77OSM   H14T 6830  -0.179   5.614   4.731 -1.0871  0.3949 -0.9846
   77OSM   C15S 6831  -0.201   5.485   4.564 -0.1866 -0.8093 -0.1589
   77OSM   H15S 6832  -0.309   5.473   4.588  0.2938  0.9046  3.5395
   77OSM   H15T 6833  -0.176   5.391   4.511  1.5552 -0.8662  0.6864
   77OSM   C16S 6834  -0.191   5.598   4.462  0.6780 -0.1651  0.7940
   77OSM   H16S 6835  -0.198   5.703   4.498 -1.8097  1.1376 -2.9425
   77OSM   H16T 6836  -0.278   5.593   4.394  1.8656  1.6959 -0.9745
   77OSM   C17S 6837  -0.064   5.587   4.378  0.0147  0.9304  0.1374
   77OSM   H17S 6838   0.019   5.547   4.441 -1.3656 -0.8887  0.9062
   77OSM   H17T 6839  -0.044   5.690   4.342  0.3714  1.0939  0.7789
   77OSM   C18S 6840  -0.092   5.506   4.247  0.3328 -0.5088  0.4754
   77OSM   H18S 6841  -0.175   5.560   4.195 -1.3663 -0.3273  3.1658
   77OSM   H18T 6842  -0.141   5.408   4.266 -0.1953 -0.0588  1.5184
   77OSM   H18U 6843   0.001   5.501   4.186  1.0520 -1.6948  1.6394
   77OSM    C1F 6844  -0.229   4.981   5.939 -0.5264 -0.2427  0.5626
   77OSM     OF 6845  -0.176   5.048   6.026  0.0604  0.0962 -0.2597
   77OSM    C2F 6846  -0.373   4.984   5.898  0.4901 -0.0211  0.5635
   77OSM    H2F 6847  -0.422   5.071   5.947  0.4901 -0.7798  1.9667
   77OSM    H2G 6848  -0.435   4.901   5.937  1.1004 -0.5799  0.3691
   77OSM    C3F 6849  -0.406   4.974   5.749 -0.1344 -0.0808 -0.0513
   77OSM    H3F 6850  -0.515   4.993   5.738  0.1547  0.5874 -2.2083
   77OSM    H3G 6851  -0.384   4.875   5.704  1.3116 -0.2828  1.0257
   77OSM    C4F 6852  -0.337   5.076   5.656  0.0927 -0.0177 -0.1974
   77OSM    H4F 6853  -0.227   5.071   5.669  0.0736 -0.6066 -0.2444
   77OSM    H4G 6854  -0.355   5.180   5.691 -1.0531  0.0734 -0.9814
   77OSM    C5F 6855  -0.372   5.070   5.501  0.6155  0.1196 -0.4383
   77OSM    H5F 6856  -0.345   5.163   5.446 -0.9782  0.3406 -0.8896
   77OSM    H5G 6857  -0.479   5.055   5.477  0.2208  0.4982  1.0058
   77OSM    C6F 6858  -0.315   4.951   5.429  0.0147 -0.5956 -0.0552
   77OSM    H6F 6859  -0.353   4.859   5.480 -2.5970  0.8036  0.7077
   77OSM    H6G 6860  -0.205   4.952   5.443  0.0269  1.5060 -0.0222
   77OSM    C7F 6861  -0.332   4.947   5.279  0.2279  0.2968  0.0616
   77OSM    H7F 6862  -0.284   5.036   5.232 -1.0070  1.6061  1.2090
   77OSM    H7G 6863  -0.440   4.958   5.259 -0.1984  0.8482  2.3934
   77OSM    C8F 6864  -0.274   4.818   5.227 -0.2409  0.6102  0.4533
   77OSM    H8F 6865  -0.324   4.743   5.291  0.7216 -0.7097 -0.2913
   77OSM    H8G 6866  -0.166   4.801   5.247 -0.9667 -1.5689  3.1256
   77OSM    C9F 6867  -0.317   4.791   5.084 -0.2671 -0.1951  0.5967
   77OSM    H9F 6868  -0.420   4.754   5.069 -0.9852  2.4522 -1.7861
   77OSM   C10F 6869  -0.256   4.820   4.972 -0.3060  0.6392  0.0975
   77OSM   H10F 6870  -0.310   4.795   4.880  0.7466 -0.4451 -0.2565
   77OSM   C11F 6871  -0.128   4.891   4.956 -0.3166  0.0085  0.4938
   77OSM   H11F 6872  -0.044   4.818   4.962 -0.4842 -0.6369 -3.0153
   77OSM   H11G 6873  -0.109   4.960   5.041  0.4447 -0.6612  0.8817
   77OSM   C12F 6874  -0.119   4.975   4.834  0.4028  0.2837 -0.3924
   77OSM   H12F 6875  -0.029   5.040   4.830 -0.3504  1.3371 -0.6967
   77OSM   H12G 6876  -0.205   5.045   4.841  0.8424  0.6477  3.9966
   77OSM   C13F 6877  -0.131   4.901   4.699  0.3043  0.2508 -0.3376
   77OSM   H13F 6878  -0.228   4.846   4.698  0.0058  0.7688 -0.5956
   77OSM   H13G 6879  -0.049   4.827   4.692  0.9861  0.7623  1.5937
   77OSM   C14F 6880  -0.129   4.996   4.574  0.6999  0.6336  0.3879
   77OSM   H14F 6881  -0.217   5.064   4.565  1.6125  1.6480 -1.4685
   77OSM   H14G 6882  -0.148   4.930   4.486 -0.0048  2.6995 -1.0833
   77OSM   C15F 6883   0.005   5.060   4.545  0.0226 -0.2321  0.0451
   77OSM   H15F 6884   0.079   4.980   4.525 -1.0625 -0.9306 -1.3269
   77OSM   H15G 6885   0.044   5.112   4.635 -2.6861 -0.3625  1.3872
   77OSM   C16F 6886  -0.006   5.175   4.438  0.3181  0.9546  0.4983
   77OSM   H16F 6887   0.081   5.244   4.430  0.0983  1.2480  0.6023
   77OSM   H16G 6888  -0.101   5.233   4.440 -1.0264 -1.1256 -0.2025
   77OSM   C17F 6889  -0.011   5.111   4.299  0.0842  0.2092  0.2035
   77OSM   H17F 6890   0.039   5.012   4.304 -0.2094 -0.1815 -2.7681
   77OSM   H17G 6891   0.038   5.179   4.227  2.2247 -1.6256 -0.1965
   77OSM   C18F 6892  -0.145   5.085   4.234  0.2810  0.1237 -0.2616
   77OSM   H18F 6893  -0.130   5.053   4.129 -0.3730  2.1907 -1.0421
   77OSM   H18G 6894  -0.204   5.180   4.236 -1.9565 -1.1975  1.2028
   77OSM   H18H 6895  -0.206   5.006   4.284 -0.6722 -0.1903 -1.8323
   78OSM      N 6896   4.496   6.507   6.539  0.2502  0.1479 -0.1736
   78OSM    C15 6897   4.610   6.426   6.580 -0.2792 -0.3372 -0.2576
   78OSM   H15A 6898   4.612   6.425   6.688 -1.0054  2.3557 -0.1451
   78OSM   H15B 6899   4.700   6.468   6.539 -0.3252  1.1656  1.0667
   78OSM   H15C 6900   4.594   6.324   6.549  0.5455 -0.7963  0.7858
   78OSM    C14 6901   4.373   6.432   6.592 -0.5984  0.7083  0.0876
   78OSM   H14A 6902   4.384   6.329   6.564 -0.6535  0.9460 -0.8469
   78OSM   H14B 6903   4.281   6.478   6.558 -0.0867  1.5407 -0.1941
   78OSM   H14C 6904   4.374   6.425   6.700 -0.4820 -1.5682 -0.0334
   78OSM    C13 6905   4.511   6.634   6.612  0.1897  0.1778 -0.8066
   78OSM   H13A 6906   4.440   6.702   6.569 -2.4577 -2.2761 -0.6350
   78OSM   H13B 6907   4.615   6.662   6.619  0.7822 -2.0986  0.9720
   78OSM   H13C 6908   4.478   6.635   6.715  1.3591  1.5738 -0.4062
   78OSM    C12 6909   4.481   6.520   6.384  0.5123  0.3338  0.6518
   78OSM   H12A 6910   4.398   6.587   6.369 -0.0384 -0.5636 -0.4170
   78OSM   H12B 6911   4.454   6.424   6.344  0.7430  1.2622 -1.9214
   78OSM    C11 6912   4.597   6.571   6.291 -0.0995 -0.0655  0.1761
   78OSM   H11A 6913   4.570   6.565   6.184  0.6339  1.5701 -0.1305
   78OSM   H11B 6914   4.683   6.502   6.306  0.0824  0.5530  2.4870
   78OSM      P 6915   4.536   6.821   6.284  0.2834 -0.2294 -0.1042
   78OSM    O13 6916   4.397   6.817   6.337  0.2206 -0.3426 -0.1737
   78OSM    O14 6917   4.613   6.946   6.301 -0.6628 -0.0996 -0.1833
   78OSM    O11 6918   4.525   6.803   6.127  0.0964 -0.3836  0.7573
   78OSM    O12 6919   4.630   6.703   6.338  0.7392  0.1514  0.4031
   78OSM    C1S 6920   4.642   6.832   6.054 -1.0624 -0.3463  0.1939
   78OSM    H1S 6921   4.730   6.778   6.096 -1.0319  0.7456  1.6241
   78OSM    H1T 6922   4.650   6.942   6.058 -0.2226 -0.4304  1.6966
   78OSM     NF 6923   4.760   6.790   5.840 -0.3600  0.1455 -0.3899
   78OSM    HNF 6924   4.796   6.881   5.820 -0.7129  0.3163 -0.2634
   78OSM    C2S 6925   4.628   6.793   5.907  0.7647  0.2644  0.3361
   78OSM    H2S 6926   4.591   6.688   5.900  1.2640 -0.1145  2.7444
   78OSM    C3S 6927   4.521   6.889   5.845  0.7608 -0.1437 -0.1163
   78OSM    H3S 6928   4.561   6.990   5.864 -0.7850  0.9281 -2.1765
   78OSM     O3 6929   4.388   6.883   5.896 -0.3865  0.1554 -0.5026
   78OSM    HO3 6930   4.398   6.836   5.979  0.8584  1.9014  0.4205
   78OSM    C4S 6931   4.515   6.865   5.702  0.3090  0.3258  0.0639
   78OSM    H4S 6932   4.567   6.944   5.646 -2.2924  2.0869 -0.0301
   78OSM    C5S 6933   4.466   6.768   5.620 -0.1493  0.2662 -0.2506
   78OSM    H5S 6934   4.411   6.688   5.671  0.3751 -1.7349 -2.6288
   78OSM    C6S 6935   4.480   6.768   5.473 -0.1952 -0.6370  0.1675
   78OSM    H6S 6936   4.495   6.666   5.431  0.6704 -0.1858 -0.6813
   78OSM    H6T 6937   4.568   6.830   5.446 -0.4790  0.5862  1.9461
   78OSM    C7S 6938   4.351   6.820   5.420 -0.3105 -0.3652  0.1662
   78OSM    H7S 6939   4.317   6.912   5.472 -0.6277 -0.2977 -0.1611
   78OSM    H7T 6940   4.273   6.742   5.434 -0.8761  0.3450  1.1007
   78OSM    C8S 6941   4.369   6.859   5.265  0.8316  0.0128 -0.3749
   78OSM    H8S 6942   4.397   6.772   5.203 -1.7803 -1.2521  0.0491
   78OSM    H8T 6943   4.446   6.938   5.253  0.8995 -0.0497 -0.3528
   78OSM    C9S 6944   4.235   6.908   5.200  0.8465 -0.9202  0.1407
   78OSM    H9S 6945   4.160   6.947   5.273  0.3283  0.4708 -1.0789
   78OSM    H9T 6946   4.186   6.823   5.147 -0.2390 -0.4434  0.3393
   78OSM   C10S 6947   4.246   7.017   5.089 -0.2846 -0.6150  0.0822
   78OSM   H10S 6948   4.285   7.109   5.138  1.6678 -1.7542  0.7719
   78OSM   H10T 6949   4.146   7.050   5.053  0.3532  0.1611 -1.0433
   78OSM   C11S 6950   4.341   6.976   4.977  0.5319  0.5273 -0.1829
   78OSM   H11S 6951   4.316   6.877   4.931 -0.2393  1.1886 -1.2434
   78OSM   H11T 6952   4.441   6.975   5.025  0.4348 -0.8958  0.0521
   78OSM   C12S 6953   4.348   7.073   4.856 -0.4612 -0.7838 -0.5137
   78OSM   H12S 6954   4.399   7.169   4.879 -2.3932 -0.0646  1.0928
   78OSM   H12T 6955   4.244   7.101   4.827 -0.3926  0.8284  0.6553
   78OSM   C13S 6956   4.421   7.018   4.735 -1.1630 -0.4700 -0.6125
   78OSM   H13S 6957   4.368   6.931   4.689 -0.2782 -0.2290 -2.1685
   78OSM   H13T 6958   4.529   6.999   4.756 -1.3327 -0.3630  0.3690
   78OSM   C14S 6959   4.429   7.112   4.615 -0.6005 -0.1168  0.3553
   78OSM   H14S 6960   4.470   7.211   4.642 -1.2310  0.1213  0.4649
   78OSM   H14T 6961   4.326   7.125   4.575 -1.4127 -0.4523  2.2500
   78OSM   C15S 6962   4.523   7.070   4.500 -0.5036 -0.4120  0.2217
   78OSM   H15S 6963   4.629   7.044   4.523  0.6643  1.5317 -2.3211
   78OSM   H15T 6964   4.533   7.160   4.435  1.3299  0.2603  1.3589
   78OSM   C16S 6965   4.458   6.964   4.409 -0.1633  0.4563 -0.3049
   78OSM   H16S 6966   4.372   7.010   4.356  0.4812  0.4545 -1.3919
   78OSM   H16T 6967   4.432   6.881   4.477 -1.7152  0.8341 -0.4008
   78OSM   C17S 6968   4.535   6.917   4.288 -0.7364 -0.4848  0.1901
   78OSM   H17S 6969   4.644   6.928   4.305 -0.3641  2.4932 -3.0155
   78OSM   H17T 6970   4.519   6.985   4.202  2.6419 -0.1126 -0.2774
   78OSM   C18S 6971   4.501   6.777   4.237 -0.0948  0.7527 -0.0409
   78OSM   H18S 6972   4.543   6.757   4.136  1.0047 -0.1755  0.5753
   78OSM   H18T 6973   4.391   6.776   4.222 -0.2763  0.9650  1.2353
   78OSM   H18U 6974   4.538   6.696   4.303 -0.2179  0.9739  0.3018
   78OSM    C1F 6975   4.844   6.697   5.870 -0.1315 -0.5938 -0.2787
   78OSM     OF 6976   4.811   6.586   5.920 -0.8570 -0.3042  0.0678
   78OSM    C2F 6977   4.983   6.740   5.867  0.2303 -0.0682 -0.3423
   78OSM    H2F 6978   5.005   6.776   5.970 -0.7132 -1.3814  0.3456
   78OSM    H2G 6979   4.998   6.832   5.807  2.9844 -0.0206  0.2831
   78OSM    C3F 6980   5.089   6.626   5.834  0.3894  0.4100  0.1520
   78OSM    H3F 6981   5.096   6.559   5.922  0.9847  0.8011  0.4042
   78OSM    H3G 6982   5.183   6.683   5.824 -0.1272  1.6241  1.8094
   78OSM    C4F 6983   5.059   6.550   5.707 -0.3114 -0.6098  0.1931
   78OSM    H4F 6984   5.064   6.619   5.620  1.4948 -0.5326  0.3220
   78OSM    H4G 6985   4.955   6.512   5.712 -1.4357  2.2375  0.3522
   78OSM    C5F 6986   5.156   6.434   5.682 -0.8575 -0.1061  0.2108
   78OSM    H5F 6987   5.117   6.356   5.751 -0.7412  1.4877  2.1647
   78OSM    H5G 6988   5.263   6.461   5.697 -0.3347 -1.1468 -1.4104
   78OSM    C6F 6989   5.144   6.361   5.544  0.1085 -0.4429  0.1778
   78OSM    H6F 6990   5.048   6.383   5.492 -0.0658 -0.1813  0.6039
   78OSM    H6G 6991   5.154   6.250   5.540  0.1638 -0.4050 -1.1964
   78OSM    C7F 6992   5.254   6.409   5.437 -0.2413 -0.6355 -1.1443
   78OSM    H7F 6993   5.355   6.367   5.456  0.4695  1.2974 -0.4379
   78OSM    H7G 6994   5.264   6.518   5.455 -0.2167 -0.6914 -0.8171
   78OSM    C8F 6995   5.214   6.381   5.286  0.1117  0.2368 -0.5329
   78OSM    H8F 6996   5.265   6.449   5.216  0.4035  2.2017  1.4759
   78OSM    H8G 6997   5.105   6.404   5.283  0.4463  2.2022  0.5052
   78OSM    C9F 6998   5.247   6.239   5.246 -0.8627 -0.2157  0.5941
   78OSM    H9F 6999   5.321   6.189   5.310 -0.6847  0.6114  1.0517
   78OSM   C10F 7000   5.181   6.164   5.158 -0.0426  0.5615  0.2907
   78OSM   H10F 7001   5.193   6.056   5.145 -1.2815  0.6306 -1.9586
   78OSM   C11F 7002   5.071   6.216   5.072 -0.3091 -0.4146  0.7475
   78OSM   H11F 7003   5.049   6.320   5.104  0.8221  0.4227 -1.0339
   78OSM   H11G 7004   4.985   6.146   5.069  0.4068 -1.3837  1.9326
   78OSM   C12F 7005   5.116   6.236   4.927 -0.4124  0.0204 -0.0090
   78OSM   H12F 7006   5.213   6.289   4.916 -0.3534  0.1363  0.9261
   78OSM   H12G 7007   5.048   6.298   4.866 -1.6078 -0.8560  0.4022
   78OSM   C13F 7008   5.113   6.098   4.852 -0.0114 -0.1787  0.0177
   78OSM   H13F 7009   5.006   6.067   4.858 -0.5985  2.0214  2.5746
   78OSM   H13G 7010   5.178   6.030   4.911 -0.2131 -0.6789 -0.3199
   78OSM   C14F 7011   5.154   6.121   4.706 -0.5652 -1.1763  0.0861
   78OSM   H14F 7012   5.189   6.024   4.664  2.2388 -0.7613  1.2391
   78OSM   H14G 7013   5.243   6.186   4.697 -1.4660  0.2410  0.8936
   78OSM   C15F 7014   5.042   6.184   4.615 -0.1452  0.5923 -0.2045
   78OSM   H15F 7015   5.035   6.290   4.644 -3.2857  0.4892 -0.2869
   78OSM   H15G 7016   4.955   6.122   4.644 -0.2919 -0.1166 -2.0101
   78OSM   C16F 7017   5.074   6.164   4.464 -0.1643 -0.9303  0.2137
   78OSM   H16F 7018   5.093   6.056   4.451 -1.1841 -1.3502  1.9154
   78OSM   H16G 7019   5.171   6.212   4.438 -0.4846 -0.3385  0.0818
   78OSM   C17F 7020   4.968   6.221   4.375  0.3024  0.0763  0.2299
   78OSM   H17F 7021   4.977   6.185   4.270 -3.2704  1.5459 -0.7450
   78OSM   H17G 7022   4.984   6.330   4.367 -1.2972  0.2251 -2.3064
   78OSM   C18F 7023   4.820   6.196   4.400  0.2133 -0.3393 -0.2258
   78OSM   H18F 7024   4.796   6.088   4.411  1.2084 -0.6176 -0.6608
   78OSM   H18G 7025   4.748   6.227   4.321  0.5409  0.6384 -0.1517
   78OSM   H18H 7026   4.792   6.254   4.490  2.5656  2.7289 -1.3047
   79OSM      N 7027   4.235   4.406   1.820  0.1441 -0.3489  0.9545
   79OSM    C15 7028   4.349   4.419   1.714  1.5015  0.3829 -0.2232
   79OSM   H15A 7029   4.375   4.322   1.673 -0.6591 -1.0001  1.4868
   79OSM   H15B 7030   4.439   4.457   1.761  1.4239 -0.4887  0.6628
   79OSM   H15C 7031   4.302   4.469   1.631  0.8454 -1.3960 -0.9667
   79OSM    C14 7032   4.291   4.355   1.942  0.5155  0.0226  0.6151
   79OSM   H14A 7033   4.347   4.263   1.937 -1.9194 -1.7312  2.7449
   79OSM   H14B 7034   4.207   4.331   2.006 -0.0521 -1.5282 -0.6587
   79OSM   H14C 7035   4.353   4.429   1.991  0.3761  0.4695  0.1352
   79OSM    C13 7036   4.191   4.549   1.848  0.4717  0.2183  0.2709
   79OSM   H13A 7037   4.283   4.606   1.845  1.8820 -1.9313  0.3741
   79OSM   H13B 7038   4.154   4.558   1.950 -3.2948 -0.2448 -0.9111
   79OSM   H13C 7039   4.115   4.587   1.781  1.1008  0.4594 -0.3152
   79OSM    C12 7040   4.117   4.325   1.764  0.2342  0.1996 -0.3460
   79OSM   H12A 7041   4.136   4.225   1.727  0.2866  0.4689 -1.0746
   79OSM   H12B 7042   4.082   4.387   1.683  0.1165  0.9795  0.2948
   79OSM    C11 7043   3.992   4.318   1.858 -0.3550  0.0376  0.6001
   79OSM   H11A 7044   3.911   4.271   1.798  1.3476 -0.5440 -1.3935
   79OSM   H11B 7045   3.964   4.422   1.884 -0.7686 -0.3874  1.9096
   79OSM      P 7046   4.049   4.097   1.987 -0.3476  0.3775 -0.0935
   79OSM    O13 7047   3.955   4.042   1.891  0.6809  0.1902 -0.0094
   79OSM    O14 7048   4.193   4.061   1.968  0.3510  0.2070 -0.0800
   79OSM    O11 7049   4.003   4.055   2.131  1.1222 -0.1830 -0.0610
   79OSM    O12 7050   4.022   4.258   1.976 -0.4080 -0.2236 -0.0356
   79OSM    C1S 7051   3.985   4.170   2.224 -0.0217 -0.5034 -0.2507
   79OSM    H1S 7052   3.902   4.239   2.197 -0.3902 -0.8514 -0.0207
   79OSM    H1T 7053   4.075   4.234   2.234  1.1321 -1.8825 -1.2373
   79OSM     NF 7054   3.901   4.218   2.448 -0.0874  0.1231  0.1905
   79OSM    HNF 7055   3.957   4.252   2.524 -0.5731  1.0036  0.1648
   79OSM    C2S 7056   3.955   4.116   2.361 -0.4728  0.2114 -0.3632
   79OSM    H2S 7057   3.873   4.041   2.350 -0.9547  0.6871 -0.0939
   79OSM    C3S 7058   4.075   4.040   2.425 -0.2600 -0.4514  0.2830
   79OSM    H3S 7059   4.156   4.115   2.441  1.3744 -1.9582 -0.5026
   79OSM     O3 7060   4.134   3.944   2.337 -0.3866 -0.1564 -0.0530
   79OSM    HO3 7061   4.087   3.963   2.256 -0.2403 -0.5376 -0.2278
   79OSM    C4S 7062   4.046   3.975   2.561 -0.2701 -0.7033  0.5668
   79OSM    H4S 7063   4.043   4.046   2.645 -0.3144  0.1158 -0.1090
   79OSM    C5S 7064   4.025   3.843   2.587 -0.1050 -0.0073  0.2547
   79OSM    H5S 7065   4.033   3.766   2.509  2.1851 -1.8627  2.1831
   79OSM    C6S 7066   4.001   3.783   2.726  0.0291 -0.1068 -0.0795
   79OSM    H6S 7067   4.061   3.690   2.737 -0.4477 -0.3198  0.7410
   79OSM    H6T 7068   3.895   3.754   2.736  0.4542 -1.7625 -0.0131
   79OSM    C7S 7069   4.021   3.867   2.856 -0.4207 -0.4460 -0.0869
   79OSM    H7S 7070   3.990   3.972   2.837  1.5689  0.1960 -0.0376
   79OSM    H7T 7071   4.131   3.855   2.868 -0.1172 -0.2273 -2.1627
   79OSM    C8S 7072   3.933   3.815   2.972  0.1408 -0.4866  0.4723
   79OSM    H8S 7073   3.995   3.741   3.027  1.9260  0.7047  0.1737
   79OSM    H8T 7074   3.850   3.765   2.919 -1.0342  1.0335  0.8100
   79OSM    C9S 7075   3.884   3.917   3.075 -0.3152  0.0595 -0.3923
   79OSM    H9S 7076   3.832   3.998   3.018 -0.4137  1.1591  1.1897
   79OSM    H9T 7077   3.965   3.961   3.136 -1.6234  0.7943  0.8793
   79OSM   C10S 7078   3.775   3.865   3.168  0.2061  0.0513 -0.0168
   79OSM   H10S 7079   3.698   3.799   3.123  0.2965  0.0786 -0.2131
   79OSM   H10T 7080   3.717   3.952   3.204 -0.4788 -0.5612  0.3839
   79OSM   C11S 7081   3.838   3.778   3.287 -0.5864  0.5177 -0.2445
   79OSM   H11S 7082   3.929   3.822   3.333 -0.6717 -1.0399  1.5234
   79OSM   H11T 7083   3.879   3.687   3.237  1.1791  0.5356  1.0808
   79OSM   C12S 7084   3.738   3.731   3.391 -0.2029 -0.6059 -0.1404
   79OSM   H12S 7085   3.670   3.650   3.357 -1.3496  0.4153 -0.3756
   79OSM   H12T 7086   3.667   3.812   3.420  2.0515  0.6796  2.1984
   79OSM   C13S 7087   3.797   3.693   3.523 -0.0400  0.6792  0.6603
   79OSM   H13S 7088   3.859   3.603   3.506 -0.7167  0.4525 -0.7697
   79OSM   H13T 7089   3.720   3.664   3.598  1.6357 -1.4196  1.6608
   79OSM   C14S 7090   3.878   3.803   3.593 -0.1769  0.5478 -0.3092
   79OSM   H14S 7091   3.808   3.889   3.599 -1.4489 -0.4810 -0.2075
   79OSM   H14T 7092   3.960   3.830   3.522 -0.0150  0.8242 -0.0187
   79OSM   C15S 7093   3.931   3.752   3.728  0.5323  0.7158 -0.5469
   79OSM   H15S 7094   4.017   3.683   3.713  0.7341  0.3566  1.7659
   79OSM   H15T 7095   3.858   3.693   3.787  0.1951  2.7173  1.1868
   79OSM   C16S 7096   3.990   3.861   3.821  0.2295  0.1434  0.4760
   79OSM   H16S 7097   3.952   3.961   3.789 -1.4748 -0.3420  0.8946
   79OSM   H16T 7098   4.098   3.869   3.795  0.9210 -0.7378  2.8391
   79OSM   C17S 7099   3.972   3.845   3.967  0.2884 -0.0526 -0.7126
   79OSM   H17S 7100   3.874   3.804   4.002  0.3411  0.1433 -0.3322
   79OSM   H17T 7101   3.974   3.949   4.006  0.9978 -1.0465  2.1108
   79OSM   C18S 7102   4.072   3.766   4.050  0.0041  0.5547 -0.0981
   79OSM   H18S 7103   4.041   3.757   4.156  0.0115  2.9963  0.1793
   79OSM   H18T 7104   4.177   3.804   4.052  0.0075  0.5342  0.1280
   79OSM   H18U 7105   4.074   3.666   4.003  0.4549  1.8855 -3.1296
   79OSM    C1F 7106   3.784   4.279   2.415  1.0229  0.0872 -0.1353
   79OSM     OF 7107   3.702   4.219   2.343  0.3673 -0.2362 -1.1436
   79OSM    C2F 7108   3.753   4.414   2.470  0.5281 -0.1250 -0.6938
   79OSM    H2F 7109   3.802   4.499   2.418  0.0963  0.5470 -0.0278
   79OSM    H2G 7110   3.797   4.415   2.572  0.8191  0.5833 -0.8215
   79OSM    C3F 7111   3.599   4.432   2.484 -0.0190  0.7549  0.2321
   79OSM    H3F 7112   3.570   4.358   2.563 -0.9501 -0.2186 -0.9882
   79OSM    H3G 7113   3.547   4.419   2.387  1.0427  1.8394 -0.5065
   79OSM    C4F 7114   3.567   4.570   2.536  0.5247  0.2693 -1.0012
   79OSM    H4F 7115   3.457   4.574   2.553  0.4263  2.0397 -1.9004
   79OSM    H4G 7116   3.572   4.645   2.455 -1.7375  1.6254  0.0238
   79OSM    C5F 7117   3.629   4.619   2.663 -0.0651  0.6835 -0.0117
   79OSM    H5F 7118   3.579   4.718   2.677  0.8222  0.9689  1.3574
   79OSM    H5G 7119   3.738   4.636   2.656  0.0718 -0.2681 -0.2572
   79OSM    C6F 7120   3.610   4.531   2.791 -0.3270 -0.2059 -0.1049
   79OSM    H6F 7121   3.684   4.448   2.791 -0.7608 -0.6148  1.0325
   79OSM    H6G 7122   3.504   4.497   2.788 -0.6406  0.6390 -4.3587
   79OSM    C7F 7123   3.639   4.597   2.929  0.9766  0.2643 -0.2427
   79OSM    H7F 7124   3.574   4.687   2.937 -1.1020 -1.3249  1.8917
   79OSM    H7G 7125   3.748   4.621   2.923  1.2376 -0.3268  1.5029
   79OSM    C8F 7126   3.608   4.506   3.047 -0.0972 -0.7048 -0.6209
   79OSM    H8F 7127   3.660   4.409   3.033 -0.4050 -0.7732 -1.3645
   79OSM    H8G 7128   3.501   4.477   3.052 -0.4389  0.6375  0.4481
   79OSM    C9F 7129   3.650   4.568   3.184  0.3579 -0.5058 -0.8934
   79OSM    H9F 7130   3.746   4.540   3.231  0.2173  1.7421  0.9234
   79OSM   C10F 7131   3.583   4.657   3.260 -0.0664  1.2324  0.2523
   79OSM   H10F 7132   3.622   4.662   3.363  0.8251 -2.0805  0.1757
   79OSM   C11F 7133   3.458   4.730   3.220 -0.2930  0.6963  0.3520
   79OSM   H11F 7134   3.454   4.748   3.110 -0.8980  0.4181  0.3244
   79OSM   H11G 7135   3.456   4.831   3.265  2.6560  0.7603  0.5426
   79OSM   C12F 7136   3.323   4.657   3.242  1.0467 -0.1767 -0.0154
   79OSM   H12F 7137   3.322   4.608   3.341  1.3286  0.6003  0.3844
   79OSM   H12G 7138   3.311   4.568   3.178  1.7090  1.3340 -2.3797
   79OSM   C13F 7139   3.199   4.753   3.237 -0.0857 -0.0991 -0.2469
   79OSM   H13F 7140   3.173   4.769   3.130  0.4416  0.0242 -0.3556
   79OSM   H13G 7141   3.231   4.848   3.284  0.7978 -0.3050 -0.4298
   79OSM   C14F 7142   3.078   4.688   3.316 -0.0145 -0.4347  0.3363
   79OSM   H14F 7143   3.043   4.594   3.269  0.0578 -0.7503  0.9086
   79OSM   H14G 7144   3.000   4.763   3.295 -1.9508 -1.6274  2.7587
   79OSM   C15F 7145   3.098   4.673   3.474  0.6798  0.2159  0.1956
   79OSM   H15F 7146   3.176   4.750   3.492  0.2745  0.8779 -0.7890
   79OSM   H15G 7147   3.131   4.570   3.501  0.0563 -0.5638 -1.8531
   79OSM   C16F 7148   2.971   4.702   3.560 -0.0555  0.2617  1.3274
   79OSM   H16F 7149   2.931   4.800   3.527 -0.0557  0.0057  0.5705
   79OSM   H16G 7150   3.006   4.713   3.666  2.3867 -1.1435  0.7466
   79OSM   C17F 7151   2.874   4.585   3.557 -0.5353 -0.0813  0.1039
   79OSM   H17F 7152   2.914   4.497   3.612  2.0277  0.9867  0.0667
   79OSM   H17G 7153   2.865   4.551   3.452 -0.9869 -0.4143  0.2413
   79OSM   C18F 7154   2.736   4.616   3.611 -0.1727 -0.1241 -0.3571
   79OSM   H18F 7155   2.710   4.724   3.606  0.6919  0.2929  2.4027
   79OSM   H18G 7156   2.735   4.593   3.720  0.0813  1.0549 -0.0937
   79OSM   H18H 7157   2.658   4.557   3.558 -1.5957  1.2802  0.0922
   80OSM      N 7158   1.322   3.711   2.190  0.1809 -0.4487  0.0372
   80OSM    C15 7159   1.233   3.822   2.154 -0.1606 -0.0216  0.2288
   80OSM   H15A 7160   1.263   3.877   2.066 -1.5372  1.4333  0.6251
   80OSM   H15B 7161   1.219   3.887   2.239  1.2396  0.9615 -0.2632
   80OSM   H15C 7162   1.140   3.786   2.114  0.4948 -1.1353 -0.3514
   80OSM    C14 7163   1.456   3.775   2.208  0.5080 -0.2730 -0.6022
   80OSM   H14A 7164   1.495   3.799   2.110 -1.1986 -2.5736 -1.9454
   80OSM   H14B 7165   1.524   3.703   2.251 -0.5394 -1.8666 -1.5192
   80OSM   H14C 7166   1.445   3.860   2.274 -2.1804 -0.4345 -0.7274
   80OSM    C13 7167   1.271   3.655   2.317  0.3022  0.6209  0.2399
   80OSM   H13A 7168   1.228   3.729   2.383  0.7792 -1.1885  2.7002
   80OSM   H13B 7169   1.348   3.592   2.359 -0.7356 -0.6948  0.2117
   80OSM   H13C 7170   1.190   3.590   2.288  1.0730 -1.5913  2.6347
   80OSM    C12 7171   1.337   3.615   2.075 -0.5450  0.1467  0.1088
   80OSM   H12A 7172   1.373   3.669   1.989 -1.0237 -0.2270 -0.3272
   80OSM   H12B 7173   1.247   3.568   2.037  0.8556 -1.8369 -0.9744
   80OSM    C11 7174   1.431   3.495   2.104  0.4003  0.6800 -0.2644
   80OSM   H11A 7175   1.523   3.524   2.159  1.0575  0.3679 -1.1639
   80OSM   H11B 7176   1.469   3.455   2.007 -0.3955  2.6411 -1.4418
   80OSM      P 7177   1.248   3.309   2.145  0.0309 -0.0546  0.3248
   80OSM    O13 7178   1.124   3.392   2.132 -0.7236  0.0639 -0.0782
   80OSM    O14 7179   1.301   3.231   2.033 -0.2835  0.0843  0.5497
   80OSM    O11 7180   1.228   3.208   2.268  0.8071 -0.0378  0.1095
   80OSM    O12 7181   1.364   3.406   2.193  0.0630  0.3942  0.1547
   80OSM    C1S 7182   1.241   3.272   2.395 -0.6897 -0.3839 -0.4434
   80OSM    H1S 7183   1.156   3.342   2.410  0.8937  1.4684  0.2706
   80OSM    H1T 7184   1.335   3.328   2.410 -0.5666 -0.8403  0.5384
   80OSM     NF 7185   1.242   3.233   2.641 -0.0901 -0.3967 -0.1357
   80OSM    HNF 7186   1.314   3.204   2.704  0.2504 -1.1668 -0.8643
   80OSM    C2S 7187   1.229   3.171   2.510 -0.3316 -0.6146 -0.2657
   80OSM    H2S 7188   1.133   3.116   2.497  0.0033 -1.5645  1.0943
   80OSM    C3S 7189   1.339   3.057   2.492 -0.4217 -0.7839 -0.1286
   80OSM    H3S 7190   1.440   3.103   2.495  0.0536 -1.8171  0.1691
   80OSM     O3 7191   1.350   2.994   2.365  0.1721 -0.2325  0.2965
   80OSM    HO3 7192   1.280   3.029   2.310  0.0797  0.1722  0.6676
   80OSM    C4S 7193   1.328   2.959   2.603  0.2255  0.3237 -0.1537
   80OSM    H4S 7194   1.404   2.984   2.679 -0.7824 -0.2966  1.1162
   80OSM    C5S 7195   1.246   2.852   2.626  0.0571  0.4108 -0.2359
   80OSM    H5S 7196   1.165   2.828   2.556  2.1164 -2.6324 -1.8157
   80OSM    C6S 7197   1.251   2.762   2.742 -0.6527 -1.0126  0.2983
   80OSM    H6S 7198   1.283   2.660   2.712 -0.4041 -0.4531 -1.4788
   80OSM    H6T 7199   1.144   2.751   2.772 -0.8982 -1.1940 -0.5959
   80OSM    C7S 7200   1.324   2.815   2.869  0.2861  0.1995  0.0150
   80OSM    H7S 7201   1.281   2.915   2.892  0.5038  0.9817 -2.6280
   80OSM    H7T 7202   1.434   2.809   2.853  0.0909 -3.7585 -0.9932
   80OSM    C8S 7203   1.306   2.712   2.981  0.0996  0.3802 -0.0169
   80OSM    H8S 7204   1.333   2.611   2.943  1.1456  1.2397 -1.6383
   80OSM    H8T 7205   1.200   2.716   3.014  0.1420 -1.1270  0.3831
   80OSM    C9S 7206   1.398   2.748   3.101  0.5084  0.0991  0.0970
   80OSM    H9S 7207   1.396   2.855   3.132 -0.6949  0.3825 -0.8791
   80OSM    H9T 7208   1.500   2.735   3.058  0.5210 -0.2624  0.2331
   80OSM   C10S 7209   1.381   2.660   3.230 -0.5867  0.6567  0.9336
   80OSM   H10S 7210   1.387   2.554   3.195 -0.8630  0.4745  1.4206
   80OSM   H10T 7211   1.276   2.681   3.261 -1.1495 -1.3549  0.5620
   80OSM   C11S 7212   1.482   2.687   3.337 -0.2094 -0.4734  1.0078
   80OSM   H11S 7213   1.582   2.687   3.290  0.5461  1.8354  2.4488
   80OSM   H11T 7214   1.477   2.608   3.414  1.4509  0.2174  1.8622
   80OSM   C12S 7215   1.472   2.828   3.408  0.3615 -0.0410  0.2328
   80OSM   H12S 7216   1.368   2.844   3.443  0.3137 -0.8924  0.5173
   80OSM   H12T 7217   1.507   2.906   3.338 -1.1866  1.1003  0.6833
   80OSM   C13S 7218   1.567   2.832   3.522  0.1575  0.0170  0.2565
   80OSM   H13S 7219   1.595   2.938   3.542 -2.4741  0.5960  1.3417
   80OSM   H13T 7220   1.655   2.767   3.508  0.1118 -0.6361  2.5600
   80OSM   C14S 7221   1.503   2.784   3.650  0.1544  0.1551 -0.0339
   80OSM   H14S 7222   1.471   2.677   3.652 -1.2852  0.5490  3.2214
   80OSM   H14T 7223   1.410   2.840   3.675  1.6765  2.0131  1.7066
   80OSM   C15S 7224   1.596   2.804   3.773 -0.0522  0.3714 -0.0547
   80OSM   H15S 7225   1.535   2.810   3.866 -1.6208 -2.9723 -0.7283
   80OSM   H15T 7226   1.641   2.903   3.749  3.3291 -0.9888  0.1865
   80OSM   C16S 7227   1.699   2.689   3.791 -0.2441 -0.3201  0.0348
   80OSM   H16S 7228   1.750   2.665   3.695 -0.8584 -0.7435 -0.1949
   80OSM   H16T 7229   1.641   2.603   3.828 -3.1098 -0.1356 -3.4458
   80OSM   C17S 7230   1.814   2.733   3.886 -0.5161  0.2662 -0.1199
   80OSM   H17S 7231   1.874   2.640   3.898 -1.0908 -0.2503 -1.1337
   80OSM   H17T 7232   1.801   2.767   3.991  2.1618 -0.9193  0.6906
   80OSM   C18S 7233   1.904   2.835   3.831  0.8430 -0.1659  0.3406
   80OSM   H18S 7234   1.845   2.924   3.799  0.5338 -1.1348 -1.9904
   80OSM   H18T 7235   1.939   2.800   3.731  3.1556  3.1705 -0.2033
   80OSM   H18U 7236   2.001   2.858   3.881  1.5254 -1.1096 -0.5000
   80OSM    C1F 7237   1.158   3.323   2.699  0.7294  0.5147 -0.3367
   80OSM     OF 7238   1.058   3.365   2.643  0.0726  0.1097  0.2785
   80OSM    C2F 7239   1.174   3.353   2.848 -0.3905 -0.5777  0.8347
   80OSM    H2F 7240   1.254   3.291   2.895  1.0784  0.7281  0.1334
   80OSM    H2G 7241   1.074   3.333   2.891 -1.3108  0.0916 -0.8898
   80OSM    C3F 7242   1.209   3.509   2.862 -0.0082 -0.1288  0.4589
   80OSM    H3F 7243   1.225   3.531   2.970  2.2080  0.8531 -0.0112
   80OSM    H3G 7244   1.124   3.567   2.822 -0.1456 -0.5747  0.0976
   80OSM    C4F 7245   1.336   3.540   2.791  0.0298 -0.3431 -0.0511
   80OSM    H4F 7246   1.331   3.506   2.686  3.6780 -2.0154  0.1509
   80OSM    H4G 7247   1.423   3.494   2.842  0.4927  0.0070 -0.5095
   80OSM    C5F 7248   1.364   3.695   2.795  0.9770  0.3327  0.4365
   80OSM    H5F 7249   1.280   3.734   2.732 -0.3682 -1.4512  1.0254
   80OSM    H5G 7250   1.463   3.719   2.752  0.6205  1.3220  0.1299
   80OSM    C6F 7251   1.348   3.759   2.938  0.0943 -0.0346 -0.7832
   80OSM    H6F 7252   1.246   3.743   2.981  0.8815 -0.1564  1.1540
   80OSM    H6G 7253   1.368   3.867   2.922  1.4203 -0.3560 -1.4304
   80OSM    C7F 7254   1.444   3.706   3.044 -0.2264 -0.1970  0.2135
   80OSM    H7F 7255   1.543   3.730   2.999  0.1542  1.2271  1.7290
   80OSM    H7G 7256   1.429   3.598   3.065 -0.7332  0.2365  2.3034
   80OSM    C8F 7257   1.425   3.781   3.177 -0.0650  0.8409  0.4601
   80OSM    H8F 7258   1.316   3.775   3.196 -0.3411 -1.2054 -1.2951
   80OSM    H8G 7259   1.466   3.884   3.169 -1.8058  1.5384  0.1553
   80OSM    C9F 7260   1.517   3.728   3.283  0.0304 -0.3739  0.1750
   80OSM    H9F 7261   1.617   3.709   3.241  0.9599  1.2947  1.5208
   80OSM   C10F 7262   1.501   3.705   3.416  0.2303  0.5832  0.4353
   80OSM   H10F 7263   1.591   3.673   3.472  0.7854  2.2218  0.5393
   80OSM   C11F 7264   1.370   3.715   3.494  0.1424  0.1221  0.1027
   80OSM   H11F 7265   1.337   3.610   3.509 -0.3062  0.1280 -0.7762
   80OSM   H11G 7266   1.283   3.766   3.448 -0.0186  1.5093  1.8379
   80OSM   C12F 7267   1.381   3.779   3.630  0.0206 -0.8885  0.1050
   80OSM   H12F 7268   1.483   3.772   3.673  0.6575  2.1025 -0.6730
   80OSM   H12G 7269   1.307   3.741   3.703  0.1034 -2.3097 -0.5300
   80OSM   C13F 7270   1.349   3.930   3.613 -0.0194 -0.0360 -0.2194
   80OSM   H13F 7271   1.245   3.924   3.575 -0.5087 -1.1985  1.2027
   80OSM   H13G 7272   1.421   3.980   3.545 -2.0817 -0.0784 -2.5774
   80OSM   C14F 7273   1.348   4.003   3.743  1.0257  0.1802  0.3465
   80OSM   H14F 7274   1.455   4.024   3.762  1.1660 -1.6811  1.9580
   80OSM   H14G 7275   1.308   3.933   3.820  0.6459 -0.8536 -0.7447
   80OSM   C15F 7276   1.271   4.137   3.747 -0.0658  0.2665 -0.0194
   80OSM   H15F 7277   1.268   4.168   3.854  2.4405  2.7095 -0.5327
   80OSM   H15G 7278   1.165   4.130   3.713  0.5983 -2.7192 -1.7225
   80OSM   C16F 7279   1.344   4.252   3.670 -0.1957 -0.3289 -0.4408
   80OSM   H16F 7280   1.367   4.212   3.568  1.6120 -0.4440 -0.0299
   80OSM   H16G 7281   1.444   4.273   3.713 -2.0076  0.9767  3.5770
   80OSM   C17F 7282   1.259   4.377   3.662  0.4975  0.0048 -0.0682
   80OSM   H17F 7283   1.159   4.356   3.619 -0.1035 -1.1718  1.7526
   80OSM   H17G 7284   1.315   4.449   3.599  1.3452  1.1418  1.8793
   80OSM   C18F 7285   1.232   4.429   3.803  0.5091 -0.1587  0.6579
   80OSM   H18F 7286   1.184   4.528   3.790  0.1627 -0.2470  1.2134
   80OSM   H18G 7287   1.324   4.443   3.864  2.0055 -3.9638 -0.4184
   80OSM   H18H 7288   1.171   4.360   3.865 -0.4030  1.0314  1.1263
   81OSM      N 7289   3.428   2.230   1.831  0.2404 -0.2160 -0.0111
   81OSM    C15 7290   3.467   2.168   1.699 -0.5875  0.5043  0.6546
   81OSM   H15A 7291   3.553   2.105   1.712  0.8661  1.8025 -1.7843
   81OSM   H15B 7292   3.497   2.240   1.624 -1.4018 -1.3928 -1.6411
   81OSM   H15C 7293   3.391   2.112   1.646  0.6151  0.7635 -1.4453
   81OSM    C14 7294   3.520   2.347   1.846 -0.0713  0.4939  0.2493
   81OSM   H14A 7295   3.516   2.409   1.758  0.0972 -0.4865 -0.4713
   81OSM   H14B 7296   3.617   2.299   1.853 -0.9961 -1.3247  1.6138
   81OSM   H14C 7297   3.508   2.406   1.936 -1.8835 -0.2393  0.5349
   81OSM    C13 7298   3.286   2.273   1.811  0.1617  0.1478  0.4296
   81OSM   H13A 7299   3.274   2.362   1.871  2.6079  0.1291  1.0515
   81OSM   H13B 7300   3.216   2.195   1.835 -0.1687  0.5316  0.7147
   81OSM   H13C 7301   3.267   2.310   1.711 -2.0586  1.8976  1.4163
   81OSM    C12 7302   3.437   2.134   1.949  0.5284  0.2443 -0.1323
   81OSM   H12A 7303   3.396   2.039   1.917  2.7738 -0.7514 -0.2856
   81OSM   H12B 7304   3.381   2.168   2.035  2.6896  1.2129  0.9645
   81OSM    C11 7305   3.574   2.101   2.001 -0.5298  0.1410 -0.3274
   81OSM   H11A 7306   3.554   2.031   2.085 -1.6508  0.9672  0.1208
   81OSM   H11B 7307   3.615   2.191   2.051 -2.9658  0.2596  1.5984
   81OSM      P 7308   3.820   2.037   1.951  0.2563 -0.4671  0.1916
   81OSM    O13 7309   3.868   1.907   1.904 -0.2072 -0.5615 -0.0414
   81OSM    O14 7310   3.888   2.165   1.922  0.4442 -0.0732 -0.1818
   81OSM    O11 7311   3.827   2.034   2.107  0.3271  0.4965 -0.7776
   81OSM    O12 7312   3.666   2.041   1.906  0.4376  0.3139  0.1470
   81OSM    C1S 7313   3.814   1.914   2.185  0.3660  0.1923 -0.1389
   81OSM    H1S 7314   3.892   1.838   2.163 -1.5597 -2.2253  0.9278
   81OSM    H1T 7315   3.720   1.863   2.156  1.1567 -0.8525 -0.9725
   81OSM     NF 7316   3.810   1.801   2.396  0.3907  0.0852 -0.1029
   81OSM    HNF 7317   3.718   1.770   2.417  0.6941 -1.6807 -1.1401
   81OSM    C2S 7318   3.823   1.940   2.341  0.2009 -0.1458 -0.2564
   81OSM    H2S 7319   3.926   1.978   2.362  0.6691 -1.3415 -0.2981
   81OSM    C3S 7320   3.714   2.041   2.384  0.2066  0.0934 -0.1991
   81OSM    H3S 7321   3.615   1.993   2.365  0.1798  0.7127 -1.7960
   81OSM     O3 7322   3.710   2.158   2.302 -0.4814  0.3031  0.3452
   81OSM    HO3 7323   3.755   2.137   2.220 -2.1904  0.3413 -0.6363
   81OSM    C4S 7324   3.730   2.080   2.527 -0.2450 -0.1685  1.0963
   81OSM    H4S 7325   3.674   2.008   2.588  2.1103 -2.1262  1.0972
   81OSM    C5S 7326   3.798   2.183   2.578 -0.9349 -0.9112 -0.1206
   81OSM    H5S 7327   3.849   2.255   2.513  0.2170 -0.3149  1.3753
   81OSM    C6S 7328   3.813   2.215   2.721  0.2997 -0.1266 -0.5366
   81OSM    H6S 7329   3.764   2.313   2.742  0.9582  0.0414  0.2522
   81OSM    H6T 7330   3.920   2.229   2.746  0.3924 -2.4415  0.6231
   81OSM    C7S 7331   3.752   2.115   2.813 -0.6767  0.1981  0.0658
   81OSM    H7S 7332   3.781   2.009   2.800 -0.2211  0.3394 -0.0736
   81OSM    H7T 7333   3.641   2.106   2.802 -0.6741  0.7817 -0.4547
   81OSM    C8S 7334   3.778   2.148   2.958  0.0766  0.3176  0.1108
   81OSM    H8S 7335   3.732   2.246   2.981  2.5061  2.0667 -1.9576
   81OSM    H8T 7336   3.887   2.148   2.979  0.3172 -0.6562 -0.9923
   81OSM    C9S 7337   3.709   2.038   3.037 -0.2509  0.0952 -0.1236
   81OSM    H9S 7338   3.741   1.939   2.999 -2.5935 -0.5844 -0.5158
   81OSM    H9T 7339   3.602   2.051   3.006 -1.1939 -0.5725  2.6071
   81OSM   C10S 7340   3.724   2.040   3.190 -0.6784 -0.6712 -0.7166
   81OSM   H10S 7341   3.678   2.132   3.231 -0.6080 -1.0342  0.1979
   81OSM   H10T 7342   3.831   2.027   3.218 -0.5992  1.5797  0.2518
   81OSM   C11S 7343   3.657   1.921   3.258  0.0348 -0.4285  0.3331
   81OSM   H11S 7344   3.681   1.823   3.211 -1.5119  0.2882 -2.1160
   81OSM   H11T 7345   3.546   1.921   3.246  0.0927  0.1845 -0.2313
   81OSM   C12S 7346   3.685   1.914   3.409  0.1409 -0.2819  0.8704
   81OSM   H12S 7347   3.622   1.995   3.451  1.6792  1.6930 -0.4739
   81OSM   H12T 7348   3.792   1.940   3.419  0.7197 -1.4120 -1.5629
   81OSM   C13S 7349   3.645   1.778   3.464  0.0962  0.2899  0.0094
   81OSM   H13S 7350   3.708   1.695   3.428  0.4842  1.2319 -1.5818
   81OSM   H13T 7351   3.549   1.749   3.415 -0.0086  2.7125 -1.3964
   81OSM   C14S 7352   3.625   1.767   3.618 -0.6958 -0.1802 -0.4131
   81OSM   H14S 7353   3.631   1.657   3.637  0.8724  0.0913  0.8294
   81OSM   H14T 7354   3.528   1.810   3.651 -1.7800 -2.3395 -0.6184
   81OSM   C15S 7355   3.741   1.840   3.686 -0.1335  0.2659  0.8010
   81OSM   H15S 7356   3.739   1.946   3.654 -1.0543  0.5303  1.6773
   81OSM   H15T 7357   3.828   1.784   3.646 -2.0548  0.1869 -3.8233
   81OSM   C16S 7358   3.728   1.834   3.840 -0.2001 -0.0304 -0.3997
   81OSM   H16S 7359   3.733   1.728   3.875  1.8003 -0.1594 -0.9439
   81OSM   H16T 7360   3.624   1.872   3.850 -0.1216  0.4541 -1.3085
   81OSM   C17S 7361   3.831   1.902   3.925  0.5529 -0.5029  0.0988
   81OSM   H17S 7362   3.835   2.007   3.891 -0.0648 -0.6884 -0.5655
   81OSM   H17T 7363   3.932   1.862   3.903  0.7547 -0.1179  0.3165
   81OSM   C18S 7364   3.808   1.902   4.080  0.0507  0.2437 -0.2505
   81OSM   H18S 7365   3.818   1.797   4.117  1.1449  0.2884 -0.3920
   81OSM   H18T 7366   3.705   1.927   4.114 -0.4997 -1.4540 -0.5362
   81OSM   H18U 7367   3.879   1.960   4.142  0.2425 -1.0237  0.7547
   81OSM    C1F 7368   3.907   1.706   2.384  1.1981  0.1207 -0.9294
   81OSM     OF 7369   4.015   1.729   2.332  0.5739 -0.1821  0.0208
   81OSM    C2F 7370   3.855   1.583   2.440 -0.1541 -0.1587 -0.3786
   81OSM    H2F 7371   3.867   1.513   2.355  1.2010  1.3288 -1.4751
   81OSM    H2G 7372   3.748   1.586   2.470 -0.4081 -2.5666 -0.8301
   81OSM    C3F 7373   3.943   1.529   2.561  0.5646 -0.0869  0.1235
   81OSM    H3F 7374   4.051   1.514   2.541  0.5773 -0.0938  0.1964
   81OSM    H3G 7375   3.916   1.426   2.591  1.6340 -0.3219  0.2904
   81OSM    C4F 7376   3.920   1.611   2.689 -0.2660 -0.1145 -0.3747
   81OSM    H4F 7377   3.813   1.638   2.704 -0.0222  1.5187 -1.3269
   81OSM    H4G 7378   3.972   1.709   2.684  0.0932 -0.2300  0.8435
   81OSM    C5F 7379   3.979   1.546   2.809 -0.2037  0.5289 -0.4707
   81OSM    H5F 7380   4.086   1.536   2.782 -0.6767 -1.7066 -1.7932
   81OSM    H5G 7381   3.941   1.443   2.825 -1.0390  0.9952  0.7173
   81OSM    C6F 7382   3.956   1.619   2.946  0.3576  0.4019  0.3444
   81OSM    H6F 7383   3.855   1.589   2.983 -0.3017  1.9409 -0.0964
   81OSM    H6G 7384   3.955   1.726   2.916 -0.5316  0.1295 -0.7026
   81OSM    C7F 7385   4.066   1.577   3.043  0.6488 -0.3093 -0.0944
   81OSM    H7F 7386   4.164   1.599   2.995  0.2743  0.7329 -0.4211
   81OSM    H7G 7387   4.057   1.468   3.062 -2.1006 -0.4626 -1.8029
   81OSM    C8F 7388   4.042   1.650   3.179 -0.5677  0.0095 -0.0921
   81OSM    H8F 7389   4.003   1.749   3.147  0.6570  0.2555 -0.8795
   81OSM    H8G 7390   4.139   1.679   3.225 -1.5795  2.4083  0.7228
   81OSM    C9F 7391   3.958   1.584   3.281 -0.3527 -0.5012 -0.4197
   81OSM    H9F 7392   3.849   1.580   3.264 -0.4221  2.4223 -1.1992
   81OSM   C10F 7393   3.996   1.544   3.405 -0.7960 -0.6096 -0.4118
   81OSM   H10F 7394   3.919   1.503   3.472 -1.1160 -0.9859 -0.9991
   81OSM   C11F 7395   4.135   1.547   3.458  0.5291  0.0814 -0.4174
   81OSM   H11F 7396   4.190   1.639   3.429 -0.7548  0.0964 -3.1350
   81OSM   H11G 7397   4.199   1.473   3.407 -1.0740 -1.0910 -0.8041
   81OSM   C12F 7398   4.137   1.520   3.617  0.5089  0.6623 -0.1644
   81OSM   H12F 7399   4.114   1.412   3.626 -0.8434  0.9252 -0.3654
   81OSM   H12G 7400   4.057   1.581   3.663  0.5421 -0.2057  1.0776
   81OSM   C13F 7401   4.265   1.557   3.689  0.4385  0.2752  0.2763
   81OSM   H13F 7402   4.291   1.658   3.651 -0.5698 -0.0740 -1.4763
   81OSM   H13G 7403   4.347   1.487   3.663 -0.0417 -0.6900  1.2812
   81OSM   C14F 7404   4.247   1.565   3.840 -0.3673  0.6113 -0.4584
   81OSM   H14F 7405   4.207   1.473   3.889 -0.0465  0.9273  0.4238
   81OSM   H14G 7406   4.180   1.654   3.846 -1.6607 -0.2337 -1.7489
   81OSM   C15F 7407   4.377   1.603   3.913 -0.2819 -0.1771 -0.4616
   81OSM   H15F 7408   4.417   1.702   3.883  1.8048 -0.6425  0.5885
   81OSM   H15G 7409   4.454   1.529   3.882 -0.1611 -0.6053  0.8029
   81OSM   C16F 7410   4.367   1.607   4.066 -0.4861  0.1087  0.1644
   81OSM   H16F 7411   4.331   1.511   4.107 -1.0753  0.2872  0.0788
   81OSM   H16G 7412   4.302   1.696   4.085 -0.7509 -0.1509  0.4889
   81OSM   C17F 7413   4.504   1.632   4.123 -0.2753  0.2976 -0.1632
   81OSM   H17F 7414   4.544   1.718   4.064  0.1376  0.2188 -0.0056
   81OSM   H17G 7415   4.570   1.544   4.110 -0.7845 -0.3883  1.5717
   81OSM   C18F 7416   4.519   1.652   4.273  0.1896  0.5653 -0.3465
   81OSM   H18F 7417   4.461   1.575   4.328 -2.3575  0.8729 -2.3800
   81OSM   H18G 7418   4.487   1.755   4.300 -0.4051  0.2715  0.1071
   81OSM   H18H 7419   4.626   1.651   4.303 -0.3264  1.1125  1.7128
   82OSM      N 7420   3.909   2.554   2.062 -0.2973 -0.3454  0.8480
   82OSM    C15 7421   4.056   2.550   2.019 -0.6543  0.0104 -0.6217
   82OSM   H15A 7422   4.125   2.518   2.096 -0.5859  0.4057 -0.5156
   82OSM   H15B 7423   4.084   2.650   1.991 -3.0876  1.0151  0.3440
   82OSM   H15C 7424   4.055   2.476   1.940  0.0965 -1.5545  0.7605
   82OSM    C14 7425   3.887   2.416   2.103  0.2090  1.1318  0.6310
   82OSM   H14A 7426   3.915   2.341   2.031 -2.7649  0.4299  0.0793
   82OSM   H14B 7427   3.782   2.402   2.124  0.3426 -3.3309 -0.6578
   82OSM   H14C 7428   3.933   2.395   2.199 -0.8472 -0.3109  0.8643
   82OSM    C13 7429   3.885   2.652   2.176 -0.1937 -0.2441 -0.7948
   82OSM   H13A 7430   3.960   2.630   2.251 -0.6112  1.9729  0.3495
   82OSM   H13B 7431   3.792   2.637   2.229  0.9646 -1.1826  1.0850
   82OSM   H13C 7432   3.888   2.757   2.152  0.1907  0.2435  1.1945
   82OSM    C12 7433   3.828   2.595   1.935 -0.3413  0.3623  0.5177
   82OSM   H12A 7434   3.722   2.595   1.953 -0.1556  0.9825  1.7298
   82OSM   H12B 7435   3.844   2.509   1.872 -0.9420 -0.8622  2.0018
   82OSM    C11 7436   3.862   2.725   1.860  0.3874 -0.2308  0.0372
   82OSM   H11A 7437   3.809   2.732   1.763  1.5117  3.3290 -0.4743
   82OSM   H11B 7438   3.968   2.729   1.826  0.0872  0.4713 -0.8488
   82OSM      P 7439   3.690   2.909   1.932  0.0115  0.2455  0.1496
   82OSM    O13 7440   3.701   3.056   1.935  0.2122 -0.1497 -0.3218
   82OSM    O14 7441   3.601   2.847   1.830 -0.0790 -0.6693 -0.3428
   82OSM    O11 7442   3.641   2.862   2.072  0.1260  0.0832  0.2301
   82OSM    O12 7443   3.834   2.845   1.933 -0.2498 -0.2554 -0.2571
   82OSM    C1S 7444   3.521   2.781   2.078 -0.1261  0.7170  0.1075
   82OSM    H1S 7445   3.530   2.693   2.012  0.6590 -0.1302  1.3131
   82OSM    H1T 7446   3.441   2.843   2.032 -1.0374 -1.5495 -1.5648
   82OSM     NF 7447   3.386   2.637   2.216 -0.1014  0.2524 -0.7115
   82OSM    HNF 7448   3.298   2.676   2.243  1.0190  1.2969  1.7426
   82OSM    C2S 7449   3.484   2.740   2.219 -1.1141  0.5831 -0.4193
   82OSM    H2S 7450   3.579   2.706   2.265 -1.7409  0.9376  1.2331
   82OSM    C3S 7451   3.452   2.869   2.305 -1.1230  0.3482  0.4794
   82OSM    H3S 7452   3.353   2.909   2.274 -1.8568  0.5231  2.8327
   82OSM     O3 7453   3.550   2.970   2.301  0.2109 -0.0625 -0.1071
   82OSM    HO3 7454   3.598   2.930   2.228 -0.0968 -2.4246  0.8929
   82OSM    C4S 7455   3.438   2.827   2.446  0.0254 -0.6385  0.8677
   82OSM    H4S 7456   3.339   2.853   2.488 -0.1861  0.7105 -0.3832
   82OSM    C5S 7457   3.534   2.770   2.518  0.1425 -0.1650  0.5579
   82OSM    H5S 7458   3.641   2.760   2.493  0.5966 -2.2989  2.9526
   82OSM    C6S 7459   3.512   2.735   2.664 -0.2069 -0.1251  0.2683
   82OSM    H6S 7460   3.410   2.696   2.682 -0.7977  0.7535 -1.0970
   82OSM    H6T 7461   3.520   2.833   2.715 -0.0898  0.2883 -0.5337
   82OSM    C7S 7462   3.604   2.626   2.714 -0.7152  0.5153  0.0314
   82OSM    H7S 7463   3.698   2.667   2.758 -0.9697 -1.1623  2.3530
   82OSM    H7T 7464   3.641   2.569   2.625  0.5581  0.9827  0.2320
   82OSM    C8S 7465   3.548   2.537   2.822 -0.0928 -0.3618 -0.3435
   82OSM    H8S 7466   3.630   2.462   2.829  1.1299  0.9961  0.3276
   82OSM    H8T 7467   3.451   2.488   2.799  0.1390 -2.2790  2.2955
   82OSM    C9S 7468   3.534   2.604   2.955 -0.1536  0.1364 -0.8786
   82OSM    H9S 7469   3.469   2.694   2.945 -1.8685 -0.9168  0.2776
   82OSM    H9T 7470   3.639   2.630   2.981 -0.0958 -1.5583  0.7770
   82OSM   C10S 7471   3.477   2.501   3.052  0.0744  0.3060 -0.3198
   82OSM   H10S 7472   3.551   2.418   3.053  0.2042  0.4201  0.5999
   82OSM   H10T 7473   3.379   2.455   3.028 -0.4182  0.1998  1.6503
   82OSM   C11S 7474   3.466   2.557   3.190  0.5116 -0.2068 -0.0382
   82OSM   H11S 7475   3.383   2.630   3.197  1.0266  0.2374  2.7531
   82OSM   H11T 7476   3.562   2.610   3.206  0.3919  0.1120 -0.3645
   82OSM   C12S 7477   3.444   2.445   3.297 -0.0357  0.2944  0.1271
   82OSM   H12S 7478   3.524   2.373   3.270 -1.5939 -0.2650 -3.6059
   82OSM   H12T 7479   3.343   2.410   3.268 -1.3157  2.8488  1.2084
   82OSM   C13S 7480   3.448   2.469   3.445  0.1070  0.2179 -0.1986
   82OSM   H13S 7481   3.363   2.537   3.468  0.5283  0.0703  1.9949
   82OSM   H13T 7482   3.535   2.528   3.482  1.7016 -2.4664  0.5887
   82OSM   C14S 7483   3.425   2.336   3.513  0.1606  0.1902  0.3845
   82OSM   H14S 7484   3.505   2.263   3.490  0.7523 -0.1207  3.0092
   82OSM   H14T 7485   3.329   2.303   3.467  1.3777 -3.2370 -0.0077
   82OSM   C15S 7486   3.394   2.359   3.662 -0.2142 -0.1253 -0.5666
   82OSM   H15S 7487   3.368   2.269   3.722  0.3275  0.5229  0.6823
   82OSM   H15T 7488   3.316   2.434   3.688 -1.1209 -0.9039 -0.9917
   82OSM   C16S 7489   3.512   2.432   3.736 -0.1890  0.8895  0.1092
   82OSM   H16S 7490   3.515   2.542   3.725  0.5012  0.8428 -0.2069
   82OSM   H16T 7491   3.613   2.399   3.705  0.5357  1.9710  1.2239
   82OSM   C17S 7492   3.504   2.408   3.885  0.2420 -0.5080 -0.3398
   82OSM   H17S 7493   3.502   2.300   3.911  0.5459 -0.1951  1.0588
   82OSM   H17T 7494   3.414   2.451   3.935  0.6734  2.3313 -1.8225
   82OSM   C18S 7495   3.628   2.476   3.955  0.4582  0.0329  0.5165
   82OSM   H18S 7496   3.625   2.461   4.065 -0.6749 -0.1532  0.4762
   82OSM   H18T 7497   3.625   2.583   3.926  0.6370 -0.0290  0.2669
   82OSM   H18U 7498   3.724   2.440   3.912 -0.2536  0.4466 -1.5473
   82OSM    C1F 7499   3.411   2.506   2.183  0.6137  0.3343 -0.1215
   82OSM     OF 7500   3.509   2.471   2.119  0.1332 -0.0729 -0.1118
   82OSM    C2F 7501   3.295   2.410   2.206 -0.7295  0.4362 -0.0699
   82OSM    H2F 7502   3.277   2.365   2.106  1.3523  0.6489 -0.5915
   82OSM    H2G 7503   3.204   2.467   2.235 -0.2951 -0.1481  2.7841
   82OSM    C3F 7504   3.336   2.306   2.313 -0.1204  0.2315 -0.0888
   82OSM    H3F 7505   3.424   2.247   2.279 -0.4154 -0.0264 -0.4195
   82OSM    H3G 7506   3.251   2.234   2.318  0.3040 -0.2708 -0.0347
   82OSM    C4F 7507   3.369   2.357   2.456 -0.5976  0.5556  0.4838
   82OSM    H4F 7508   3.290   2.423   2.496 -1.1775  0.4616 -0.4516
   82OSM    H4G 7509   3.451   2.430   2.445 -0.6478  0.5580  0.0864
   82OSM    C5F 7510   3.412   2.256   2.560 -0.2726 -0.5839  0.2504
   82OSM    H5F 7511   3.494   2.303   2.618  0.0531  3.0623 -2.7888
   82OSM    H5G 7512   3.464   2.179   2.499  1.0714  1.0256 -0.6960
   82OSM    C6F 7513   3.300   2.192   2.648 -0.3885  0.4132  0.1360
   82OSM    H6F 7514   3.230   2.145   2.576 -2.6375  5.3861 -1.3186
   82OSM    H6G 7515   3.237   2.268   2.698  1.4006  1.5237  0.8071
   82OSM    C7F 7516   3.340   2.087   2.758  1.2507 -0.1574 -0.2544
   82OSM    H7F 7517   3.410   2.137   2.828  2.9305 -3.2057  0.3964
   82OSM    H7G 7518   3.385   1.995   2.715  0.6397 -0.0804 -1.0932
   82OSM    C8F 7519   3.209   2.042   2.831 -0.3453 -0.2180  0.0033
   82OSM    H8F 7520   3.228   1.949   2.888 -0.4779 -0.4742 -0.3737
   82OSM    H8G 7521   3.125   2.008   2.769 -0.9351  0.0956  0.6156
   82OSM    C9F 7522   3.160   2.144   2.934  0.5290 -0.2386 -0.1609
   82OSM    H9F 7523   3.052   2.165   2.932  0.3613 -0.9980  0.3461
   82OSM   C10F 7524   3.218   2.169   3.055 -0.4679  0.5692  0.1684
   82OSM   H10F 7525   3.164   2.247   3.112 -0.3025  1.9571 -1.4946
   82OSM   C11F 7526   3.322   2.108   3.134 -0.2085  0.1212  0.1984
   82OSM   H11F 7527   3.405   2.179   3.154 -0.4215 -0.1669  2.4656
   82OSM   H11G 7528   3.362   2.016   3.087 -0.1314  0.6015 -0.6903
   82OSM   C12F 7529   3.272   2.074   3.277 -0.0838 -0.5348 -0.1380
   82OSM   H12F 7530   3.188   2.143   3.299  0.7744  0.0562  1.4335
   82OSM   H12G 7531   3.361   2.079   3.344 -0.9035  1.7313  0.8474
   82OSM   C13F 7532   3.219   1.930   3.286  0.2912 -0.7123  0.4460
   82OSM   H13F 7533   3.301   1.859   3.267  1.9379  1.0665  0.5853
   82OSM   H13G 7534   3.135   1.911   3.216  2.1483 -1.6567 -1.6148
   82OSM   C14F 7535   3.164   1.893   3.423 -0.8328  0.6058  0.0885
   82OSM   H14F 7536   3.144   1.784   3.430  1.6009  0.0622 -0.4790
   82OSM   H14G 7537   3.067   1.944   3.441 -0.9349 -0.3962  2.9973
   82OSM   C15F 7538   3.260   1.938   3.539  0.6660  0.2265  0.9418
   82OSM   H15F 7539   3.243   2.048   3.549 -0.0326  0.1092  1.1074
   82OSM   H15G 7540   3.367   1.919   3.517  0.3388 -0.1311 -0.4657
   82OSM   C16F 7541   3.247   1.875   3.671  0.3639  0.1781  0.2470
   82OSM   H16F 7542   3.292   1.774   3.672  0.7791  0.2853  3.9184
   82OSM   H16G 7543   3.138   1.870   3.694 -0.1380  1.0668 -1.6897
   82OSM   C17F 7544   3.315   1.949   3.787 -0.2851 -0.5561 -0.5806
   82OSM   H17F 7545   3.253   2.037   3.815 -0.1752 -0.8476  0.6265
   82OSM   H17G 7546   3.418   1.977   3.755  0.1672 -1.9303 -0.4020
   82OSM   C18F 7547   3.334   1.854   3.907 -0.4249 -0.2755 -0.5926
   82OSM   H18F 7548   3.236   1.818   3.946  0.3531 -0.1240  1.6326
   82OSM   H18G 7549   3.378   1.912   3.992 -1.3657  1.3814 -1.1855
   82OSM   H18H 7550   3.395   1.766   3.878  1.7427  1.5756 -2.0098
   83OSM      N 7551   0.299   3.200   1.962  0.4026  0.0866  0.0404
   83OSM    C15 7552   0.160   3.222   1.918 -0.5878 -0.3833  0.3581
   83OSM   H15A 7553   0.149   3.204   1.812  0.4608 -1.0346  0.3368
   83OSM   H15B 7554   0.134   3.324   1.940  0.5319 -0.3640  1.7455
   83OSM   H15C 7555   0.102   3.149   1.972 -0.2226 -1.1536 -0.2599
   83OSM    C14 7556   0.346   3.072   1.895 -0.5008  0.2552  0.2730
   83OSM   H14A 7557   0.352   3.095   1.790 -1.3999  1.2947  0.4390
   83OSM   H14B 7558   0.273   2.994   1.905 -0.2573 -0.3702 -2.2414
   83OSM   H14C 7559   0.445   3.046   1.931 -1.5171 -0.7524  2.4964
   83OSM    C13 7560   0.380   3.319   1.918  0.0277 -0.0402  0.0850
   83OSM   H13A 7561   0.332   3.415   1.936  1.8490  1.4407 -2.2926
   83OSM   H13B 7562   0.402   3.310   1.813  0.7268 -0.2502  0.2401
   83OSM   H13C 7563   0.476   3.324   1.968  0.9237  1.4706 -1.6674
   83OSM    C12 7564   0.297   3.196   2.117 -0.5712 -0.0045  0.0407
   83OSM   H12A 7565   0.269   3.296   2.146 -0.2134 -0.4764  2.2583
   83OSM   H12B 7566   0.402   3.183   2.137  0.3241  0.2131 -3.8076
   83OSM    C11 7567   0.200   3.101   2.186 -0.6512  0.7233  0.4129
   83OSM   H11A 7568   0.099   3.124   2.146 -0.5772 -0.5689 -0.5920
   83OSM   H11B 7569   0.196   3.129   2.293  0.1383  2.2756  0.0727
   83OSM      P 7570   0.332   2.883   2.228 -0.0189  0.1910  0.1154
   83OSM    O13 7571   0.287   2.744   2.252  0.2758  0.2850 -0.1591
   83OSM    O14 7572   0.461   2.897   2.156  0.2636 -0.3190  0.3442
   83OSM    O11 7573   0.350   2.957   2.362 -0.0074 -0.0449 -0.2684
   83OSM    O12 7574   0.215   2.965   2.162  0.0373  0.0477  0.2024
   83OSM    C1S 7575   0.455   3.045   2.402 -0.2545 -0.1365  0.2674
   83OSM    H1S 7576   0.444   3.136   2.339  3.9656 -0.4287 -1.1752
   83OSM    H1T 7577   0.554   3.005   2.373  0.0979  0.6001  0.4388
   83OSM     NF 7578   0.554   3.188   2.578  0.0202 -0.1370 -0.0653
   83OSM    HNF 7579   0.621   3.165   2.648 -0.0991 -0.5433 -0.0831
   83OSM    C2S 7580   0.447   3.092   2.545 -0.5153  0.1373 -0.1622
   83OSM    H2S 7581   0.348   3.141   2.559  0.2104  2.4313 -2.2771
   83OSM    C3S 7582   0.450   2.958   2.637  0.0347 -0.2213  0.7861
   83OSM    H3S 7583   0.543   2.903   2.612 -0.2913  0.8126 -3.5685
   83OSM     O3 7584   0.349   2.861   2.601 -0.2103 -0.4925  0.0047
   83OSM    HO3 7585   0.327   2.869   2.508 -0.3586  0.1115  0.0913
   83OSM    C4S 7586   0.429   2.996   2.781  0.4307  0.2921 -0.4225
   83OSM    H4S 7587   0.528   3.004   2.828 -0.0673  1.1182  0.5228
   83OSM    C5S 7588   0.314   3.022   2.852  0.2681  0.0047 -0.3747
   83OSM    H5S 7589   0.216   3.030   2.802  0.9590  0.7441 -1.6810
   83OSM    C6S 7590   0.320   3.052   3.004  0.8548  0.2394 -0.9733
   83OSM    H6S 7591   0.261   2.975   3.058 -1.0201  1.1914 -1.5595
   83OSM    H6T 7592   0.260   3.146   3.007  0.9982  0.3134  0.6043
   83OSM    C7S 7593   0.451   3.066   3.082  0.1269 -0.5041 -0.5738
   83OSM    H7S 7594   0.511   3.146   3.033 -1.5005  1.0681 -0.0833
   83OSM    H7T 7595   0.488   2.961   3.086 -2.1649 -1.3592 -0.4841
   83OSM    C8S 7596   0.445   3.096   3.236  0.0691 -0.7457  0.6400
   83OSM    H8S 7597   0.378   3.030   3.295  0.6831 -0.5725  1.5550
   83OSM    H8T 7598   0.412   3.202   3.236  1.1689 -0.3758 -0.4909
   83OSM    C9S 7599   0.586   3.085   3.290 -1.2222 -0.2541 -0.0209
   83OSM    H9S 7600   0.654   3.144   3.225 -1.7312 -0.3016 -0.6007
   83OSM    H9T 7601   0.628   2.983   3.298  0.6439  0.2838 -1.8617
   83OSM   C10S 7602   0.605   3.158   3.432  0.1929  0.0274 -0.2148
   83OSM   H10S 7603   0.566   3.260   3.417 -0.7151 -0.1720  0.6563
   83OSM   H10T 7604   0.712   3.164   3.460 -0.1944  1.6605  1.0565
   83OSM   C11S 7605   0.534   3.076   3.544  0.3020  0.5427 -0.3857
   83OSM   H11S 7606   0.539   2.967   3.520  0.4453  0.1540  1.2964
   83OSM   H11T 7607   0.428   3.110   3.544  0.5067  1.2180 -1.5003
   83OSM   C12S 7608   0.596   3.114   3.680 -0.4830  0.3196  0.6412
   83OSM   H12S 7609   0.570   3.221   3.696  3.5149  1.2991  1.7791
   83OSM   H12T 7610   0.704   3.091   3.676 -0.3632  0.8750  0.5858
   83OSM   C13S 7611   0.522   3.032   3.792 -0.3829 -0.1112 -0.4151
   83OSM   H13S 7612   0.575   2.935   3.803 -0.1161  0.1420  0.6200
   83OSM   H13T 7613   0.421   2.998   3.763 -0.6245  0.5552 -0.3783
   83OSM   C14S 7614   0.520   3.103   3.918  0.4743 -0.2281  0.3085
   83OSM   H14S 7615   0.448   3.188   3.923 -0.4285 -0.6647 -3.0212
   83OSM   H14T 7616   0.620   3.150   3.935 -0.4870  1.3084  2.0664
   83OSM   C15S 7617   0.491   3.023   4.040 -0.0519  0.1703 -1.2349
   83OSM   H15S 7618   0.527   3.079   4.129 -0.3989 -0.5471 -0.6300
   83OSM   H15T 7619   0.553   2.931   4.033  1.5779  1.1056 -0.0329
   83OSM   C16S 7620   0.341   2.996   4.063  0.5291  0.1123  0.0116
   83OSM   H16S 7621   0.297   2.963   3.967 -0.2203  3.3389 -0.8714
   83OSM   H16T 7622   0.289   3.092   4.085 -1.9555 -0.9011 -1.0803
   83OSM   C17S 7623   0.310   2.883   4.164 -0.2135 -0.4800 -0.4500
   83OSM   H17S 7624   0.331   2.926   4.265  0.5010  1.0277 -1.2008
   83OSM   H17T 7625   0.380   2.801   4.138 -1.4789 -1.1962 -1.7076
   83OSM   C18S 7626   0.167   2.829   4.165 -0.5503  0.0685  0.1283
   83OSM   H18S 7627   0.095   2.914   4.153  0.0461  0.5769  0.1323
   83OSM   H18T 7628   0.132   2.791   4.263  1.6462  0.4365  1.1126
   83OSM   H18U 7629   0.146   2.765   4.077  0.6877 -1.3682  0.8363
   83OSM    C1F 7630   0.573   3.312   2.528  1.1177 -0.2807  0.1166
   83OSM     OF 7631   0.495   3.354   2.444 -0.0757 -0.8065 -0.3720
   83OSM    C2F 7632   0.692   3.382   2.568 -0.5037  0.7164 -0.8280
   83OSM    H2F 7633   0.713   3.462   2.494 -0.1030 -0.5397 -2.1214
   83OSM    H2G 7634   0.775   3.308   2.569 -0.3162  0.9094  0.7971
   83OSM    C3F 7635   0.663   3.437   2.709  0.0111 -0.3840  0.4413
   83OSM    H3F 7636   0.624   3.366   2.785 -1.2668 -1.7776 -1.4259
   83OSM    H3G 7637   0.584   3.516   2.701  0.3073  0.0213  1.3096
   83OSM    C4F 7638   0.783   3.509   2.769  0.5769  0.1619 -0.2749
   83OSM    H4F 7639   0.804   3.600   2.710  0.9063  0.5719  0.4512
   83OSM    H4G 7640   0.871   3.441   2.769  2.9510  3.0338  0.3482
   83OSM    C5F 7641   0.765   3.571   2.911  0.9489 -0.0573 -0.4304
   83OSM    H5F 7642   0.688   3.651   2.911 -0.0127 -0.8818  1.9129
   83OSM    H5G 7643   0.864   3.613   2.939  0.6201 -0.7873  2.0054
   83OSM    C6F 7644   0.724   3.459   3.014 -0.6537 -0.5483 -0.3740
   83OSM    H6F 7645   0.789   3.370   3.007 -0.1074 -0.2678  0.8308
   83OSM    H6G 7646   0.621   3.426   2.990 -1.3663  0.1619  1.5226
   83OSM    C7F 7647   0.734   3.511   3.157  0.3954 -0.0637 -0.3551
   83OSM    H7F 7648   0.691   3.435   3.225 -0.2887  0.0577 -0.6540
   83OSM    H7G 7649   0.684   3.610   3.169  0.3904 -0.2949  2.3038
   83OSM    C8F 7650   0.883   3.538   3.205 -0.1027  0.1926  0.0079
   83OSM    H8F 7651   0.920   3.606   3.125 -1.0220 -1.6069 -2.0436
   83OSM    H8G 7652   0.935   3.443   3.179 -1.2579 -0.4026 -0.1671
   83OSM    C9F 7653   0.888   3.592   3.344  0.2094 -0.3739 -1.1179
   83OSM    H9F 7654   0.826   3.680   3.367  0.4616 -0.6412  0.7168
   83OSM   C10F 7655   0.962   3.535   3.444 -0.4063 -0.1658 -0.4171
   83OSM   H10F 7656   0.953   3.578   3.545 -0.2188 -0.0592 -0.4449
   83OSM   C11F 7657   1.057   3.412   3.436  0.3626 -1.1341  0.1007
   83OSM   H11F 7658   1.155   3.451   3.472 -0.6793  1.4757  0.3805
   83OSM   H11G 7659   1.071   3.379   3.331 -3.0036  0.9027 -1.1285
   83OSM   C12F 7660   1.021   3.292   3.524  0.6329 -0.3130  0.5679
   83OSM   H12F 7661   1.099   3.217   3.503  3.0416  1.5914  2.1926
   83OSM   H12G 7662   0.923   3.239   3.516  0.6620 -0.5502  1.6946
   83OSM   C13F 7663   1.032   3.324   3.676  0.1445 -0.0761 -0.2942
   83OSM   H13F 7664   0.939   3.377   3.708 -0.6031 -2.9446  3.0304
   83OSM   H13G 7665   1.114   3.396   3.696  0.4654 -0.7214  0.8663
   83OSM   C14F 7666   1.036   3.195   3.767  0.4727 -0.4163 -0.1169
   83OSM   H14F 7667   1.137   3.154   3.747  2.5243  3.2987  1.6352
   83OSM   H14G 7668   0.956   3.129   3.725 -1.3527 -0.0472  2.5386
   83OSM   C15F 7669   1.019   3.221   3.913 -0.1469 -0.0720  0.2467
   83OSM   H15F 7670   0.917   3.265   3.922  0.6141  1.9463 -0.3410
   83OSM   H15G 7671   1.095   3.285   3.963 -0.4341  0.4081  0.0761
   83OSM   C16F 7672   1.039   3.093   3.994 -0.0820  0.4656  0.0040
   83OSM   H16F 7673   1.149   3.079   4.000  0.1063  1.4203 -0.9075
   83OSM   H16G 7674   0.991   3.006   3.944 -0.7694  1.2259 -0.6774
   83OSM   C17F 7675   0.984   3.101   4.133 -0.4284  0.1857 -0.1409
   83OSM   H17F 7676   0.876   3.125   4.142  0.0277  2.5532 -0.5151
   83OSM   H17G 7677   1.042   3.179   4.187  0.6527 -0.9474  0.4010
   83OSM   C18F 7678   0.987   2.973   4.206  0.1060 -0.4379  0.3805
   83OSM   H18F 7679   0.918   2.900   4.160 -2.2122  1.0251  1.3529
   83OSM   H18G 7680   0.948   2.998   4.307  0.9434  2.3661  0.0990
   83OSM   H18H 7681   1.092   2.937   4.215  0.2732 -0.5961 -1.7809
   84OSM      N 7682   4.330   5.929   1.956  0.2690  0.1289 -0.3280
   84OSM    C15 7683   4.345   6.043   1.858 -0.0088  0.6735 -0.5135
   84OSM   H15A 7684   4.261   6.044   1.791  1.2633  0.7736 -2.1627
   84OSM   H15B 7685   4.428   6.021   1.793  0.0876 -2.0559  0.4008
   84OSM   H15C 7686   4.364   6.135   1.911 -0.2012  0.8201 -0.6970
   84OSM    C14 7687   4.194   5.942   2.024 -0.0598  0.5142 -0.1120
   84OSM   H14A 7688   4.123   5.964   1.945 -0.7292 -0.5630  0.1599
   84OSM   H14B 7689   4.205   6.018   2.099  1.8847  0.1752 -0.0126
   84OSM   H14C 7690   4.161   5.845   2.060 -1.7176  1.2180  0.3721
   84OSM    C13 7691   4.326   5.810   1.877 -0.2078  0.4487  0.0727
   84OSM   H13A 7692   4.302   5.726   1.939  0.9273 -0.2854 -0.4490
   84OSM   H13B 7693   4.422   5.791   1.831 -0.6347  1.3420 -1.2630
   84OSM   H13C 7694   4.257   5.821   1.795 -0.8082 -1.5715  0.2724
   84OSM    C12 7695   4.442   5.921   2.064 -0.8176 -0.2049  0.7329
   84OSM   H12A 7696   4.434   6.010   2.125 -2.0853 -0.1453  0.4999
   84OSM   H12B 7697   4.540   5.932   2.019  0.0521  1.7398  2.9163
   84OSM    C11 7698   4.475   5.798   2.159 -0.1770 -0.0544  0.1661
   84OSM   H11A 7699   4.374   5.760   2.189  0.1928 -0.9523  0.3113
   84OSM   H11B 7700   4.537   5.834   2.243 -0.6812  3.6719 -0.8723
   84OSM      P 7701   4.681   5.727   2.036  0.1206  0.0045  0.3926
   84OSM    O13 7702   4.727   5.615   1.955 -0.5680  0.3599  0.7954
   84OSM    O14 7703   4.701   5.861   1.982  0.1282  0.1251  0.4308
   84OSM    O11 7704   4.746   5.723   2.180  0.2999  0.2918 -0.4187
   84OSM    O12 7705   4.534   5.697   2.073 -0.2767  1.1473  0.4695
   84OSM    C1S 7706   4.708   5.615   2.270 -0.0941  0.1496 -0.3481
   84OSM    H1S 7707   4.772   5.528   2.243  2.9406  1.9403  0.5359
   84OSM    H1T 7708   4.598   5.605   2.278 -0.4115  2.5439 -1.0486
   84OSM     NF 7709   4.698   5.541   2.505  0.2845  0.5199 -0.2773
   84OSM    HNF 7710   4.600   5.555   2.523  0.7543  2.2285  1.3488
   84OSM    C2S 7711   4.754   5.641   2.419  0.1467 -0.2383  0.8473
   84OSM    H2S 7712   4.864   5.631   2.414  0.2243  0.7889 -0.0204
   84OSM    C3S 7713   4.721   5.782   2.467  0.6449  0.0376 -0.5776
   84OSM    H3S 7714   4.612   5.794   2.448  0.3066 -0.9197  0.6249
   84OSM     O3 7715   4.790   5.887   2.400  0.2799  0.6382  0.8443
   84OSM    HO3 7716   4.797   5.851   2.312 -0.1237 -0.6323  1.3027
   84OSM    C4S 7717   4.756   5.805   2.611  0.2302 -0.3047 -0.8230
   84OSM    H4S 7718   4.861   5.796   2.640 -0.4791 -0.6053  1.9067
   84OSM    C5S 7719   4.673   5.818   2.717  0.8999 -0.4285 -0.5890
   84OSM    H5S 7720   4.566   5.797   2.699  1.2225 -1.5759 -1.2825
   84OSM    C6S 7721   4.721   5.832   2.859 -0.4785 -0.1203 -0.6013
   84OSM    H6S 7722   4.672   5.916   2.912 -0.8015 -1.6644  1.7455
   84OSM    H6T 7723   4.831   5.848   2.855 -0.3064 -0.7985  0.7419
   84OSM    C7S 7724   4.680   5.701   2.930  0.1679  0.9203 -0.7818
   84OSM    H7S 7725   4.731   5.618   2.876 -2.5418 -1.6757  0.4086
   84OSM    H7T 7726   4.571   5.684   2.918 -0.1582  1.9148  0.4740
   84OSM    C8S 7727   4.718   5.710   3.080  0.3409 -0.0967 -0.1318
   84OSM    H8S 7728   4.687   5.807   3.124 -0.7735 -0.4964 -0.0101
   84OSM    H8T 7729   4.825   5.692   3.102 -0.1305 -1.5365  1.1857
   84OSM    C9S 7730   4.654   5.596   3.162 -0.4646 -0.5208  0.3398
   84OSM    H9S 7731   4.656   5.496   3.113 -1.4638 -0.3832 -0.0152
   84OSM    H9T 7732   4.548   5.631   3.159 -0.0291  0.7885 -1.7637
   84OSM   C10S 7733   4.696   5.591   3.303 -0.5346  0.0118  0.5101
   84OSM   H10S 7734   4.721   5.693   3.340 -3.0621  0.2543  1.7337
   84OSM   H10T 7735   4.783   5.522   3.307 -1.8506 -1.7494 -0.3348
   84OSM   C11S 7736   4.583   5.548   3.395  0.4919 -0.0161 -0.4192
   84OSM   H11S 7737   4.573   5.438   3.385  2.9338 -0.4842  1.4582
   84OSM   H11T 7738   4.487   5.596   3.366  0.3290  1.1436  1.8099
   84OSM   C12S 7739   4.610   5.574   3.547  0.5830 -0.8566  0.1757
   84OSM   H12S 7740   4.621   5.683   3.567  2.6650 -0.9714 -0.1025
   84OSM   H12T 7741   4.708   5.529   3.574  1.5718  0.1313 -1.5738
   84OSM   C13S 7742   4.482   5.546   3.626 -0.6261  0.0622 -0.7613
   84OSM   H13S 7743   4.441   5.450   3.590  1.3384 -0.6803 -1.1370
   84OSM   H13T 7744   4.407   5.624   3.602  0.3459  0.3275 -3.2022
   84OSM   C14S 7745   4.512   5.546   3.777  0.6006 -0.3005 -0.5332
   84OSM   H14S 7746   4.429   5.605   3.822  0.9013 -1.3576  1.4911
   84OSM   H14T 7747   4.612   5.591   3.795 -0.0607  0.7705  0.6578
   84OSM   C15S 7748   4.495   5.407   3.839 -0.1707 -0.2374  0.2299
   84OSM   H15S 7749   4.430   5.340   3.779  0.1234  1.6120 -2.2988
   84OSM   H15T 7750   4.445   5.412   3.939 -0.0725  0.2675  0.2599
   84OSM   C16S 7751   4.625   5.334   3.859  0.1788 -0.2097 -0.2070
   84OSM   H16S 7752   4.680   5.404   3.926 -3.9263  1.7983  1.4184
   84OSM   H16T 7753   4.680   5.312   3.765  0.3125  0.0745 -0.1964
   84OSM   C17S 7754   4.615   5.193   3.927 -0.5279 -0.9844 -0.0175
   84OSM   H17S 7755   4.542   5.128   3.874  0.1758 -1.9578  0.1790
   84OSM   H17T 7756   4.563   5.219   4.021 -1.2652  1.0140 -0.9348
   84OSM   C18S 7757   4.745   5.112   3.952 -0.8360  0.0290 -0.3288
   84OSM   H18S 7758   4.813   5.113   3.864  1.6638 -1.3117  1.4434
   84OSM   H18T 7759   4.712   5.007   3.963 -0.4115  0.0507  1.5106
   84OSM   H18U 7760   4.809   5.132   4.041  0.6298 -0.1085 -1.3190
   84OSM    C1F 7761   4.740   5.415   2.517  0.8911 -0.2858 -0.1547
   84OSM     OF 7762   4.837   5.378   2.455 -0.6712 -0.4492 -0.2807
   84OSM    C2F 7763   4.655   5.326   2.610  0.1038  0.0221 -0.4750
   84OSM    H2F 7764   4.666   5.219   2.583 -0.8234 -0.3731  0.6599
   84OSM    H2G 7765   4.547   5.353   2.611  0.3648  1.1396 -0.9114
   84OSM    C3F 7766   4.713   5.341   2.758  0.1134 -0.5459  0.7670
   84OSM    H3F 7767   4.682   5.445   2.783  0.9121 -0.1404  0.1457
   84OSM    H3G 7768   4.824   5.332   2.758  0.0566 -1.7923 -0.7938
   84OSM    C4F 7769   4.655   5.241   2.854 -0.0403  0.4473 -0.3362
   84OSM    H4F 7770   4.695   5.257   2.957 -1.0883  0.9771  0.0140
   84OSM    H4G 7771   4.684   5.137   2.829 -0.5575  0.1731  0.1630
   84OSM    C5F 7772   4.502   5.253   2.856  0.4556 -0.2734 -0.8774
   84OSM    H5F 7773   4.468   5.212   2.758  1.8033 -0.3235 -1.3342
   84OSM    H5G 7774   4.476   5.360   2.868  0.3752 -0.5047  1.5067
   84OSM    C6F 7775   4.438   5.163   2.965 -0.6224 -0.3064 -0.2442
   84OSM    H6F 7776   4.477   5.060   2.951  0.3089 -0.3330  2.1585
   84OSM    H6G 7777   4.327   5.159   2.954 -0.9181 -0.2969  2.1484
   84OSM    C7F 7778   4.471   5.214   3.110  0.0450  0.2876 -0.3056
   84OSM    H7F 7779   4.430   5.317   3.121  0.6078  0.4073  0.8897
   84OSM    H7G 7780   4.582   5.222   3.120  0.2170 -2.1850  0.3208
   84OSM    C8F 7781   4.421   5.118   3.221  0.2521 -0.3377 -0.8424
   84OSM    H8F 7782   4.449   5.016   3.186  1.8216  0.2283 -1.3026
   84OSM    H8G 7783   4.312   5.126   3.202  0.4058 -1.6954 -2.5333
   84OSM    C9F 7784   4.479   5.148   3.356 -0.1273  0.8852 -0.5260
   84OSM    H9F 7785   4.565   5.217   3.355  0.4408  0.1873 -0.8383
   84OSM   C10F 7786   4.456   5.092   3.474 -0.0361 -0.1103 -0.2173
   84OSM   H10F 7787   4.532   5.108   3.552  0.7514  0.2351 -1.0436
   84OSM   C11F 7788   4.355   4.982   3.495 -0.0812  0.0816  0.1877
   84OSM   H11F 7789   4.374   4.889   3.438  3.2796  0.8853 -0.2171
   84OSM   H11G 7790   4.254   5.014   3.462  0.4204  2.0332  0.4092
   84OSM   C12F 7791   4.332   4.941   3.640  0.1900 -0.5772  0.2275
   84OSM   H12F 7792   4.426   4.899   3.681  1.0498 -0.1363 -1.1905
   84OSM   H12G 7793   4.273   4.847   3.639  0.3106 -0.6591 -0.8329
   84OSM   C13F 7794   4.264   5.053   3.726 -0.6390 -0.1013  0.1502
   84OSM   H13F 7795   4.165   5.083   3.685 -0.3489  0.1353 -0.3754
   84OSM   H13G 7796   4.328   5.143   3.725 -0.0004 -0.5366  0.6165
   84OSM   C14F 7797   4.231   4.999   3.865  0.7099  0.3695 -0.4073
   84OSM   H14F 7798   4.328   4.971   3.911  0.4593 -0.7079 -0.5040
   84OSM   H14G 7799   4.168   4.907   3.864  1.1472 -0.0960  3.0968
   84OSM   C15F 7800   4.155   5.096   3.955  0.3949 -0.6005 -0.1550
   84OSM   H15F 7801   4.142   5.042   4.051 -3.1253  0.2644  0.0071
   84OSM   H15G 7802   4.048   5.109   3.928 -0.0815  0.9380  2.1276
   84OSM   C16F 7803   4.213   5.239   3.976 -0.1885  0.5631  0.9333
   84OSM   H16F 7804   4.200   5.291   3.878 -0.0728 -1.3219 -0.1405
   84OSM   H16G 7805   4.322   5.233   3.998  0.0473  0.1741 -0.2311
   84OSM   C17F 7806   4.132   5.317   4.081 -0.0166  0.7035 -0.3104
   84OSM   H17F 7807   4.139   5.267   4.180 -2.4996 -0.0151 -0.4198
   84OSM   H17G 7808   4.028   5.306   4.043  0.1895 -0.1129 -0.6623
   84OSM   C18F 7809   4.174   5.462   4.106 -0.6872  0.0858  0.0562
   84OSM   H18F 7810   4.108   5.515   4.178 -0.1517  1.0676 -0.1550
   84OSM   H18G 7811   4.187   5.520   4.012 -1.0215 -1.9498 -1.3191
   84OSM   H18H 7812   4.274   5.465   4.156 -1.2909 -0.3033  1.3240
   85OSM      N 7813   0.011   3.627   1.623 -0.3483 -0.5415  0.1827
   85OSM    C15 7814   0.011   3.643   1.474  0.6585  0.4250  0.0069
   85OSM   H15A 7815   0.111   3.660   1.438  0.4609 -0.4851 -1.0187
   85OSM   H15B 7816  -0.042   3.730   1.441  3.5005  1.7429 -1.4358
   85OSM   H15C 7817  -0.041   3.562   1.424 -1.1727  1.9039 -0.5960
   85OSM    C14 7818  -0.131   3.605   1.666 -0.4817 -0.3678 -0.1494
   85OSM   H14A 7819  -0.203   3.668   1.616 -0.3155  0.1417  0.2349
   85OSM   H14B 7820  -0.139   3.626   1.772  3.7641 -0.5095  0.3948
   85OSM   H14C 7821  -0.154   3.500   1.661  1.9926 -1.3113  3.7681
   85OSM    C13 7822   0.102   3.524   1.669  0.1532  0.3897  0.8612
   85OSM   H13A 7823   0.201   3.512   1.625  1.3897 -0.2732  3.6215
   85OSM   H13B 7824   0.061   3.426   1.651  1.3926  0.0538 -0.4363
   85OSM   H13C 7825   0.134   3.537   1.771  0.6046  1.6531  0.5736
   85OSM    C12 7826   0.064   3.760   1.683  0.8545 -0.9854  1.0062
   85OSM   H12A 7827   0.011   3.841   1.635  1.2111 -1.1271  0.3689
   85OSM   H12B 7828   0.164   3.782   1.650 -0.7122  2.0045 -2.3751
   85OSM    C11 7829   0.057   3.783   1.837  0.2567  0.7717  0.2524
   85OSM   H11A 7830  -0.050   3.772   1.867  0.8202 -1.3679  1.7411
   85OSM   H11B 7831   0.093   3.884   1.867  0.9430  1.4177 -2.5082
   85OSM      P 7832   0.290   3.714   1.937 -0.0523  0.3339  0.1506
   85OSM    O13 7833   0.341   3.604   2.017  0.3494  0.1899 -0.0114
   85OSM    O14 7834   0.363   3.750   1.809  0.1065  0.1801 -0.4298
   85OSM    O11 7835   0.286   3.844   2.028  0.3893  0.0100  0.3315
   85OSM    O12 7836   0.133   3.686   1.914 -0.1852 -0.4466  0.4704
   85OSM    C1S 7837   0.221   3.850   2.160 -0.1082 -0.2592  0.4439
   85OSM    H1S 7838   0.152   3.764   2.174 -0.0187 -0.4909 -0.4805
   85OSM    H1T 7839   0.152   3.936   2.145  0.2874 -0.1440 -0.8023
   85OSM     NF 7840   0.247   3.883   2.404  0.1237 -0.1554  0.4588
   85OSM    HNF 7841   0.244   3.977   2.435 -1.6222  0.2409 -0.7537
   85OSM    C2S 7842   0.321   3.862   2.282  0.3895  0.0501  0.2753
   85OSM    H2S 7843   0.376   3.767   2.298  2.5193  1.3249  1.1435
   85OSM    C3S 7844   0.422   3.973   2.247 -0.7278 -0.3137  0.7449
   85OSM    H3S 7845   0.363   4.063   2.217  1.7698  0.6289 -1.8400
   85OSM     O3 7846   0.501   3.961   2.129  0.1239  0.1712 -0.1938
   85OSM    HO3 7847   0.442   3.906   2.078  0.2480 -2.6693  2.3861
   85OSM    C4S 7848   0.518   3.994   2.362  0.2896 -0.9842  0.8069
   85OSM    H4S 7849   0.502   4.082   2.427  1.4727 -1.3599  1.6357
   85OSM    C5S 7850   0.610   3.906   2.405  0.1669  0.2775  0.5884
   85OSM    H5S 7851   0.611   3.813   2.347  1.0645  0.2587  0.6210
   85OSM    C6S 7852   0.686   3.906   2.538 -0.3793 -0.0496 -0.2956
   85OSM    H6S 7853   0.772   3.976   2.535  0.1182 -0.6135 -4.0610
   85OSM    H6T 7854   0.735   3.810   2.563 -0.2103 -0.0978 -0.8051
   85OSM    C7S 7855   0.585   3.928   2.655  0.6649  0.3826  0.0172
   85OSM    H7S 7856   0.500   3.857   2.645  2.0846 -1.3554 -0.0644
   85OSM    H7T 7857   0.548   4.031   2.636 -0.1940  0.2505  0.8547
   85OSM    C8S 7858   0.639   3.937   2.798  0.3208 -0.3555 -0.2385
   85OSM    H8S 7859   0.719   4.013   2.800  1.0017 -0.9712 -1.9343
   85OSM    H8T 7860   0.705   3.848   2.804  0.6713 -0.0633  0.2457
   85OSM    C9S 7861   0.530   3.938   2.903  0.2270  0.1020 -0.5013
   85OSM    H9S 7862   0.442   3.874   2.880 -0.0558  0.2534  0.1221
   85OSM    H9T 7863   0.489   4.042   2.910 -0.6554 -0.2384 -0.4062
   85OSM   C10S 7864   0.574   3.888   3.042 -0.5638 -0.2852  0.3801
   85OSM   H10S 7865   0.682   3.908   3.056 -0.2012 -1.4209 -0.5770
   85OSM   H10T 7866   0.569   3.778   3.051 -0.9331 -0.1121  2.8519
   85OSM   C11S 7867   0.498   3.946   3.158 -0.7393  0.2192 -0.3702
   85OSM   H11S 7868   0.404   3.887   3.167  0.1622 -1.4474 -1.3983
   85OSM   H11T 7869   0.484   4.055   3.139 -1.2314 -0.2823 -3.3779
   85OSM   C12S 7870   0.562   3.950   3.299 -0.1880  0.4598 -0.7577
   85OSM   H12S 7871   0.655   4.010   3.307  0.4518 -0.1351 -2.8870
   85OSM   H12T 7872   0.589   3.848   3.335  1.4963  0.0671 -2.8873
   85OSM   C13S 7873   0.462   4.006   3.399  0.0997 -0.5457  0.0116
   85OSM   H13S 7874   0.359   3.965   3.409  0.2115 -0.5354  1.2545
   85OSM   H13T 7875   0.449   4.113   3.375 -1.3099 -0.7724 -0.3162
   85OSM   C14S 7876   0.528   3.976   3.542  1.1207 -0.4225  0.9637
   85OSM   H14S 7877   0.638   3.991   3.540  1.0796  0.1154 -2.4707
   85OSM   H14T 7878   0.521   3.872   3.580 -1.1058 -1.2565 -1.4589
   85OSM   C15S 7879   0.447   4.051   3.651  0.4542  0.8663  0.0824
   85OSM   H15S 7880   0.343   4.014   3.647 -0.0560  2.3491 -1.8895
   85OSM   H15T 7881   0.422   4.155   3.623 -0.4144  0.5933 -0.1640
   85OSM   C16S 7882   0.516   4.054   3.789 -0.3993 -0.3830 -0.0319
   85OSM   H16S 7883   0.618   4.096   3.781 -0.4535  0.0208  1.3073
   85OSM   H16T 7884   0.522   3.946   3.814 -4.1552 -0.5713  0.6734
   85OSM   C17S 7885   0.429   4.121   3.896  0.3818 -0.2026 -0.1942
   85OSM   H17S 7886   0.480   4.104   3.993 -1.4904 -1.5938  0.6160
   85OSM   H17T 7887   0.337   4.059   3.897  0.1918  0.0776  0.4598
   85OSM   C18S 7888   0.385   4.266   3.866  0.1370  0.8085  0.0666
   85OSM   H18S 7889   0.354   4.310   3.964 -0.3036 -0.9282  0.7389
   85OSM   H18T 7890   0.318   4.284   3.779 -2.1757  1.9798  1.9433
   85OSM   H18U 7891   0.481   4.321   3.856 -0.1228  1.4527  0.9533
   85OSM    C1F 7892   0.179   3.790   2.468  0.0522 -0.2798 -0.2430
   85OSM     OF 7893   0.167   3.680   2.420 -0.2668  0.6093 -0.1051
   85OSM    C2F 7894   0.119   3.830   2.596 -0.5154 -0.3204 -0.0885
   85OSM    H2F 7895   0.015   3.790   2.602 -0.2515 -0.9763  0.1717
   85OSM    H2G 7896   0.111   3.941   2.595 -0.3242 -0.3021  0.3601
   85OSM    C3F 7897   0.206   3.794   2.715  0.4533  0.4381  0.6588
   85OSM    H3F 7898   0.310   3.830   2.701  0.5382 -0.1321 -0.2453
   85OSM    H3G 7899   0.217   3.683   2.716  0.5841  0.4431  0.1178
   85OSM    C4F 7900   0.152   3.836   2.853  0.1186 -0.5596 -0.1951
   85OSM    H4F 7901   0.160   3.946   2.851  2.8752 -0.7053 -0.2719
   85OSM    H4G 7902   0.222   3.801   2.932 -0.5824  2.4091  1.9158
   85OSM    C5F 7903   0.004   3.796   2.884  0.1480  0.2660  0.0666
   85OSM    H5F 7904  -0.014   3.693   2.847 -1.0484  0.5627 -0.2221
   85OSM    H5G 7905  -0.057   3.865   2.821 -0.5154 -0.1077  0.2961
   85OSM    C6F 7906  -0.022   3.809   3.033  1.4092 -0.4213 -0.1057
   85OSM    H6F 7907   0.070   3.793   3.093  1.5073  1.3863  0.2890
   85OSM    H6G 7908  -0.100   3.739   3.069 -1.3332  1.4388 -2.0184
   85OSM    C7F 7909  -0.083   3.952   3.048 -0.0178  0.0956 -0.3730
   85OSM    H7F 7910  -0.188   3.950   3.012  0.3962  0.4909 -1.6865
   85OSM    H7G 7911  -0.037   4.012   2.967  0.6042 -0.9978 -0.8612
   85OSM    C8F 7912  -0.076   4.012   3.194  0.2519 -0.3367  0.1968
   85OSM    H8F 7913   0.027   4.055   3.194  0.4164 -0.7272 -0.0582
   85OSM    H8G 7914  -0.078   3.927   3.265  0.6728 -0.6000 -0.1012
   85OSM    C9F 7915  -0.180   4.113   3.234  0.1285 -0.1132 -0.5663
   85OSM    H9F 7916  -0.161   4.219   3.213  0.0715  0.3186  1.3770
   85OSM   C10F 7917  -0.291   4.086   3.311 -0.4044 -0.3089 -0.7549
   85OSM   H10F 7918  -0.370   4.161   3.326 -1.1188 -1.2058  0.0306
   85OSM   C11F 7919  -0.337   3.951   3.362 -0.4769  0.2110  0.8370
   85OSM   H11F 7920  -0.300   3.862   3.307 -0.4474  2.2325 -2.7054
   85OSM   H11G 7921  -0.446   3.945   3.344 -0.1404  0.1106 -1.4432
   85OSM   C12F 7922  -0.308   3.948   3.505  0.4277 -0.7829 -0.1138
   85OSM   H12F 7923  -0.347   4.031   3.568  0.9511 -2.1922  2.1965
   85OSM   H12G 7924  -0.198   3.941   3.525  0.5484 -0.2654 -0.5874
   85OSM   C13F 7925  -0.370   3.831   3.574  0.2143 -0.9346 -0.0865
   85OSM   H13F 7926  -0.341   3.731   3.537 -0.1567 -1.2011  0.3316
   85OSM   H13G 7927  -0.479   3.831   3.551 -0.7033 -0.3075  3.5861
   85OSM   C14F 7928  -0.363   3.824   3.727  0.2710  0.3440  0.6071
   85OSM   H14F 7929  -0.439   3.891   3.772  0.2980  0.5361  0.3684
   85OSM   H14G 7930  -0.265   3.865   3.761 -0.3101  0.1450  2.6318
   85OSM   C15F 7931  -0.386   3.679   3.778 -0.5519 -0.3888 -0.2124
   85OSM   H15F 7932  -0.321   3.615   3.714 -0.7752 -0.8143 -0.0142
   85OSM   H15G 7933  -0.495   3.663   3.759 -0.5444 -0.1877 -0.4407
   85OSM   C16F 7934  -0.342   3.663   3.928  0.7810  0.2683  1.1953
   85OSM   H16F 7935  -0.414   3.721   3.989  1.0113  0.9607  0.8303
   85OSM   H16G 7936  -0.244   3.714   3.941  0.9920 -0.1564  1.3044
   85OSM   C17F 7937  -0.342   3.518   3.971 -0.2598  0.3132  1.1744
   85OSM   H17F 7938  -0.324   3.514   4.081  2.6431  0.8347  0.8084
   85OSM   H17G 7939  -0.257   3.468   3.919 -0.0336 -0.5981  2.3839
   85OSM   C18F 7940  -0.466   3.439   3.940  0.3855 -0.3194  0.2815
   85OSM   H18F 7941  -0.466   3.407   3.834  1.7859 -1.3844  0.5727
   85OSM   H18G 7942  -0.453   3.342   3.992 -0.0548 -0.9981 -0.8386
   85OSM   H18H 7943  -0.559   3.492   3.970  0.9003  0.8401 -0.0799
   86OSM      N 7944   1.966   0.156   2.092 -0.3657  0.3644 -0.3047
   86OSM    C15 7945   1.966   0.084   1.960  0.2661 -0.3094  0.2321
   86OSM   H15A 7946   2.040   0.006   1.964  1.2147  0.5085 -0.7465
   86OSM   H15B 7947   1.999   0.158   1.889  0.9339  0.9206  1.7611
   86OSM   H15C 7948   1.870   0.050   1.924  1.1827  0.0465 -2.7709
   86OSM    C14 7949   2.087   0.242   2.099  0.2757  0.1359  0.3654
   86OSM   H14A 7950   2.079   0.326   2.032 -1.9625  0.5832  1.1094
   86OSM   H14B 7951   2.177   0.186   2.076  0.0105  0.2156 -0.9205
   86OSM   H14C 7952   2.097   0.293   2.193 -1.5734 -1.1284  1.3270
   86OSM    C13 7953   1.845   0.243   2.098  0.5817  0.1057 -0.0422
   86OSM   H13A 7954   1.850   0.299   2.190 -0.7746  1.0582 -0.5180
   86OSM   H13B 7955   1.750   0.190   2.093 -1.1794  2.9279  1.2193
   86OSM   H13C 7956   1.851   0.303   2.009 -0.9208 -3.5578 -2.9265
   86OSM    C12 7957   1.969   0.070   2.219 -0.0895  0.2997  0.1208
   86OSM   H12A 7958   1.975   0.125   2.311 -0.9111 -0.7343  0.8055
   86OSM   H12B 7959   2.064   0.018   2.222 -1.1681 -1.6848  2.0563
   86OSM    C11 7960   1.861  -0.035   2.258  0.6414  0.4616  0.2501
   86OSM   H11A 7961   1.766   0.014   2.290  1.4282  0.6803  2.4436
   86OSM   H11B 7962   1.909  -0.076   2.350 -0.1454  0.4249  0.6571
   86OSM      P 7963   1.709  -0.170   2.084  0.0138 -0.1476  0.1042
   86OSM    O13 7964   1.649  -0.048   2.024  0.0069 -0.2093  0.0468
   86OSM    O14 7965   1.733  -0.280   1.986 -0.2413  0.0843  0.1052
   86OSM    O11 7966   1.619  -0.231   2.199 -0.2201  0.1045  0.6879
   86OSM    O12 7967   1.843  -0.139   2.161 -0.3224 -0.0227 -0.3857
   86OSM    C1S 7968   1.658  -0.329   2.299  0.7374 -0.1087 -0.3993
   86OSM    H1S 7969   1.764  -0.322   2.331  0.3396  0.9317  0.7773
   86OSM    H1T 7970   1.644  -0.433   2.261 -1.7760  0.7377 -2.0219
   86OSM     NF 7971   1.615  -0.423   2.529 -0.6368  0.0111 -0.8352
   86OSM    HNF 7972   1.578  -0.516   2.528 -2.4688  0.6733  0.2011
   86OSM    C2S 7973   1.563  -0.335   2.426 -0.6226  0.1948 -0.4347
   86OSM    H2S 7974   1.565  -0.234   2.472  4.4038 -0.0818  0.5078
   86OSM    C3S 7975   1.416  -0.370   2.381 -0.0374 -0.3164  0.1807
   86OSM    H3S 7976   1.433  -0.473   2.342 -0.9822 -1.3383  2.3440
   86OSM     O3 7977   1.354  -0.286   2.282  0.1289 -0.4305 -0.2881
   86OSM    HO3 7978   1.426  -0.273   2.220  0.8666 -3.9316 -0.3305
   86OSM    C4S 7979   1.324  -0.365   2.503  0.3418 -0.2179 -0.5188
   86OSM    H4S 7980   1.322  -0.273   2.563 -0.6805 -0.7455  0.2747
   86OSM    C5S 7981   1.235  -0.461   2.523  0.5845 -0.1165 -0.4582
   86OSM    H5S 7982   1.237  -0.547   2.454  1.4789 -0.6666  0.2205
   86OSM    C6S 7983   1.135  -0.463   2.637  0.5130 -0.0275 -0.2673
   86OSM    H6S 7984   1.181  -0.509   2.728  0.3920  0.0502 -0.1665
   86OSM    H6T 7985   1.040  -0.515   2.614 -0.4850  0.6972  1.9454
   86OSM    C7S 7986   1.087  -0.324   2.693  0.2231  0.5624 -0.0138
   86OSM    H7S 7987   1.054  -0.265   2.605 -0.8307  0.3044  0.1950
   86OSM    H7T 7988   1.179  -0.282   2.738  0.7490 -0.3917 -0.1679
   86OSM    C8S 7989   0.979  -0.337   2.796 -0.3765 -0.6275  0.0599
   86OSM    H8S 7990   0.895  -0.399   2.758  0.2583 -0.2346 -2.1434
   86OSM    H8T 7991   0.935  -0.236   2.811 -0.8132 -0.7811 -0.1719
   86OSM    C9S 7992   1.027  -0.390   2.933 -0.8896  0.0947  0.8668
   86OSM    H9S 7993   1.120  -0.337   2.965 -0.5389  0.0127  0.0135
   86OSM    H9T 7994   1.062  -0.495   2.922  0.8281  0.6144  1.0195
   86OSM   C10S 7995   0.914  -0.383   3.035 -0.0394 -0.0585  0.1393
   86OSM   H10S 7996   0.819  -0.422   2.992  0.3373 -1.4316  0.4908
   86OSM   H10T 7997   0.892  -0.275   3.043 -0.7053 -0.1509 -0.3455
   86OSM   C11S 7998   0.928  -0.452   3.172  0.0405  0.5758  0.1514
   86OSM   H11S 7999   1.024  -0.419   3.217 -1.4043  0.4797  3.6154
   86OSM   H11T 8000   0.952  -0.561   3.170 -0.3561  0.3822  2.5500
   86OSM   C12S 8001   0.814  -0.427   3.272  0.0328  0.1401 -0.1483
   86OSM   H12S 8002   0.719  -0.473   3.237 -0.6376 -0.0156  1.7706
   86OSM   H12T 8003   0.795  -0.318   3.272 -0.2515  0.1295  1.8432
   86OSM   C13S 8004   0.855  -0.465   3.417 -0.0628 -0.7418 -0.3423
   86OSM   H13S 8005   0.878  -0.574   3.411 -0.0766 -0.8660  1.3127
   86OSM   H13T 8006   0.773  -0.472   3.492 -0.6402 -0.6597 -0.9576
   86OSM   C14S 8007   0.976  -0.389   3.475  0.0797  0.4858 -0.5500
   86OSM   H14S 8008   0.986  -0.283   3.442 -1.3870  0.4885 -1.0797
   86OSM   H14T 8009   1.067  -0.432   3.427 -0.2040 -1.2668  0.3914
   86OSM   C15S 8010   0.984  -0.386   3.624 -0.1612  0.0201 -0.0060
   86OSM   H15S 8011   1.082  -0.373   3.674 -0.2771 -0.7628  0.4539
   86OSM   H15T 8012   0.948  -0.490   3.644  1.9459 -0.7832 -0.0900
   86OSM   C16S 8013   0.901  -0.269   3.671  0.0103 -0.1202  0.3341
   86OSM   H16S 8014   0.795  -0.285   3.644 -0.1729  2.0681 -0.3976
   86OSM   H16T 8015   0.924  -0.168   3.631  1.9602  0.2532  2.1752
   86OSM   C17S 8016   0.907  -0.260   3.828 -1.0220  0.1262 -0.3346
   86OSM   H17S 8017   0.842  -0.176   3.860 -0.2042  0.7666 -0.3265
   86OSM   H17T 8018   1.015  -0.250   3.850 -0.6029 -2.1550 -1.0496
   86OSM   C18S 8019   0.869  -0.391   3.903  0.0142  0.3211 -0.8522
   86OSM   H18S 8020   0.774  -0.435   3.867  0.0171 -0.9326  0.6025
   86OSM   H18T 8021   0.864  -0.371   4.012 -0.3251  0.0339 -0.8152
   86OSM   H18U 8022   0.948  -0.466   3.880 -0.4861 -0.7711  0.8232
   86OSM    C1F 8023   1.726  -0.395   2.601 -0.8144  0.0023  0.4554
   86OSM     OF 8024   1.766  -0.282   2.600  0.0792 -0.0113  0.2269
   86OSM    C2F 8025   1.788  -0.502   2.689 -0.4113 -0.0699  0.4799
   86OSM    H2F 8026   1.886  -0.536   2.648 -1.0778 -0.1769 -1.0712
   86OSM    H2G 8027   1.723  -0.590   2.677  0.3706 -0.5400 -0.4491
   86OSM    C3F 8028   1.797  -0.462   2.836  0.3590 -0.1101  0.7145
   86OSM    H3F 8029   1.854  -0.366   2.840 -0.6052  0.5545 -0.6461
   86OSM    H3G 8030   1.850  -0.545   2.886  0.5653 -0.6640 -0.3924
   86OSM    C4F 8031   1.653  -0.457   2.900 -0.2250  0.1003  0.1328
   86OSM    H4F 8032   1.599  -0.553   2.887 -0.3197  0.5019 -3.6951
   86OSM    H4G 8033   1.584  -0.389   2.845 -1.1513  0.1482  1.3229
   86OSM    C5F 8034   1.668  -0.414   3.044 -0.2574 -0.2010  0.1035
   86OSM    H5F 8035   1.718  -0.315   3.038  0.3377 -0.3969  1.4214
   86OSM    H5G 8036   1.733  -0.485   3.098  2.0465  1.1880 -0.7247
   86OSM    C6F 8037   1.539  -0.380   3.125 -0.2552  1.1613  0.4520
   86OSM    H6F 8038   1.474  -0.346   3.042  2.1870  1.0383 -1.6463
   86OSM    H6G 8039   1.562  -0.295   3.193  2.4904  1.2361 -0.4397
   86OSM    C7F 8040   1.481  -0.505   3.208 -0.0461  0.0396 -0.3668
   86OSM    H7F 8041   1.557  -0.533   3.285 -0.8754 -1.8861 -0.1873
   86OSM    H7G 8042   1.494  -0.596   3.146  0.4453  0.4955 -0.9462
   86OSM    C8F 8043   1.348  -0.477   3.265 -0.0247  0.3754 -0.6189
   86OSM    H8F 8044   1.305  -0.579   3.269  0.7299  0.0833  0.7131
   86OSM    H8G 8045   1.277  -0.436   3.190 -2.7287  1.4909  2.3002
   86OSM    C9F 8046   1.345  -0.407   3.401 -0.0823 -0.2680  0.1343
   86OSM    H9F 8047   1.327  -0.299   3.403 -0.0664 -0.2813  1.1257
   86OSM   C10F 8048   1.344  -0.469   3.522  0.5271  0.2154 -0.0851
   86OSM   H10F 8049   1.330  -0.410   3.614 -1.1253  0.7368 -0.6282
   86OSM   C11F 8050   1.330  -0.618   3.542  0.2927 -0.4238 -0.2944
   86OSM   H11F 8051   1.433  -0.657   3.560  0.8217  0.6768 -0.8485
   86OSM   H11G 8052   1.288  -0.667   3.452 -0.5587  1.7803 -1.1293
   86OSM   C12F 8053   1.245  -0.663   3.667 -0.3611 -0.0774 -0.0054
   86OSM   H12F 8054   1.251  -0.774   3.671 -0.6767 -0.0987 -0.0676
   86OSM   H12G 8055   1.138  -0.633   3.655 -0.3395  1.7037  3.3375
   86OSM   C13F 8056   1.309  -0.613   3.796 -0.8087  0.1585 -0.2899
   86OSM   H13F 8057   1.346  -0.509   3.784  0.4915 -0.3194 -0.6146
   86OSM   H13G 8058   1.399  -0.674   3.819 -2.1769 -2.1540 -0.6856
   86OSM   C14F 8059   1.214  -0.618   3.917  0.6279  0.0859  0.5984
   86OSM   H14F 8060   1.215  -0.723   3.955 -1.1992 -0.5379 -0.9121
   86OSM   H14G 8061   1.115  -0.589   3.876  0.9753 -0.6910 -0.8572
   86OSM   C15F 8062   1.259  -0.533   4.029  0.5552  0.6181 -0.6049
   86OSM   H15F 8063   1.305  -0.436   4.000 -0.3063  1.2340  0.0186
   86OSM   H15G 8064   1.337  -0.596   4.076 -0.9588  2.2484  4.8043
   86OSM   C16F 8065   1.151  -0.501   4.138 -0.4087  0.1967  0.7549
   86OSM   H16F 8066   1.079  -0.435   4.084 -0.9745  0.2401  1.5366
   86OSM   H16G 8067   1.211  -0.449   4.216 -1.0226  1.3528  0.4861
   86OSM   C17F 8068   1.076  -0.620   4.207 -0.1968  0.6565 -0.9987
   86OSM   H17F 8069   1.033  -0.685   4.128 -0.1094  0.8957 -1.2412
   86OSM   H17G 8070   0.984  -0.576   4.253 -0.2032 -1.8368  1.6993
   86OSM   C18F 8071   1.160  -0.698   4.305  0.3236  0.8304 -0.1978
   86OSM   H18F 8072   1.188  -0.643   4.397  1.9182 -1.0156  0.4925
   86OSM   H18G 8073   1.247  -0.730   4.244  0.0582  0.9937 -0.6668
   86OSM   H18H 8074   1.109  -0.788   4.345  1.5879  1.2154  2.4399
   87OSM      N 8075   4.528   3.793   2.343  0.2492  0.8485  0.1486
   87OSM    C15 8076   4.596   3.662   2.326  0.3956 -1.2001 -0.0551
   87OSM   H15A 8077   4.535   3.592   2.382 -0.7672  2.2628  3.5662
   87OSM   H15B 8078   4.697   3.666   2.363  1.1929 -2.0127 -2.0235
   87OSM   H15C 8079   4.618   3.632   2.225 -0.3951 -2.1021  0.0245
   87OSM    C14 8080   4.538   3.837   2.488 -0.2777 -0.3740 -0.1136
   87OSM   H14A 8081   4.642   3.853   2.510 -0.4605 -1.0041  1.3327
   87OSM   H14B 8082   4.486   3.767   2.552 -2.9216  0.5789 -1.0750
   87OSM   H14C 8083   4.487   3.930   2.506 -1.3055 -0.9170 -0.0876
   87OSM    C13 8084   4.599   3.894   2.255 -0.1699  0.1063  1.5838
   87OSM   H13A 8085   4.563   3.994   2.274  2.4403  1.9285 -1.8936
   87OSM   H13B 8086   4.600   3.865   2.151 -0.5919  2.1526  0.9515
   87OSM   H13C 8087   4.704   3.896   2.278  0.4050 -3.4582 -0.1788
   87OSM    C12 8088   4.381   3.776   2.285 -0.8068 -0.0851  0.6138
   87OSM   H12A 8089   4.395   3.738   2.185 -0.2718  4.6186 -1.3314
   87OSM   H12B 8090   4.326   3.867   2.271 -3.1628 -1.5898 -0.5007
   87OSM    C11 8091   4.285   3.686   2.357  0.1315 -0.5192 -0.5980
   87OSM   H11A 8092   4.176   3.687   2.338 -0.7108  1.3272  3.2367
   87OSM   H11B 8093   4.293   3.706   2.466 -1.0899  4.2902 -1.1812
   87OSM      P 8094   4.276   3.459   2.220  0.0853 -0.3344  0.1135
   87OSM    O13 8095   4.180   3.530   2.137  0.1009 -0.1601  0.5251
   87OSM    O14 8096   4.381   3.375   2.151 -0.2049  0.2305  0.0604
   87OSM    O11 8097   4.194   3.355   2.306  0.6594  0.7506 -0.3506
   87OSM    O12 8098   4.331   3.558   2.324  0.3695  0.6677  0.1692
   87OSM    C1S 8099   4.248   3.259   2.397  0.1712 -0.5007 -0.3637
   87OSM    H1S 8100   4.345   3.219   2.362 -0.0077 -1.6651  0.4013
   87OSM    H1T 8101   4.171   3.179   2.407 -0.3648  0.1305  0.8085
   87OSM     NF 8102   4.362   3.225   2.614  0.4139  0.2659  0.2166
   87OSM    HNF 8103   4.321   3.199   2.701 -1.9387  0.1058 -0.8350
   87OSM    C2S 8104   4.289   3.321   2.537  0.7550  0.0251 -1.3258
   87OSM    H2S 8105   4.352   3.412   2.522  0.2329  0.5817 -0.2342
   87OSM    C3S 8106   4.156   3.379   2.603  0.5199  0.2966  0.8099
   87OSM    H3S 8107   4.085   3.295   2.619 -0.4740  0.6799 -1.1896
   87OSM     O3 8108   4.072   3.470   2.517  0.0185 -0.3774 -0.1110
   87OSM    HO3 8109   4.093   3.441   2.428  1.2514 -0.5063  0.1978
   87OSM    C4S 8110   4.191   3.441   2.737  0.2482 -0.2792  1.0928
   87OSM    H4S 8111   4.114   3.405   2.807  0.1837  0.4419  1.3920
   87OSM    C5S 8112   4.286   3.532   2.769  0.2926  1.1503 -0.5100
   87OSM    H5S 8113   4.350   3.563   2.685 -0.7061 -0.3201 -1.8828
   87OSM    C6S 8114   4.305   3.587   2.908 -0.1168  0.0260  0.1271
   87OSM    H6S 8115   4.284   3.696   2.905  1.0220  0.4171  2.8586
   87OSM    H6T 8116   4.415   3.584   2.927 -0.1793 -2.0035  0.3721
   87OSM    C7S 8117   4.215   3.525   3.017  0.4184  0.4822  0.1819
   87OSM    H7S 8118   4.234   3.418   3.038  0.5635  0.8100  1.8991
   87OSM    H7T 8119   4.108   3.536   2.988  1.0825  2.3379 -1.8846
   87OSM    C8S 8120   4.240   3.594   3.151 -0.2563 -0.4925 -0.2106
   87OSM    H8S 8121   4.169   3.679   3.156  1.5077  1.0476 -0.0055
   87OSM    H8T 8122   4.343   3.636   3.154 -0.5419  0.2466 -0.3662
   87OSM    C9S 8123   4.230   3.505   3.281 -0.1295  1.0660  0.0358
   87OSM    H9S 8124   4.233   3.570   3.371  0.0734  1.4958 -0.2841
   87OSM    H9T 8125   4.312   3.429   3.276  0.7146  1.8931  0.9910
   87OSM   C10S 8126   4.105   3.420   3.295  0.4155  0.1544  0.8875
   87OSM   H10S 8127   4.116   3.338   3.221  0.4436 -0.4543  1.5684
   87OSM   H10T 8128   4.011   3.477   3.276 -1.7247 -2.2069  3.5772
   87OSM   C11S 8129   4.070   3.369   3.436 -0.1269  0.2948  0.2439
   87OSM   H11S 8130   3.967   3.329   3.452  0.0813 -0.9819 -1.3669
   87OSM   H11T 8131   4.096   3.447   3.511  4.7593  1.0907 -1.8704
   87OSM   C12S 8132   4.153   3.241   3.464 -0.2474 -0.3295 -0.1093
   87OSM   H12S 8133   4.259   3.272   3.472 -0.4632  0.4655 -0.3192
   87OSM   H12T 8134   4.142   3.167   3.382  0.6049 -0.7121  0.1037
   87OSM   C13S 8135   4.124   3.176   3.596 -0.1806  0.5609  0.2389
   87OSM   H13S 8136   4.018   3.142   3.598  0.1274 -0.9420 -2.8375
   87OSM   H13T 8137   4.142   3.247   3.679  0.3069  0.8932 -0.1491
   87OSM   C14S 8138   4.197   3.052   3.635  0.0724 -0.3316  0.3179
   87OSM   H14S 8139   4.185   2.975   3.555 -2.9255 -0.2300  0.5562
   87OSM   H14T 8140   4.305   3.072   3.648  0.3167 -0.4323 -1.2535
   87OSM   C15S 8141   4.128   2.995   3.762 -0.2750 -0.4955  0.1475
   87OSM   H15S 8142   4.034   2.943   3.733  0.1416 -0.5217 -1.2061
   87OSM   H15T 8143   4.109   3.067   3.845  0.8285 -0.2435  0.1982
   87OSM   C16S 8144   4.218   2.890   3.825 -0.5487 -0.7790  0.1433
   87OSM   H16S 8145   4.313   2.938   3.855  0.0204 -0.2115 -2.3338
   87OSM   H16T 8146   4.239   2.810   3.750 -0.5052  0.4459 -1.2086
   87OSM   C17S 8147   4.147   2.824   3.946 -0.1318  0.0474 -0.4119
   87OSM   H17S 8148   4.141   2.899   4.028 -1.2850 -0.0791 -0.3584
   87OSM   H17T 8149   4.217   2.753   3.996  3.5897  2.4462 -1.8025
   87OSM   C18S 8150   4.011   2.750   3.925  0.5608 -0.5006 -0.0557
   87OSM   H18S 8151   4.027   2.674   3.845  4.2551  0.2028 -0.1400
   87OSM   H18T 8152   3.929   2.822   3.904  0.1128 -1.4835 -1.8913
   87OSM   H18U 8153   3.977   2.695   4.015 -0.7335  2.0247  1.0933
   87OSM    C1F 8154   4.479   3.175   2.581 -0.4841 -0.4106 -0.5358
   87OSM     OF 8155   4.550   3.229   2.497  0.0808  0.0707  0.2805
   87OSM    C2F 8156   4.520   3.039   2.640  0.0669 -0.6433  0.2535
   87OSM    H2F 8157   4.468   2.958   2.585  0.7902 -0.3279 -0.9259
   87OSM    H2G 8158   4.498   3.046   2.748  1.7689  0.9373  0.5416
   87OSM    C3F 8159   4.675   3.011   2.626  0.8671  0.1440 -0.3971
   87OSM    H3F 8160   4.726   3.102   2.663 -1.6919  2.5883 -2.4367
   87OSM    H3G 8161   4.696   3.014   2.517  1.1069 -1.8771 -0.4448
   87OSM    C4F 8162   4.724   2.884   2.701 -0.4808 -0.0854  0.1233
   87OSM    H4F 8163   4.824   2.850   2.666 -1.1610 -1.2623 -0.7699
   87OSM    H4G 8164   4.653   2.801   2.680 -1.2387  0.4238  0.6060
   87OSM    C5F 8165   4.743   2.892   2.852  0.5722 -0.5569  0.5120
   87OSM    H5F 8166   4.648   2.937   2.888  0.1746  1.2215 -2.4444
   87OSM    H5G 8167   4.823   2.965   2.876 -1.1331  1.4267  0.4949
   87OSM    C6F 8168   4.759   2.764   2.932 -0.9166  0.2947  0.2342
   87OSM    H6F 8169   4.841   2.714   2.877 -1.8670 -0.2596 -0.7193
   87OSM    H6G 8170   4.668   2.702   2.914 -0.9098 -0.5900  2.8486
   87OSM    C7F 8171   4.778   2.793   3.080 -0.0889  0.0949 -0.1346
   87OSM    H7F 8172   4.687   2.848   3.112 -0.2507  0.0026 -0.4267
   87OSM    H7G 8173   4.866   2.859   3.086 -0.4207  0.5876 -0.5780
   87OSM    C8F 8174   4.799   2.682   3.181  0.8489  0.1228 -0.1910
   87OSM    H8F 8175   4.709   2.618   3.164 -0.7070  2.5663 -1.7658
   87OSM    H8G 8176   4.805   2.708   3.289 -2.0334  1.2689 -0.2337
   87OSM    C9F 8177   4.918   2.600   3.139  0.5268  0.0025  0.0147
   87OSM    H9F 8178   4.931   2.579   3.032 -1.8508 -2.5351  0.1093
   87OSM   C10F 8179   5.013   2.562   3.220 -0.0395 -0.1738 -0.2334
   87OSM   H10F 8180   5.087   2.494   3.175  0.0601 -0.9693  1.0942
   87OSM   C11F 8181   5.017   2.578   3.375  0.1063  0.4753  0.3079
   87OSM   H11F 8182   5.038   2.479   3.421 -1.2557 -0.2679 -0.5915
   87OSM   H11G 8183   4.923   2.610   3.426  0.6162 -0.1353  1.6643
   87OSM   C12F 8184   5.115   2.688   3.414  0.0951  0.2101 -0.3288
   87OSM   H12F 8185   5.062   2.778   3.379 -0.0832 -0.3726 -1.6217
   87OSM   H12G 8186   5.210   2.688   3.356  1.4110  2.2454  1.6671
   87OSM   C13F 8187   5.149   2.719   3.568 -0.1896 -0.4899 -0.3724
   87OSM   H13F 8188   5.209   2.813   3.567  1.7276 -1.5992  1.2207
   87OSM   H13G 8189   5.214   2.635   3.604 -1.5075 -0.6655  1.7771
   87OSM   C14F 8190   5.035   2.728   3.669 -0.4794  0.2412 -0.7066
   87OSM   H14F 8191   5.084   2.755   3.765 -1.9593  0.6669 -0.0491
   87OSM   H14G 8192   4.999   2.624   3.686  2.2471 -0.3689  2.6595
   87OSM   C15F 8193   4.935   2.824   3.627  0.1456 -0.3878  0.5869
   87OSM   H15F 8194   4.895   2.801   3.526  0.2212 -0.3219  0.5410
   87OSM   H15G 8195   4.970   2.926   3.600 -0.8763 -0.3515 -0.6764
   87OSM   C16F 8196   4.822   2.828   3.730 -0.0673 -0.2570 -0.4582
   87OSM   H16F 8197   4.878   2.850   3.823 -0.3414  2.1119 -0.7869
   87OSM   H16G 8198   4.782   2.726   3.747 -1.7771  0.8515  3.1679
   87OSM   C17F 8199   4.721   2.945   3.698 -0.1627  0.5338 -0.1408
   87OSM   H17F 8200   4.786   3.035   3.685 -0.8154  0.9659 -0.4852
   87OSM   H17G 8201   4.657   2.945   3.788 -0.6892 -1.3550 -0.4788
   87OSM   C18F 8202   4.627   2.917   3.571 -0.4353  0.4903 -0.0628
   87OSM   H18F 8203   4.558   2.831   3.584 -0.9507  0.9506  0.2887
   87OSM   H18G 8204   4.684   2.908   3.476 -0.3134  1.0741 -0.0486
   87OSM   H18H 8205   4.561   3.006   3.570  0.5329  1.3197  2.4652
   88OSM      N 8206   5.164   1.098   1.950 -0.1534  0.4206 -0.1806
   88OSM    C15 8207   5.175   1.187   1.837 -0.1018  0.6431  0.0926
   88OSM   H15A 8208   5.173   1.287   1.879 -0.2937 -0.2995  2.4975
   88OSM   H15B 8209   5.098   1.174   1.763 -0.0604 -2.2408  0.4460
   88OSM   H15C 8210   5.271   1.171   1.790 -0.1626 -2.4370  0.7759
   88OSM    C14 8211   5.125   0.966   1.902  0.6338 -0.6999 -0.5204
   88OSM   H14A 8212   5.137   0.893   1.981 -0.2981 -0.6142 -0.2951
   88OSM   H14B 8213   5.180   0.927   1.817 -0.2239  0.1447 -1.4892
   88OSM   H14C 8214   5.022   0.949   1.877 -0.1663  0.0238  1.9778
   88OSM    C13 8215   5.301   1.082   2.017  0.0613 -0.9753 -0.4350
   88OSM   H13A 8216   5.384   1.067   1.950  1.1163  0.5487  0.4723
   88OSM   H13B 8217   5.306   1.016   2.103  0.9955 -1.2192 -0.6743
   88OSM   H13C 8218   5.317   1.183   2.052  1.2312 -1.7942  1.6015
   88OSM    C12 8219   5.058   1.141   2.044  0.4644 -0.0479  0.4070
   88OSM   H12A 8220   5.052   1.069   2.125  1.5836  1.0768  1.5341
   88OSM   H12B 8221   4.965   1.139   1.988 -0.1301  0.6340  1.3478
   88OSM    C11 8222   5.054   1.286   2.096  0.0098  0.5806  0.3033
   88OSM   H11A 8223   5.154   1.315   2.135 -0.1874  2.6414 -0.5762
   88OSM   H11B 8224   4.983   1.289   2.181  0.3929 -0.6589  0.6875
   88OSM      P 8225   4.903   1.469   1.988  0.0755  0.0774  0.4302
   88OSM    O13 8226   4.906   1.552   1.868  0.0704 -0.0368 -0.2924
   88OSM    O14 8227   4.780   1.380   1.996 -0.4872  0.2265  0.5540
   88OSM    O11 8228   4.914   1.569   2.111 -0.1440  0.2963 -0.2034
   88OSM    O12 8229   5.034   1.382   1.993  0.5356  0.2837 -0.4277
   88OSM    C1S 8230   5.037   1.623   2.173  0.3252 -0.1303 -0.0490
   88OSM    H1S 8231   5.079   1.704   2.109 -0.7701 -1.0193 -2.0090
   88OSM    H1T 8232   5.114   1.543   2.177 -0.7235 -1.3069 -1.9346
   88OSM     NF 8233   5.116   1.746   2.376  0.7328  0.6218 -0.2331
   88OSM    HNF 8234   5.172   1.712   2.451  0.5492  0.8921  0.0244
   88OSM    C2S 8235   4.999   1.682   2.315 -0.0052  0.4375 -0.8139
   88OSM    H2S 8236   4.912   1.746   2.290  0.3557  1.1909 -0.2130
   88OSM    C3S 8237   4.944   1.564   2.411 -1.0611 -0.7676 -0.1702
   88OSM    H3S 8238   5.025   1.496   2.443 -2.3404 -1.4476  1.8662
   88OSM     O3 8239   4.834   1.488   2.354 -0.2512  0.3684 -0.2161
   88OSM    HO3 8240   4.827   1.509   2.261  1.1260 -1.3222 -0.7481
   88OSM    C4S 8241   4.903   1.622   2.545 -0.5128 -0.2294  0.2138
   88OSM    H4S 8242   4.982   1.618   2.621  1.8111  1.0534 -1.9783
   88OSM    C5S 8243   4.781   1.654   2.576  0.0488 -0.3174 -0.8658
   88OSM    H5S 8244   4.699   1.631   2.507 -1.4255 -1.2074  1.0770
   88OSM    C6S 8245   4.727   1.701   2.710 -0.6251  0.5516 -0.4027
   88OSM    H6S 8246   4.703   1.810   2.715 -3.9124 -0.0486 -0.7178
   88OSM    H6T 8247   4.809   1.683   2.783 -0.3825 -0.5720 -0.9268
   88OSM    C7S 8248   4.609   1.615   2.752 -0.5784  0.1270 -1.1577
   88OSM    H7S 8249   4.636   1.508   2.764  0.8836  0.6479  0.9479
   88OSM    H7T 8250   4.537   1.621   2.669  0.0305 -3.2065 -2.0661
   88OSM    C8S 8251   4.533   1.671   2.873  0.3338 -0.1333 -0.0101
   88OSM    H8S 8252   4.439   1.612   2.874 -1.0543  1.8603 -2.0279
   88OSM    H8T 8253   4.501   1.775   2.856 -0.7386 -0.3248  0.7993
   88OSM    C9S 8254   4.619   1.683   3.006  0.1108  0.4244 -0.4565
   88OSM    H9S 8255   4.701   1.757   2.995 -0.2991  0.9501 -0.0351
   88OSM    H9T 8256   4.669   1.586   3.026  0.5630  1.2023  2.8071
   88OSM   C10S 8257   4.535   1.718   3.133  0.3908  0.6599 -0.0216
   88OSM   H10S 8258   4.434   1.672   3.134  1.4484 -1.8111 -1.0583
   88OSM   H10T 8259   4.546   1.828   3.151  0.9314  0.4187  1.2727
   88OSM   C11S 8260   4.598   1.642   3.249  0.2230  0.0232 -0.2178
   88OSM   H11S 8261   4.700   1.682   3.266  1.7520 -2.2545 -3.1823
   88OSM   H11T 8262   4.600   1.537   3.213 -1.2384 -0.5660  1.2774
   88OSM   C12S 8263   4.517   1.654   3.381  0.3554  0.0884 -0.4070
   88OSM   H12S 8264   4.423   1.595   3.376  1.4939 -1.7590 -0.9578
   88OSM   H12T 8265   4.485   1.760   3.389 -2.0970 -0.4987 -1.5243
   88OSM   C13S 8266   4.599   1.620   3.508  0.1146 -0.2375  0.3400
   88OSM   H13S 8267   4.660   1.528   3.495 -2.3794 -2.2548  1.9497
   88OSM   H13T 8268   4.524   1.600   3.587 -0.1720 -1.7276 -0.2662
   88OSM   C14S 8269   4.684   1.742   3.547 -0.3359 -0.0477 -0.6180
   88OSM   H14S 8270   4.608   1.823   3.542  0.2816  0.5069 -1.3415
   88OSM   H14T 8271   4.764   1.772   3.475 -1.1489 -1.2980 -2.1181
   88OSM   C15S 8272   4.747   1.723   3.683 -0.2818 -0.5390  0.0757
   88OSM   H15S 8273   4.826   1.647   3.666 -0.6617 -0.5935 -1.6274
   88OSM   H15T 8274   4.681   1.687   3.766 -0.4018  0.1920  0.3051
   88OSM   C16S 8275   4.814   1.849   3.735  0.8019  0.1117  0.2574
   88OSM   H16S 8276   4.741   1.932   3.725  0.1845 -0.7009 -3.4132
   88OSM   H16T 8277   4.901   1.865   3.667  1.1162  0.3432  0.7124
   88OSM   C17S 8278   4.861   1.828   3.882  0.5899 -0.3114  0.7015
   88OSM   H17S 8279   4.775   1.784   3.938 -0.4373 -0.4218 -0.8971
   88OSM   H17T 8280   4.858   1.933   3.917 -1.0863 -0.4301  0.9743
   88OSM   C18S 8281   5.001   1.772   3.898  0.3148 -0.6673  0.2975
   88OSM   H18S 8282   5.074   1.839   3.849 -0.3393 -0.2577 -0.1383
   88OSM   H18T 8283   5.022   1.676   3.845  0.3080  1.2582 -3.4981
   88OSM   H18U 8284   5.020   1.754   4.006  1.6574  0.7342  0.3218
   88OSM    C1F 8285   5.158   1.858   2.321 -0.2706 -0.0602 -0.4339
   88OSM     OF 8286   5.095   1.915   2.230  0.0245 -0.2337  0.2075
   88OSM    C2F 8287   5.296   1.909   2.368 -0.3538 -1.2418  0.6160
   88OSM    H2F 8288   5.328   1.972   2.283  1.4507 -0.7173  1.6403
   88OSM    H2G 8289   5.372   1.829   2.381  0.4687 -0.2208  2.4268
   88OSM    C3F 8290   5.290   2.009   2.488 -0.0289  0.2970  0.3822
   88OSM    H3F 8291   5.206   2.081   2.477 -1.0887 -0.7693  1.2294
   88OSM    H3G 8292   5.385   2.065   2.502  0.5370 -0.9524  1.7696
   88OSM    C4F 8293   5.261   1.933   2.618  0.0627  0.1141  0.8577
   88OSM    H4F 8294   5.318   1.839   2.635  1.3759  1.0085  1.4429
   88OSM    H4G 8295   5.155   1.900   2.605  0.7364 -1.4811 -1.2121
   88OSM    C5F 8296   5.265   2.024   2.744  0.4149  0.3061  0.6633
   88OSM    H5F 8297   5.197   2.111   2.739 -1.2208 -0.8844  1.2954
   88OSM    H5G 8298   5.367   2.064   2.758  2.5126 -3.5503 -1.7788
   88OSM    C6F 8299   5.229   1.955   2.880  1.0126  0.3008  0.3420
   88OSM    H6F 8300   5.246   2.034   2.956 -0.1143  1.1927 -0.2965
   88OSM    H6G 8301   5.304   1.874   2.896 -0.8805 -1.2425  1.8954
   88OSM    C7F 8302   5.086   1.901   2.886  0.0579  0.0920  0.0156
   88OSM    H7F 8303   5.082   1.807   2.827 -2.6099 -1.3866  2.2697
   88OSM    H7G 8304   5.011   1.967   2.836 -0.5307  0.6370  1.5722
   88OSM    C8F 8305   5.039   1.883   3.035 -0.2459  0.2612 -0.9332
   88OSM    H8F 8306   5.120   1.841   3.098  1.8326  2.6990 -1.8083
   88OSM    H8G 8307   4.969   1.797   3.039 -0.7052  0.6818  2.6119
   88OSM    C9F 8308   4.974   2.002   3.103 -0.4441 -0.2032 -0.4124
   88OSM    H9F 8309   4.873   2.031   3.072 -0.3306 -0.8663 -1.4546
   88OSM   C10F 8310   5.018   2.076   3.209  0.2724  1.3477  0.0401
   88OSM   H10F 8311   4.966   2.167   3.243 -1.4855  1.2066 -2.0488
   88OSM   C11F 8312   5.147   2.048   3.280  0.2689 -0.0197 -0.0563
   88OSM   H11F 8313   5.229   2.122   3.266  0.7326 -0.7801 -1.5832
   88OSM   H11G 8314   5.192   1.950   3.255  0.6905  0.4133 -1.0806
   88OSM   C12F 8315   5.120   2.046   3.429  0.1003  1.2470  0.0981
   88OSM   H12F 8316   5.203   1.992   3.480 -0.0897 -0.3731 -1.2297
   88OSM   H12G 8317   5.030   1.985   3.449 -0.2721  1.7238 -0.0874
   88OSM   C13F 8318   5.115   2.186   3.496  0.3339  0.0802  0.5579
   88OSM   H13F 8319   5.012   2.226   3.484  1.0388  3.2809  3.5060
   88OSM   H13G 8320   5.173   2.261   3.438 -0.4308  0.0240 -0.3154
   88OSM   C14F 8321   5.149   2.185   3.646  0.1154 -0.6645  0.9824
   88OSM   H14F 8322   5.257   2.160   3.658  1.4220  2.2909 -2.8481
   88OSM   H14G 8323   5.095   2.101   3.697 -0.2226 -1.0883 -0.0472
   88OSM   C15F 8324   5.126   2.322   3.708  0.2345 -0.7371 -0.4688
   88OSM   H15F 8325   5.018   2.347   3.706  0.4976  0.4971 -0.0779
   88OSM   H15G 8326   5.186   2.400   3.657 -0.7800 -0.0283 -0.6004
   88OSM   C16F 8327   5.165   2.318   3.855  0.0989  0.4310 -0.4069
   88OSM   H16F 8328   5.270   2.288   3.875 -0.9962 -1.2848  3.7416
   88OSM   H16G 8329   5.103   2.244   3.908 -1.7252  0.1877 -2.7065
   88OSM   C17F 8330   5.139   2.446   3.930  0.1605  0.1087 -0.7065
   88OSM   H17F 8331   5.032   2.469   3.949 -0.4262 -1.2561 -2.1490
   88OSM   H17G 8332   5.178   2.531   3.870 -0.9818  1.3019  0.2103
   88OSM   C18F 8333   5.204   2.432   4.072  0.0062 -0.0747 -0.4955
   88OSM   H18F 8334   5.178   2.528   4.121 -1.0777  1.6336 -4.0300
   88OSM   H18G 8335   5.312   2.443   4.051 -0.0286  0.6557 -0.3298
   88OSM   H18H 8336   5.182   2.343   4.134 -0.1189  0.8482  0.8123
   89OSM      N 8337   5.914   4.619   1.743 -0.1422  0.0065  0.1041
   89OSM    C15 8338   5.826   4.736   1.786  0.4958  0.6731 -0.3598
   89OSM   H15A 8339   5.767   4.769   1.702  1.1413 -0.8393 -1.4804
   89OSM   H15B 8340   5.886   4.819   1.820 -0.2844  1.2770 -0.4471
   89OSM   H15C 8341   5.762   4.712   1.869  0.6353  0.8313 -0.2064
   89OSM    C14 8342   5.822   4.520   1.671  0.0018  0.9007 -0.0167
   89OSM   H14A 8343   5.773   4.576   1.592 -0.8821  1.6548  1.0435
   89OSM   H14B 8344   5.746   4.470   1.729  0.7336  0.5936  0.6898
   89OSM   H14C 8345   5.872   4.444   1.613 -3.3563  0.0776 -2.1061
   89OSM    C13 8346   6.026   4.668   1.646  0.2993 -0.4886 -0.1791
   89OSM   H13A 8347   6.098   4.588   1.632 -0.5118 -1.2414 -0.1186
   89OSM   H13B 8348   6.079   4.754   1.684  0.9372 -0.0055 -2.0507
   89OSM   H13C 8349   5.986   4.701   1.551 -0.1065  0.7812  0.4076
   89OSM    C12 8350   5.970   4.544   1.861 -0.4943 -0.3091 -0.7683
   89OSM   H12A 8351   5.888   4.507   1.921 -1.8166  2.1720 -0.8876
   89OSM   H12B 8352   6.031   4.614   1.915 -2.6749  1.1087 -0.0226
   89OSM    C11 8353   6.063   4.424   1.819 -0.0413 -0.5787 -0.0822
   89OSM   H11A 8354   6.025   4.370   1.730 -1.2035  1.4013 -0.8531
   89OSM   H11B 8355   6.069   4.356   1.907 -1.5905 -0.3685  0.2124
   89OSM      P 8356   6.315   4.479   1.877  0.1557 -0.1058  0.0907
   89OSM    O13 8357   6.338   4.348   1.945  0.3606  0.2715  0.6935
   89OSM    O14 8358   6.432   4.528   1.801 -0.6998  0.0182 -0.2975
   89OSM    O11 8359   6.275   4.588   1.981  0.4051 -0.4804  0.4458
   89OSM    O12 8360   6.193   4.464   1.776 -0.9450 -0.1006 -1.0137
   89OSM    C1S 8361   6.232   4.540   2.114  0.1121  0.3210  0.3450
   89OSM    H1S 8362   6.307   4.479   2.169 -0.7162 -3.0371 -1.8854
   89OSM    H1T 8363   6.134   4.487   2.114 -0.3764  1.2124  0.4401
   89OSM     NF 8364   6.147   4.638   2.330 -0.1263  0.2208 -1.2595
   89OSM    HNF 8365   6.059   4.675   2.357  0.6771  2.1543 -1.1262
   89OSM    C2S 8366   6.205   4.674   2.205 -0.4642  0.0325  0.0875
   89OSM    H2S 8367   6.303   4.717   2.234  1.0915 -2.9807 -0.3017
   89OSM    C3S 8368   6.122   4.781   2.128  0.2369 -0.1298  0.8636
   89OSM    H3S 8369   6.036   4.727   2.083  1.0257 -0.1817 -0.6731
   89OSM     O3 8370   6.183   4.830   2.007  0.0447 -0.0820 -0.0516
   89OSM    HO3 8371   6.229   4.750   1.980  0.2194  0.1047 -0.3211
   89OSM    C4S 8372   6.078   4.894   2.222  0.0784 -0.5935  0.0846
   89OSM    H4S 8373   5.969   4.903   2.225 -0.1115 -2.2876 -0.4648
   89OSM    C5S 8374   6.157   4.987   2.279 -0.4036  0.1145 -0.3337
   89OSM    H5S 8375   6.261   4.998   2.245  0.0949  1.2967  1.4124
   89OSM    C6S 8376   6.119   5.101   2.367  0.9455 -0.3158  0.0876
   89OSM    H6S 8377   6.077   5.182   2.305 -3.5019 -1.1758  1.6090
   89OSM    H6T 8378   6.205   5.136   2.428  0.1958  0.5850  0.6501
   89OSM    C7S 8379   6.007   5.053   2.471  0.2744 -0.0841  0.1208
   89OSM    H7S 8380   6.062   4.996   2.548  3.6646  1.4214 -0.9384
   89OSM    H7T 8381   5.932   4.982   2.432  0.2420 -0.2461  0.4745
   89OSM    C8S 8382   5.932   5.178   2.538  0.0562  0.8121 -0.3298
   89OSM    H8S 8383   5.870   5.150   2.626  1.4830 -0.0241  0.4457
   89OSM    H8T 8384   5.864   5.211   2.457 -0.4699 -0.1162 -0.2835
   89OSM    C9S 8385   6.021   5.287   2.586 -0.5788 -0.1689  0.2340
   89OSM    H9S 8386   6.045   5.358   2.504  1.6409 -0.6970  0.3643
   89OSM    H9T 8387   6.127   5.261   2.606 -0.2954 -1.0804 -2.0913
   89OSM   C10S 8388   5.964   5.364   2.714 -0.2137  0.6126  0.5678
   89OSM   H10S 8389   5.855   5.377   2.695 -0.1606  0.4585  0.1320
   89OSM   H10T 8390   5.997   5.469   2.699  0.6131  0.5856  2.0474
   89OSM   C11S 8391   5.991   5.292   2.847  0.4107 -0.3174  0.6732
   89OSM   H11S 8392   6.091   5.248   2.866  0.4523 -0.2284  0.6623
   89OSM   H11T 8393   5.928   5.201   2.851 -0.1333  0.0054 -0.2341
   89OSM   C12S 8394   5.958   5.390   2.959 -0.1569 -0.5035 -0.0279
   89OSM   H12S 8395   5.853   5.423   2.947 -0.1951 -0.1740  1.1276
   89OSM   H12T 8396   6.021   5.481   2.965  1.5386 -1.6292  0.0254
   89OSM   C13S 8397   5.958   5.335   3.102  0.1169  0.2372  0.1647
   89OSM   H13S 8398   6.060   5.312   3.138  0.3793 -0.9996 -1.2721
   89OSM   H13T 8399   5.894   5.244   3.108  0.3429  0.0734  0.0998
   89OSM   C14S 8400   5.892   5.443   3.194 -0.1746  0.2177  1.1204
   89OSM   H14S 8401   5.806   5.487   3.139  1.0566  1.3261 -0.0189
   89OSM   H14T 8402   5.956   5.533   3.208 -1.8792  1.5187  0.9680
   89OSM   C15S 8403   5.840   5.385   3.327  0.0508 -0.1252 -0.3242
   89OSM   H15S 8404   5.785   5.292   3.300  1.6545 -1.7293  1.6032
   89OSM   H15T 8405   5.777   5.466   3.369 -0.0544 -0.5613  0.3597
   89OSM   C16S 8406   5.953   5.348   3.417 -0.9759 -0.3224 -0.3315
   89OSM   H16S 8407   6.019   5.437   3.408  0.6111 -1.4621 -0.5862
   89OSM   H16T 8408   6.002   5.254   3.380 -3.1280 -1.9915  0.8483
   89OSM   C17S 8409   5.922   5.339   3.571 -0.1752 -0.2707  0.5564
   89OSM   H17S 8410   5.855   5.252   3.584 -0.5253 -0.3614 -1.4616
   89OSM   H17T 8411   5.861   5.430   3.588  4.0006  2.8332  0.5252
   89OSM   C18S 8412   6.040   5.341   3.666  0.8927  0.3052 -0.3525
   89OSM   H18S 8413   6.093   5.244   3.667 -2.3037 -1.6017  1.3348
   89OSM   H18T 8414   5.991   5.350   3.766 -1.8179  0.4394 -1.6064
   89OSM   H18U 8415   6.104   5.431   3.657  1.6460 -0.3379 -1.6090
   89OSM    C1F 8416   6.206   4.557   2.420 -0.1372 -1.0217  0.9169
   89OSM     OF 8417   6.308   4.494   2.392 -0.2118  0.1464 -0.1642
   89OSM    C2F 8418   6.137   4.543   2.549 -0.3049 -0.9208 -0.2065
   89OSM    H2F 8419   6.140   4.438   2.586  2.0967 -1.2190 -1.0934
   89OSM    H2G 8420   6.027   4.559   2.539 -0.0848  1.2554  0.4750
   89OSM    C3F 8421   6.190   4.648   2.651 -0.0499  0.1995  0.0120
   89OSM    H3F 8422   6.204   4.747   2.603 -1.2743 -1.4795 -4.3155
   89OSM    H3G 8423   6.291   4.612   2.680 -0.0996 -0.2809 -0.3961
   89OSM    C4F 8424   6.092   4.659   2.770 -0.6149  0.2145 -0.1850
   89OSM    H4F 8425   6.068   4.563   2.820  0.7524  0.3513  0.7824
   89OSM    H4G 8426   5.989   4.693   2.747  0.4053  3.9505 -0.0017
   89OSM    C5F 8427   6.152   4.732   2.889 -0.7045 -0.9089  0.1889
   89OSM    H5F 8428   6.192   4.830   2.854  0.0174 -0.4360  2.2138
   89OSM    H5G 8429   6.232   4.672   2.937  0.6880  1.1393  0.5641
   89OSM    C6F 8430   6.051   4.770   2.992  0.5322 -0.1924 -0.5549
   89OSM    H6F 8431   6.085   4.846   3.066 -1.4758  0.5678 -0.3614
   89OSM    H6G 8432   6.011   4.684   3.050  2.0061  0.7370  2.0449
   89OSM    C7F 8433   5.941   4.855   2.932 -0.2111  0.2245  0.9249
   89OSM    H7F 8434   5.865   4.783   2.893  0.7551 -0.2655 -0.1171
   89OSM    H7G 8435   5.976   4.907   2.840 -1.4491 -0.3077  0.1115
   89OSM    C8F 8436   5.889   4.965   3.027  0.1070  0.5463 -0.1732
   89OSM    H8F 8437   5.816   5.029   2.973 -0.8315  1.3480  1.9115
   89OSM    H8G 8438   5.973   5.031   3.054  0.5823  0.9407 -2.4580
   89OSM    C9F 8439   5.799   4.904   3.137 -0.9011  0.1868  0.6707
   89OSM    H9F 8440   5.697   4.882   3.101 -1.2329 -2.2641  2.8011
   89OSM   C10F 8441   5.832   4.871   3.259 -0.3951 -0.1312 -0.4357
   89OSM   H10F 8442   5.760   4.814   3.319 -0.1293  1.5380  1.5978
   89OSM   C11F 8443   5.971   4.882   3.318 -0.1085  0.0177 -0.6538
   89OSM   H11F 8444   6.019   4.972   3.274 -1.4442  0.3474 -1.5030
   89OSM   H11G 8445   6.028   4.791   3.291 -1.8139 -1.3889  0.2553
   89OSM   C12F 8446   5.982   4.908   3.470  0.2144  0.9899 -0.6825
   89OSM   H12F 8447   5.966   5.018   3.478 -0.9672  0.8168 -0.5802
   89OSM   H12G 8448   6.087   4.903   3.506  0.1327  2.1232 -0.2267
   89OSM   C13F 8449   5.898   4.820   3.568  0.2293 -0.8434 -0.2294
   89OSM   H13F 8450   5.931   4.714   3.559  0.1772 -0.7047 -2.7841
   89OSM   H13G 8451   5.789   4.829   3.549  0.3478 -0.5744 -0.7937
   89OSM   C14F 8452   5.917   4.858   3.711 -0.5509  0.6421 -1.0557
   89OSM   H14F 8453   5.868   4.957   3.723  2.0426  1.9737 -0.7063
   89OSM   H14G 8454   6.024   4.883   3.729 -1.3055  1.6915  3.3578
   89OSM   C15F 8455   5.864   4.750   3.799  0.6263  0.2947 -0.4377
   89OSM   H15F 8456   5.935   4.664   3.803  0.2196 -0.0153  0.8402
   89OSM   H15G 8457   5.772   4.705   3.756 -0.8435  2.0501  0.7210
   89OSM   C16F 8458   5.833   4.797   3.941  0.0250 -0.3344 -0.0225
   89OSM   H16F 8459   5.754   4.875   3.934 -0.4022 -0.8200 -0.8040
   89OSM   H16G 8460   5.913   4.860   3.986 -0.5010  0.4437 -0.1573
   89OSM   C17F 8461   5.779   4.691   4.035 -0.5553 -0.2766 -0.3088
   89OSM   H17F 8462   5.860   4.614   4.041  0.0263  0.2180 -1.4809
   89OSM   H17G 8463   5.686   4.648   3.993 -1.2352  1.3518 -0.5206
   89OSM   C18F 8464   5.745   4.751   4.178  0.1625 -0.2990 -0.2834
   89OSM   H18F 8465   5.697   4.670   4.237  2.9245 -0.4806  1.9858
   89OSM   H18G 8466   5.676   4.837   4.162  2.2678  2.0607  2.1461
   89OSM   H18H 8467   5.841   4.784   4.225  1.4299 -1.7400 -1.7582
   90OSM      N 8468   5.124   5.842   2.077 -0.1241 -0.2707 -0.0540
   90OSM    C15 8469   5.077   5.743   2.185  0.0955 -0.3128  0.0711
   90OSM   H15A 8470   5.137   5.738   2.275  3.2717 -3.0378 -1.9227
   90OSM   H15B 8471   5.093   5.646   2.140  3.0156  0.3036 -0.4284
   90OSM   H15C 8472   4.970   5.744   2.195 -0.0983  1.7101 -1.6622
   90OSM    C14 8473   5.045   5.837   1.947 -0.3355 -0.1999 -0.3778
   90OSM   H14A 8474   5.040   5.734   1.914  0.8866  0.1649 -1.8058
   90OSM   H14B 8475   5.093   5.896   1.870 -1.1064 -0.0494 -0.7540
   90OSM   H14C 8476   4.948   5.880   1.967 -0.1808 -0.6814  1.6301
   90OSM    C13 8477   5.106   5.977   2.141 -0.4398  0.7377  0.5293
   90OSM   H13A 8478   5.001   5.998   2.155 -0.6366 -1.1551  2.4571
   90OSM   H13B 8479   5.147   6.051   2.074  1.1074 -0.4068  0.1550
   90OSM   H13C 8480   5.151   5.973   2.240 -0.2658  0.3675  0.4350
   90OSM    C12 8481   5.270   5.812   2.043 -0.6809 -0.0093 -0.3749
   90OSM   H12A 8482   5.346   5.833   2.116  1.4986  0.8146 -2.7075
   90OSM   H12B 8483   5.296   5.891   1.973 -0.5758 -0.1941 -0.5468
   90OSM    C11 8484   5.293   5.672   1.977 -0.3417 -0.2038 -0.0381
   90OSM   H11A 8485   5.387   5.680   1.919 -1.4624  1.4798 -1.7739
   90OSM   H11B 8486   5.211   5.646   1.907  0.3705  1.0161 -1.3696
   90OSM      P 8487   5.417   5.554   2.178  0.1363 -0.0996 -0.1858
   90OSM    O13 8488   5.493   5.430   2.155  0.4491  0.2124 -0.3520
   90OSM    O14 8489   5.485   5.685   2.195  0.8603  0.8084  0.7647
   90OSM    O11 8490   5.340   5.542   2.314  0.4682 -0.4563 -0.1266
   90OSM    O12 8491   5.300   5.563   2.069  0.6764 -0.0374 -0.2124
   90OSM    C1S 8492   5.272   5.424   2.346  0.1845  0.5996  0.0951
   90OSM    H1S 8493   5.337   5.335   2.336 -1.1247 -0.6354  1.9074
   90OSM    H1T 8494   5.190   5.407   2.274 -0.5559 -2.2389  1.4816
   90OSM     NF 8495   5.113   5.319   2.503  0.0453  0.2202  0.2037
   90OSM    HNF 8496   5.020   5.338   2.472  0.7704  1.3452 -1.4450
   90OSM    C2S 8497   5.212   5.424   2.493 -0.2914 -0.1397 -1.1059
   90OSM    H2S 8498   5.294   5.395   2.563 -0.8636 -2.0466 -1.1779
   90OSM    C3S 8499   5.144   5.557   2.537  0.3273  0.4188  0.2987
   90OSM    H3S 8500   5.054   5.564   2.472  0.4538 -0.9148 -0.0545
   90OSM     O3 8501   5.213   5.673   2.507  0.0855  0.0925 -0.3543
   90OSM    HO3 8502   5.276   5.642   2.441  0.1544 -1.4883  0.4252
   90OSM    C4S 8503   5.094   5.544   2.677  0.1995 -0.2441 -0.3555
   90OSM    H4S 8504   4.995   5.496   2.671  0.9490 -1.7442 -1.6598
   90OSM    C5S 8505   5.153   5.577   2.796  0.7079 -0.0893 -0.4999
   90OSM    H5S 8506   5.245   5.636   2.787  0.0628  0.8774 -0.8425
   90OSM    C6S 8507   5.121   5.551   2.942  0.4362  0.1078  0.6719
   90OSM    H6S 8508   5.054   5.634   2.974  1.8159  0.9800  1.4036
   90OSM    H6T 8509   5.215   5.566   3.000  1.6642 -1.6144 -0.7595
   90OSM    C7S 8510   5.060   5.417   2.986  0.4837  0.6964 -0.1034
   90OSM    H7S 8511   5.109   5.327   2.944  1.4112  0.6075  1.1112
   90OSM    H7T 8512   4.954   5.419   2.954 -0.0924  1.2572  1.6927
   90OSM    C8S 8513   5.052   5.398   3.140  0.0763  0.1495  0.0851
   90OSM    H8S 8514   5.015   5.492   3.188  1.2543  0.1116  1.1059
   90OSM    H8T 8515   5.155   5.394   3.180  0.0164  0.8986  0.3409
   90OSM    C9S 8516   4.960   5.281   3.171  0.0232 -0.8141 -0.2288
   90OSM    H9S 8517   5.002   5.196   3.113 -0.8470 -0.0911 -1.9807
   90OSM    H9T 8518   4.859   5.308   3.133 -0.0206  1.8987  1.5070
   90OSM   C10S 8519   4.940   5.257   3.322 -0.3778 -0.2856 -0.8671
   90OSM   H10S 8520   4.865   5.176   3.337 -0.8167  0.1933 -0.4569
   90OSM   H10T 8521   4.914   5.356   3.365  1.5029  0.1256 -0.5986
   90OSM   C11S 8522   5.073   5.207   3.379  0.3718  0.0948 -0.2640
   90OSM   H11S 8523   5.161   5.262   3.339  0.7950  0.4214  1.0678
   90OSM   H11T 8524   5.104   5.106   3.346 -1.2829 -0.2089 -0.9770
   90OSM   C12S 8525   5.073   5.201   3.536  0.3303  0.1585  1.1591
   90OSM   H12S 8526   5.176   5.177   3.570  0.2485 -2.0901  0.0232
   90OSM   H12T 8527   5.007   5.114   3.557  0.5353 -0.2038  0.3462
   90OSM   C13S 8528   5.001   5.322   3.605 -0.5163 -0.7896  0.2819
   90OSM   H13S 8529   4.890   5.323   3.601 -0.5588  2.4644 -1.1605
   90OSM   H13T 8530   5.028   5.410   3.544 -0.6319 -1.5772 -0.9476
   90OSM   C14S 8531   5.040   5.349   3.749  0.1700 -0.5658  0.2306
   90OSM   H14S 8532   5.150   5.366   3.751 -0.2428  2.5819  0.5767
   90OSM   H14T 8533   5.021   5.261   3.815 -1.0248 -0.7646 -0.3516
   90OSM   C15S 8534   4.973   5.482   3.797  0.3864 -0.0154  0.4374
   90OSM   H15S 8535   4.865   5.475   3.771  0.3569 -0.5355  0.6942
   90OSM   H15T 8536   5.019   5.562   3.735 -1.6443  1.0327  0.1647
   90OSM   C16S 8537   4.987   5.502   3.948 -0.4084  0.4958 -0.0660
   90OSM   H16S 8538   4.924   5.428   4.001 -1.1589  1.3619  0.2845
   90OSM   H16T 8539   4.944   5.604   3.962 -5.0575 -1.0400 -1.4493
   90OSM   C17S 8540   5.132   5.490   3.999 -0.3739 -0.2801  0.0408
   90OSM   H17S 8541   5.191   5.555   3.931 -1.9583  1.5544  0.3323
   90OSM   H17T 8542   5.172   5.387   3.984 -0.0119 -0.6024  2.8096
   90OSM   C18S 8543   5.154   5.517   4.147  0.7309 -0.0933 -0.1324
   90OSM   H18S 8544   5.263   5.530   4.163  1.2737 -0.2706 -3.1400
   90OSM   H18T 8545   5.127   5.426   4.205  0.7684 -0.0591 -0.0623
   90OSM   H18U 8546   5.106   5.610   4.183  1.5244  2.0506 -4.0700
   90OSM    C1F 8547   5.151   5.186   2.520 -0.6326 -0.3268  0.0092
   90OSM     OF 8548   5.268   5.157   2.521 -0.3293  0.0073 -0.3937
   90OSM    C2F 8549   5.042   5.082   2.524  0.4433  0.1507  0.1418
   90OSM    H2F 8550   4.977   5.104   2.436  1.1306  0.4790 -0.2940
   90OSM    H2G 8551   4.967   5.099   2.604 -2.0235  1.8706 -2.3232
   90OSM    C3F 8552   5.099   4.944   2.498 -0.2153  0.1585  0.4293
   90OSM    H3F 8553   5.175   4.945   2.417  1.7229  1.0315  2.1446
   90OSM    H3G 8554   5.006   4.893   2.467  0.0025 -0.0826  0.1692
   90OSM    C4F 8555   5.149   4.871   2.618 -0.3577  0.0839 -0.1761
   90OSM    H4F 8556   5.223   4.943   2.659 -1.0042  1.3556 -1.1603
   90OSM    H4G 8557   5.192   4.773   2.588  2.0992  0.6194  1.3678
   90OSM    C5F 8558   5.041   4.851   2.724  0.4108 -0.0778 -0.0414
   90OSM    H5F 8559   4.950   4.804   2.680 -0.8644  1.4958  0.7948
   90OSM    H5G 8560   5.012   4.949   2.767  0.4472 -0.4578  0.8828
   90OSM    C6F 8561   5.084   4.752   2.834 -0.0506  0.0800  0.1562
   90OSM    H6F 8562   5.186   4.779   2.870  0.3061 -2.1034  0.8991
   90OSM    H6G 8563   5.101   4.660   2.775 -0.2063 -1.0373  1.8039
   90OSM    C7F 8564   4.968   4.748   2.934 -1.1227  0.1224  0.1846
   90OSM    H7F 8565   4.972   4.661   3.003  2.0859  0.4896  0.6156
   90OSM    H7G 8566   4.877   4.729   2.873 -0.5056 -1.9186 -0.1914
   90OSM    C8F 8567   4.950   4.880   3.023 -0.5145  0.3266  0.3596
   90OSM    H8F 8568   4.970   4.971   2.963  1.7016  0.0051  0.5134
   90OSM    H8G 8569   5.036   4.871   3.093  0.0620 -2.4119 -0.5490
   90OSM    C9F 8570   4.812   4.893   3.089  0.4670  0.1626  0.1997
   90OSM    H9F 8571   4.730   4.940   3.032  0.1699  0.0065  0.4917
   90OSM   C10F 8572   4.774   4.843   3.213  0.5481  0.3752  0.0664
   90OSM   H10F 8573   4.665   4.851   3.231  0.4686  2.1411 -0.9687
   90OSM   C11F 8574   4.855   4.772   3.321  0.3811 -0.9519 -0.3839
   90OSM   H11F 8575   4.963   4.775   3.295  0.0315  0.4717 -1.8569
   90OSM   H11G 8576   4.818   4.668   3.335 -1.2780 -0.0839  2.6230
   90OSM   C12F 8577   4.830   4.847   3.454 -0.8452 -0.4231 -0.1927
   90OSM   H12F 8578   4.725   4.871   3.481 -0.7288  0.7113 -0.6993
   90OSM   H12G 8579   4.882   4.945   3.444  0.0074 -1.0393 -2.2503
   90OSM   C13F 8580   4.885   4.771   3.572  0.0738  0.0181 -0.5041
   90OSM   H13F 8581   4.995   4.760   3.558  0.1074  0.6449 -0.7552
   90OSM   H13G 8582   4.839   4.670   3.565 -0.3682  0.2969 -1.8188
   90OSM   C14F 8583   4.851   4.841   3.706 -0.5733  0.4320 -0.3593
   90OSM   H14F 8584   4.740   4.844   3.713 -0.7515  1.2127 -2.5926
   90OSM   H14G 8585   4.884   4.947   3.710  0.9919  0.0525 -1.8710
   90OSM   C15F 8586   4.908   4.770   3.831  0.4840  0.7379  0.4994
   90OSM   H15F 8587   4.851   4.798   3.923 -1.1190 -1.7891  0.3761
   90OSM   H15G 8588   5.014   4.796   3.850  1.9195 -1.4720 -3.3827
   90OSM   C16F 8589   4.896   4.614   3.837 -0.6074 -0.5992 -0.2822
   90OSM   H16F 8590   4.954   4.575   3.750 -0.3905  0.2787 -0.5373
   90OSM   H16G 8591   4.792   4.575   3.841  0.2785 -3.0897  0.7515
   90OSM   C17F 8592   4.968   4.558   3.955 -0.1860 -0.1479 -0.1631
   90OSM   H17F 8593   4.923   4.607   4.044  0.5914  0.4597 -0.0948
   90OSM   H17G 8594   5.077   4.583   3.955  0.0161 -1.0049 -0.0429
   90OSM   C18F 8595   4.943   4.406   3.983  0.6664  0.0983  0.0319
   90OSM   H18F 8596   5.020   4.371   4.056 -0.9763 -0.0613  1.7679
   90OSM   H18G 8597   4.943   4.346   3.890 -1.0758 -0.5214  0.4036
   90OSM   H18H 8598   4.844   4.379   4.024  0.1381  0.7519 -0.7726
   91OSM      N 8599   0.174   4.602   1.881 -0.2355  0.1739  0.1703
   91OSM    C15 8600   0.276   4.701   1.917 -0.6742  0.6469 -0.4924
   91OSM   H15A 8601   0.332   4.727   1.828 -1.6383  0.7244 -1.0956
   91OSM   H15B 8602   0.336   4.653   1.992 -2.6673  0.4019  1.0265
   91OSM   H15C 8603   0.241   4.795   1.958  1.7783  1.1779  0.5418
   91OSM    C14 8604   0.072   4.676   1.799 -0.1872 -0.1539 -0.2989
   91OSM   H14A 8605   0.107   4.716   1.705 -0.8699 -0.3451 -0.6432
   91OSM   H14B 8606   0.025   4.761   1.845 -1.3363 -0.3704 -1.0230
   91OSM   H14C 8607  -0.007   4.609   1.766  0.6695 -0.6931 -1.3187
   91OSM    C13 8608   0.230   4.491   1.799  0.1897  0.0286 -0.5914
   91OSM   H13A 8609   0.271   4.410   1.858 -1.6060 -1.2307 -0.9511
   91OSM   H13B 8610   0.300   4.532   1.727  1.5909  0.5567  1.0174
   91OSM   H13C 8611   0.141   4.446   1.757 -0.0603 -0.6081  0.5821
   91OSM    C12 8612   0.115   4.547   2.005 -0.4126  0.5933  0.5586
   91OSM   H12A 8613   0.072   4.618   2.074 -1.4409 -1.9409  2.7001
   91OSM   H12B 8614   0.199   4.502   2.056  0.1956 -1.7101 -2.2143
   91OSM    C11 8615  -0.005   4.442   1.994 -0.3869 -0.1261  0.3652
   91OSM   H11A 8616  -0.080   4.484   1.924  0.6810 -1.1601 -1.4818
   91OSM   H11B 8617  -0.041   4.428   2.098  0.4955  0.3443  0.7534
   91OSM      P 8618   0.116   4.213   2.016  0.0682 -0.3116 -0.1998
   91OSM    O13 8619   0.020   4.136   2.089  0.3284  0.2335  0.5144
   91OSM    O14 8620   0.201   4.153   1.911  0.4803  0.4240  0.6093
   91OSM    O11 8621   0.207   4.307   2.110 -0.0453 -0.5117  0.0140
   91OSM    O12 8622   0.029   4.318   1.939 -0.2582  0.2716 -0.0180
   91OSM    C1S 8623   0.197   4.306   2.256 -0.1834 -0.4584  0.3815
   91OSM    H1S 8624   0.198   4.201   2.291  1.0467 -0.5507  0.1232
   91OSM    H1T 8625   0.099   4.341   2.294 -0.5989 -0.3031 -0.7736
   91OSM     NF 8626   0.309   4.378   2.470  0.1157 -0.0304 -0.1988
   91OSM    HNF 8627   0.300   4.473   2.500  1.6183  0.3330 -0.8073
   91OSM    C2S 8628   0.322   4.370   2.325 -0.3925 -0.0129  0.1191
   91OSM    H2S 8629   0.411   4.306   2.306 -1.1833 -0.7736 -1.2460
   91OSM    C3S 8630   0.359   4.504   2.251  0.4061  0.1751 -0.1211
   91OSM    H3S 8631   0.278   4.579   2.263  0.5797  0.3269  0.1227
   91OSM     O3 8632   0.395   4.485   2.116 -0.3983 -0.0030  0.2317
   91OSM    HO3 8633   0.392   4.391   2.098 -0.5726 -0.1364  0.9099
   91OSM    C4S 8634   0.476   4.552   2.323 -0.6665  0.1837 -0.0262
   91OSM    H4S 8635   0.565   4.488   2.314 -0.6686  0.4354 -2.5429
   91OSM    C5S 8636   0.490   4.669   2.387 -0.2318 -0.4908 -0.4535
   91OSM    H5S 8637   0.413   4.748   2.380  0.0908 -0.2907 -2.0402
   91OSM    C6S 8638   0.618   4.711   2.449 -0.5587  0.3951  0.0469
   91OSM    H6S 8639   0.641   4.806   2.395 -0.3985 -0.3117 -1.1617
   91OSM    H6T 8640   0.697   4.636   2.429 -0.6227  0.7250 -1.5507
   91OSM    C7S 8641   0.621   4.742   2.596 -0.1292 -0.2326 -0.0805
   91OSM    H7S 8642   0.611   4.640   2.638  0.4511 -1.6338 -3.0830
   91OSM    H7T 8643   0.544   4.818   2.626  2.6169  2.6733  0.1674
   91OSM    C8S 8644   0.752   4.800   2.651  0.6499  0.3769 -0.2633
   91OSM    H8S 8645   0.764   4.903   2.613 -1.8349 -0.1706 -2.9373
   91OSM    H8T 8646   0.829   4.734   2.606  0.2840 -1.6090  1.8047
   91OSM    C9S 8647   0.777   4.804   2.803  0.5696 -0.5584 -0.0372
   91OSM    H9S 8648   0.763   4.706   2.854  1.6375 -0.3410  0.7211
   91OSM    H9T 8649   0.693   4.864   2.844  0.0352 -0.3573 -1.3802
   91OSM   C10S 8650   0.910   4.863   2.862 -0.3040  0.4830  0.4208
   91OSM   H10S 8651   0.936   4.929   2.777 -0.6658  1.9757  1.4178
   91OSM   H10T 8652   0.985   4.783   2.879 -0.2910  0.4030 -0.0165
   91OSM   C11S 8653   0.906   4.954   2.983 -0.0586  0.2399 -0.0318
   91OSM   H11S 8654   0.827   5.027   2.957  1.5423  1.7133 -0.9964
   91OSM   H11T 8655   1.002   5.006   3.003 -0.2219  0.7383 -0.5323
   91OSM   C12S 8656   0.868   4.882   3.117  0.2150  0.5604  0.1603
   91OSM   H12S 8657   0.774   4.831   3.088 -0.2412  1.2644  0.3523
   91OSM   H12T 8658   0.847   4.963   3.190 -0.8799  0.4715 -0.0357
   91OSM   C13S 8659   0.976   4.787   3.172 -0.2506  0.3994 -0.6370
   91OSM   H13S 8660   1.064   4.848   3.203 -0.1495 -0.2713  0.4572
   91OSM   H13T 8661   1.004   4.718   3.090  0.2777  0.8274 -0.8266
   91OSM   C14S 8662   0.940   4.697   3.296  0.0863 -0.1802  0.7087
   91OSM   H14S 8663   0.847   4.638   3.279 -1.3006  1.4058  2.3966
   91OSM   H14T 8664   0.928   4.770   3.380 -1.4340  1.5943 -0.9370
   91OSM   C15S 8665   1.053   4.602   3.349 -0.5948 -0.3216  0.4868
   91OSM   H15S 8666   1.026   4.570   3.451  0.3922 -0.1998  0.8014
   91OSM   H15T 8667   1.145   4.666   3.349 -1.2788  0.6965 -0.1396
   91OSM   C16S 8668   1.071   4.486   3.246 -0.3435  0.0361 -0.4168
   91OSM   H16S 8669   1.101   4.536   3.151 -1.8651  1.3060 -0.2670
   91OSM   H16T 8670   0.970   4.441   3.240 -1.1918  1.7383  0.2754
   91OSM   C17S 8671   1.174   4.372   3.284  0.2043 -0.2517 -0.0920
   91OSM   H17S 8672   1.164   4.295   3.204  3.0644 -2.1533  1.2068
   91OSM   H17T 8673   1.138   4.327   3.379  1.1687  1.1295  0.9473
   91OSM   C18S 8674   1.317   4.412   3.285  0.4142 -0.1053 -1.0176
   91OSM   H18S 8675   1.331   4.492   3.360 -1.4283  0.0308 -0.7885
   91OSM   H18T 8676   1.343   4.468   3.193 -2.1088  0.6935 -1.3102
   91OSM   H18U 8677   1.391   4.331   3.305  1.5732  1.1777  0.0696
   91OSM    C1F 8678   0.288   4.276   2.552 -0.3493 -0.5112 -0.1175
   91OSM     OF 8679   0.302   4.158   2.522 -0.5385 -0.1367  1.2062
   91OSM    C2F 8680   0.242   4.311   2.689  0.1967 -0.1662 -0.0897
   91OSM    H2F 8681   0.131   4.313   2.692  0.0632  1.0307 -2.9186
   91OSM    H2G 8682   0.269   4.418   2.702  1.0122 -0.3860  0.0647
   91OSM    C3F 8683   0.298   4.222   2.796  0.4100 -0.3654  0.5061
   91OSM    H3F 8684   0.407   4.233   2.815  0.6622 -1.7032 -0.0987
   91OSM    H3G 8685   0.282   4.115   2.771 -0.8169 -0.0717 -0.0661
   91OSM    C4F 8686   0.244   4.247   2.937 -0.2335 -0.4765 -0.4842
   91OSM    H4F 8687   0.298   4.178   3.006 -0.3274  0.6054  0.7186
   91OSM    H4G 8688   0.140   4.209   2.946 -0.6869  0.7986 -0.1237
   91OSM    C5F 8689   0.251   4.389   2.981 -0.1386 -0.2188 -0.1400
   91OSM    H5F 8690   0.158   4.438   2.944 -0.9577 -0.8615  1.0000
   91OSM    H5G 8691   0.345   4.435   2.944 -0.4986  0.9679  0.3808
   91OSM    C6F 8692   0.263   4.397   3.131  0.4653 -0.9659  0.5879
   91OSM    H6F 8693   0.300   4.495   3.169 -0.3601 -0.2954 -0.2955
   91OSM    H6G 8694   0.339   4.322   3.163 -0.1796 -1.6961  0.4268
   91OSM    C7F 8695   0.128   4.374   3.204  0.0982 -0.5129 -0.7899
   91OSM    H7F 8696   0.070   4.282   3.180  0.6883 -1.5214  1.4667
   91OSM    H7G 8697   0.060   4.463   3.195  1.5374  0.5959 -1.0727
   91OSM    C8F 8698   0.146   4.349   3.364 -0.2296 -0.1717 -0.0121
   91OSM    H8F 8699   0.213   4.425   3.410 -0.9006  1.2236 -1.2338
   91OSM    H8G 8700   0.183   4.245   3.377 -1.7595 -0.8480 -0.7382
   91OSM    C9F 8701   0.017   4.350   3.436  0.4647  0.2958 -0.0597
   91OSM    H9F 8702  -0.066   4.399   3.383  0.2284  0.2498  0.2638
   91OSM   C10F 8703  -0.006   4.292   3.554  0.4928 -0.5367  0.0061
   91OSM   H10F 8704  -0.111   4.295   3.585  0.1987 -0.3768 -0.9757
   91OSM   C11F 8705   0.098   4.220   3.643  0.4547 -1.2479 -0.5771
   91OSM   H11F 8706   0.112   4.273   3.740 -0.4734  1.8470 -2.0111
   91OSM   H11G 8707   0.198   4.224   3.595  0.4504  0.8927 -0.5046
   91OSM   C12F 8708   0.065   4.081   3.684  0.9241  0.1289 -0.0901
   91OSM   H12F 8709   0.149   4.051   3.750  1.5368  1.5853 -0.1546
   91OSM   H12G 8710   0.061   4.013   3.596  2.4537 -0.6779  0.4265
   91OSM   C13F 8711  -0.066   4.077   3.761  0.2498 -0.0031 -0.0379
   91OSM   H13F 8712  -0.087   3.968   3.774 -1.4777  0.2974 -0.1310
   91OSM   H13G 8713  -0.147   4.114   3.696  1.7480  3.3559 -0.1720
   91OSM   C14F 8714  -0.071   4.158   3.895 -0.1279  0.9117 -0.3076
   91OSM   H14F 8715  -0.047   4.263   3.869 -0.6791  0.9151 -0.8224
   91OSM   H14G 8716  -0.006   4.126   3.978  0.3927 -0.1488 -1.1030
   91OSM   C15F 8717  -0.209   4.146   3.962  0.4075  0.0130  0.2562
   91OSM   H15F 8718  -0.202   4.186   4.065  1.5955  0.7496 -0.0989
   91OSM   H15G 8719  -0.211   4.035   3.971  0.1574  0.1296  1.9450
   91OSM   C16F 8720  -0.330   4.215   3.889 -0.4087  0.0537  0.2222
   91OSM   H16F 8721  -0.423   4.187   3.944  0.4962 -0.1487  1.7080
   91OSM   H16G 8722  -0.348   4.186   3.783  1.1443  0.3538 -0.1560
   91OSM   C17F 8723  -0.318   4.363   3.904  0.8180 -0.0296 -0.0162
   91OSM   H17F 8724  -0.260   4.411   3.822 -2.8551  2.9856 -1.1222
   91OSM   H17G 8725  -0.282   4.400   4.003  0.3207  0.4363 -0.0023
   91OSM   C18F 8726  -0.462   4.428   3.897 -0.1500 -0.5242 -0.2800
   91OSM   H18F 8727  -0.510   4.398   3.801  1.5118  0.4668 -1.4765
   91OSM   H18G 8728  -0.467   4.538   3.888 -1.3386 -0.7182 -2.9356
   91OSM   H18H 8729  -0.537   4.381   3.964  0.5877 -1.0036  0.2297
   92OSM      N 8730   3.670   6.439   1.816 -0.4968  1.0352  0.8044
   92OSM    C15 8731   3.706   6.433   1.965 -0.3094 -0.3961 -0.3409
   92OSM   H15A 8732   3.646   6.364   2.023 -0.8057  2.2833  2.6005
   92OSM   H15B 8733   3.691   6.533   2.002  0.9245  0.0415 -0.9517
   92OSM   H15C 8734   3.810   6.413   1.988 -0.9261 -2.5963  0.9097
   92OSM    C14 8735   3.691   6.294   1.778 -0.0172 -0.2961 -0.0774
   92OSM   H14A 8736   3.655   6.229   1.856  2.2753 -0.3992  0.9627
   92OSM   H14B 8737   3.797   6.277   1.784  0.1870  0.8052 -0.2424
   92OSM   H14C 8738   3.663   6.279   1.675 -1.3944  0.0055  0.2308
   92OSM    C13 8739   3.528   6.484   1.804 -0.2521  0.1224  0.3676
   92OSM   H13A 8740   3.511   6.584   1.841 -1.0371  1.1122 -2.4240
   92OSM   H13B 8741   3.459   6.418   1.854 -0.5812 -0.4721 -0.8434
   92OSM   H13C 8742   3.500   6.481   1.700 -0.6138  1.0175  0.4316
   92OSM    C12 8743   3.759   6.526   1.731 -0.5356 -0.0874 -0.0886
   92OSM   H12A 8744   3.722   6.524   1.630 -0.5855 -1.6702 -0.0582
   92OSM   H12B 8745   3.856   6.479   1.723 -0.4192 -0.0976  1.1711
   92OSM    C11 8746   3.763   6.671   1.781 -0.1767  0.6725 -0.5343
   92OSM   H11A 8747   3.836   6.728   1.720 -0.7814  2.0532 -0.0067
   92OSM   H11B 8748   3.818   6.685   1.876  0.5855 -0.0285 -0.8587
   92OSM      P 8749   3.578   6.836   1.883  0.0142 -0.4243  0.1814
   92OSM    O13 8750   3.586   6.975   1.833 -0.1425 -0.1313  0.2754
   92OSM    O14 8751   3.442   6.781   1.891 -0.1404  0.2268  0.1992
   92OSM    O11 8752   3.668   6.807   2.011  0.0453 -0.0127 -0.0381
   92OSM    O12 8753   3.650   6.744   1.769 -0.0782 -0.7216  0.3053
   92OSM    C1S 8754   3.775   6.888   2.047 -0.5603 -0.0185  0.3099
   92OSM    H1S 8755   3.759   6.997   2.033 -0.9434 -0.2948 -1.7264
   92OSM    H1T 8756   3.872   6.860   2.001 -0.3365 -2.0184  1.8729
   92OSM     NF 8757   3.889   6.968   2.257 -0.5808  0.0416 -0.8353
   92OSM    HNF 8758   3.987   6.946   2.262 -0.5234  0.5941  1.0089
   92OSM    C2S 8759   3.796   6.873   2.204  0.4691 -0.7704  0.2308
   92OSM    H2S 8760   3.701   6.900   2.254  0.9405 -0.4762  0.9818
   92OSM    C3S 8761   3.816   6.724   2.247 -0.1967  0.7751  0.1753
   92OSM    H3S 8762   3.916   6.704   2.203 -0.4786  1.5209 -0.8351
   92OSM     O3 8763   3.739   6.621   2.179 -0.2652 -0.0645 -0.0954
   92OSM    HO3 8764   3.710   6.682   2.111  3.8081  3.6345  0.9988
   92OSM    C4S 8765   3.812   6.701   2.393 -0.7187  0.0440 -0.1787
   92OSM    H4S 8766   3.913   6.713   2.435  0.4006 -1.1716 -2.3322
   92OSM    C5S 8767   3.703   6.683   2.471 -0.5899 -0.5773 -0.3036
   92OSM    H5S 8768   3.604   6.690   2.423  0.5158 -0.1507 -2.6886
   92OSM    C6S 8769   3.724   6.665   2.621  0.9148 -0.3033 -0.2639
   92OSM    H6S 8770   3.781   6.571   2.638  1.1120 -0.4029 -1.3993
   92OSM    H6T 8771   3.618   6.662   2.653  0.6976 -0.2276 -0.9656
   92OSM    C7S 8772   3.802   6.779   2.688  0.5896 -0.1249 -0.1955
   92OSM    H7S 8773   3.739   6.868   2.667 -1.0816 -1.0649  0.6236
   92OSM    H7T 8774   3.904   6.788   2.644 -0.2062  1.0475 -1.8999
   92OSM    C8S 8775   3.812   6.773   2.842 -0.1987  0.0671 -0.1556
   92OSM    H8S 8776   3.873   6.852   2.892  0.8518 -0.8784  0.0894
   92OSM    H8T 8777   3.856   6.674   2.867  0.9865  0.7384  0.5186
   92OSM    C9S 8778   3.670   6.760   2.910  0.1643  0.0189  0.1782
   92OSM    H9S 8779   3.621   6.677   2.856  2.3774 -0.3189 -1.4705
   92OSM    H9T 8780   3.608   6.852   2.905 -0.8294 -0.4066  3.0568
   92OSM   C10S 8781   3.681   6.731   3.062 -0.0007 -0.2394  0.0053
   92OSM   H10S 8782   3.700   6.831   3.107 -0.7465 -0.5138  0.9644
   92OSM   H10T 8783   3.764   6.664   3.092 -1.5508 -3.0276 -1.5282
   92OSM   C11S 8784   3.557   6.677   3.134  0.0176 -0.6482 -0.1091
   92OSM   H11S 8785   3.534   6.572   3.106 -0.2267 -0.5327 -0.3419
   92OSM   H11T 8786   3.467   6.739   3.116  0.6223  0.2417 -0.1680
   92OSM   C12S 8787   3.567   6.681   3.291 -0.4599 -0.4988 -0.0176
   92OSM   H12S 8788   3.601   6.784   3.316 -0.7051 -0.4517  0.1144
   92OSM   H12T 8789   3.644   6.607   3.324 -3.2172 -2.9599  1.3361
   92OSM   C13S 8790   3.439   6.642   3.358 -0.0615 -0.1106  0.0824
   92OSM   H13S 8791   3.359   6.700   3.308  0.7655  1.7179  0.8130
   92OSM   H13T 8792   3.435   6.673   3.464 -0.2701  0.9176 -0.2162
   92OSM   C14S 8793   3.415   6.487   3.369 -0.0318  0.1397 -0.2646
   92OSM   H14S 8794   3.508   6.432   3.393  0.6018  1.6529  0.9272
   92OSM   H14T 8795   3.367   6.455   3.274 -0.8090  1.9902 -0.5397
   92OSM   C15S 8796   3.323   6.445   3.478  0.2606 -0.2534  0.2299
   92OSM   H15S 8797   3.345   6.496   3.574 -0.3122 -0.0572  0.2593
   92OSM   H15T 8798   3.351   6.341   3.506 -0.4001 -0.3859  0.4349
   92OSM   C16S 8799   3.174   6.469   3.450 -0.1902 -0.7371  0.5789
   92OSM   H16S 8800   3.137   6.407   3.365 -0.3452  2.5696 -1.9726
   92OSM   H16T 8801   3.155   6.577   3.437 -0.5303 -0.4312  3.0741
   92OSM   C17S 8802   3.087   6.429   3.572 -0.2756  0.0641 -0.1058
   92OSM   H17S 8803   3.130   6.331   3.598  0.6884  0.0610 -1.5661
   92OSM   H17T 8804   2.985   6.410   3.532  0.6329  0.0866 -2.6305
   92OSM   C18S 8805   3.080   6.524   3.690 -0.7211  0.1244  0.1604
   92OSM   H18S 8806   3.072   6.631   3.664  0.7304  0.3420  0.5087
   92OSM   H18T 8807   3.179   6.533   3.740  0.1927  2.5290 -1.8365
   92OSM   H18U 8808   3.012   6.496   3.773  0.9336 -1.0282  1.2196
   92OSM    C1F 8809   3.857   7.097   2.259  0.3533 -0.0942 -0.0038
   92OSM     OF 8810   3.743   7.130   2.230 -0.6405 -0.0609  0.3886
   92OSM    C2F 8811   3.971   7.200   2.280  0.1818  0.1863  0.0513
   92OSM    H2F 8812   3.921   7.298   2.269 -1.1312 -0.4955 -0.2976
   92OSM    H2G 8813   4.050   7.188   2.204 -1.3333  1.8510 -1.9051
   92OSM    C3F 8814   4.038   7.178   2.420  0.0887 -0.6857  0.0364
   92OSM    H3F 8815   4.110   7.260   2.442 -1.6072  1.8530 -3.0005
   92OSM    H3G 8816   4.103   7.088   2.418 -0.4641 -1.0926 -2.5487
   92OSM    C4F 8817   3.939   7.165   2.541 -0.6605 -0.1187  1.0185
   92OSM    H4F 8818   3.882   7.071   2.526 -0.6103 -0.1514  1.0318
   92OSM    H4G 8819   3.873   7.254   2.545 -0.1501  0.3864 -1.0902
   92OSM    C5F 8820   4.013   7.164   2.674  0.2854  0.8572  0.9103
   92OSM    H5F 8821   4.078   7.253   2.687 -0.2246  1.7058 -1.7325
   92OSM    H5G 8822   4.072   7.070   2.676  2.5272  2.1864  2.2403
   92OSM    C6F 8823   3.919   7.154   2.798  0.8281  0.5938  0.0950
   92OSM    H6F 8824   3.846   7.071   2.788  0.7419  0.5925  0.7459
   92OSM    H6G 8825   3.860   7.248   2.800  1.8758  1.2910 -0.4125
   92OSM    C7F 8826   3.998   7.155   2.929  0.3749  0.6521  0.0771
   92OSM    H7F 8827   4.058   7.249   2.923  1.2169  0.2857  1.9326
   92OSM    H7G 8828   4.072   7.073   2.916 -1.3946 -0.9413 -0.2613
   92OSM    C8F 8829   3.928   7.136   3.068 -0.1647 -0.0741 -0.6991
   92OSM    H8F 8830   4.002   7.157   3.148 -1.9077  1.2884  0.6628
   92OSM    H8G 8831   3.886   7.034   3.074 -0.1508 -0.0575 -0.3297
   92OSM    C9F 8832   3.815   7.227   3.072 -0.4056  0.3103 -0.1613
   92OSM    H9F 8833   3.777   7.257   2.973  2.1784  0.7531 -1.1147
   92OSM   C10F 8834   3.741   7.264   3.176 -0.2609  0.4447 -0.3082
   92OSM   H10F 8835   3.659   7.335   3.159  0.1348  0.7498 -0.9938
   92OSM   C11F 8836   3.775   7.216   3.314 -0.2141  0.6057  0.1485
   92OSM   H11F 8837   3.750   7.307   3.373  0.6062  0.4392  0.7791
   92OSM   H11G 8838   3.885   7.203   3.325 -0.3576 -0.4423  0.4604
   92OSM   C12F 8839   3.708   7.100   3.375  0.3410  0.7712 -0.2273
   92OSM   H12F 8840   3.723   7.014   3.306  2.2896 -0.6076  1.7931
   92OSM   H12G 8841   3.600   7.126   3.373 -0.1947 -1.1604  1.2591
   92OSM   C13F 8842   3.747   7.058   3.518 -0.4638  0.6500  0.2373
   92OSM   H13F 8843   3.854   7.031   3.529 -1.0057 -2.5083 -1.1910
   92OSM   H13G 8844   3.701   6.961   3.548  0.5931 -0.3850 -1.3432
   92OSM   C14F 8845   3.703   7.164   3.618  0.3543 -0.1762 -0.5814
   92OSM   H14F 8846   3.602   7.207   3.601  1.1313  2.9265  1.7098
   92OSM   H14G 8847   3.778   7.246   3.611 -0.6336  0.6307 -3.1839
   92OSM   C15F 8848   3.706   7.101   3.757 -0.6967  0.0504 -0.4596
   92OSM   H15F 8849   3.803   7.048   3.767 -0.9486 -0.2563  0.4445
   92OSM   H15G 8850   3.630   7.023   3.778 -0.2516 -0.2725  0.0066
   92OSM   C16F 8851   3.694   7.209   3.868 -0.1808 -0.2771  0.1444
   92OSM   H16F 8852   3.587   7.234   3.885 -0.1357  0.1416 -0.1892
   92OSM   H16G 8853   3.758   7.300   3.856  3.8196 -3.0039 -1.3370
   92OSM   C17F 8854   3.752   7.168   4.011 -0.2433 -0.3949  1.0924
   92OSM   H17F 8855   3.858   7.138   3.993 -0.9826 -2.6503  0.1541
   92OSM   H17G 8856   3.699   7.078   4.050  0.6391 -0.7267  1.5631
   92OSM   C18F 8857   3.759   7.278   4.116 -0.1109 -0.5233 -0.5642
   92OSM   H18F 8858   3.654   7.311   4.131  0.3047  0.1065  1.3188
   92OSM   H18G 8859   3.815   7.365   4.076  0.1636  0.0032  0.9212
   92OSM   H18H 8860   3.791   7.245   4.217  0.9804 -0.0650 -0.7450
   93OSM      N 8861   3.408   0.361   1.660  0.2065 -0.5421  0.8765
   93OSM    C15 8862   3.318   0.349   1.538 -0.3404  0.1431  0.5765
   93OSM   H15A 8863   3.304   0.245   1.517  2.1426 -0.1435  0.0945
   93OSM   H15B 8864   3.361   0.397   1.452 -2.1282 -0.0764 -0.4941
   93OSM   H15C 8865   3.219   0.390   1.555 -0.7256  0.9607 -2.9054
   93OSM    C14 8866   3.348   0.286   1.775  0.0331  0.4511  0.4157
   93OSM   H14A 8867   3.344   0.184   1.740 -1.1873  0.8286 -0.6173
   93OSM   H14B 8868   3.248   0.325   1.784 -1.3852 -2.4170 -1.3791
   93OSM   H14C 8869   3.394   0.305   1.871 -0.9561  2.3662  0.5606
   93OSM    C13 8870   3.542   0.314   1.614 -0.1779 -0.2175 -0.0599
   93OSM   H13A 8871   3.587   0.383   1.544 -0.1302 -0.5004 -0.3101
   93OSM   H13B 8872   3.540   0.219   1.562  0.2864  0.5745 -1.5948
   93OSM   H13C 8873   3.605   0.300   1.700  0.5487  2.5707 -0.0422
   93OSM    C12 8874   3.418   0.512   1.703  0.4831  0.1697 -0.0155
   93OSM   H12A 8875   3.470   0.577   1.635 -0.6576 -0.0817 -1.1748
   93OSM   H12B 8876   3.475   0.521   1.794  0.3641  2.6545 -0.1130
   93OSM    C11 8877   3.273   0.580   1.712 -0.7405 -0.3427  0.6344
   93OSM   H11A 8878   3.227   0.571   1.612  0.6355 -1.7621  0.0853
   93OSM   H11B 8879   3.299   0.687   1.725 -0.8415 -0.2641  0.1885
   93OSM      P 8880   3.084   0.601   1.883  0.3199  0.1274 -0.3250
   93OSM    O13 8881   3.100   0.743   1.855  0.3635  1.0555  0.3057
   93OSM    O14 8882   2.960   0.539   1.836  0.3874 -0.5140 -0.4611
   93OSM    O11 8883   3.118   0.579   2.039 -0.0075  0.4960 -0.6785
   93OSM    O12 8884   3.195   0.523   1.809 -0.0659 -1.1743  0.0286
   93OSM    C1S 8885   3.234   0.508   2.086 -0.2189  0.1875  0.0935
   93OSM    H1S 8886   3.328   0.557   2.052  1.0364 -1.9180  0.3433
   93OSM    H1T 8887   3.231   0.407   2.040 -0.6516  0.3622 -0.2769
   93OSM     NF 8888   3.380   0.449   2.279  0.1768 -0.0273 -0.3529
   93OSM    HNF 8889   3.378   0.362   2.327  2.2515 -0.8505 -1.5849
   93OSM    C2S 8890   3.254   0.511   2.242  0.3244  0.7102 -0.2025
   93OSM    H2S 8891   3.254   0.619   2.268 -0.2731  0.9687 -1.2325
   93OSM    C3S 8892   3.132   0.444   2.310  0.0926 -0.0422 -0.0414
   93OSM    H3S 8893   3.129   0.337   2.280  0.8534 -0.2822  0.7089
   93OSM     O3 8894   3.003   0.496   2.267 -0.7869  0.5367 -0.4687
   93OSM    HO3 8895   3.018   0.542   2.184  1.8495  0.6908  0.0122
   93OSM    C4S 8896   3.143   0.445   2.460  0.1466  1.0289 -0.1459
   93OSM    H4S 8897   3.196   0.356   2.496  0.0305  1.3602  0.8667
   93OSM    C5S 8898   3.085   0.527   2.553 -0.5433 -0.3040 -0.2947
   93OSM    H5S 8899   3.016   0.606   2.520  0.9085  1.0093 -0.2685
   93OSM    C6S 8900   3.102   0.503   2.703  0.0850 -0.5760 -0.4203
   93OSM    H6S 8901   3.128   0.596   2.757 -3.0578  0.2029 -0.0677
   93OSM    H6T 8902   3.184   0.434   2.733 -0.0952 -0.3652  0.5829
   93OSM    C7S 8903   2.976   0.444   2.754  0.0923  0.0779 -0.1039
   93OSM    H7S 8904   2.954   0.344   2.711  1.1215  0.1685 -0.8877
   93OSM    H7T 8905   2.885   0.500   2.722 -1.7214 -0.3736  3.7672
   93OSM    C8S 8906   2.977   0.439   2.910  0.6744  0.7298 -0.4115
   93OSM    H8S 8907   2.991   0.537   2.960 -1.1510  2.9119 -3.8014
   93OSM    H8T 8908   3.062   0.378   2.946  1.7997  2.5338  0.1055
   93OSM    C9S 8909   2.852   0.371   2.949 -0.0347  0.1429 -1.1795
   93OSM    H9S 8910   2.852   0.264   2.919  0.5864  0.4186 -2.2252
   93OSM    H9T 8911   2.766   0.422   2.899 -0.4285  1.4658  0.7448
   93OSM   C10S 8912   2.829   0.378   3.098  0.2223 -0.1184  0.0088
   93OSM   H10S 8913   2.741   0.312   3.115 -0.8998  0.1605 -3.7642
   93OSM   H10T 8914   2.808   0.479   3.138 -0.5111 -1.0176  2.0170
   93OSM   C11S 8915   2.942   0.312   3.176 -0.0938  0.1345 -0.5741
   93OSM   H11S 8916   3.030   0.376   3.198 -1.3770  1.1860  1.7891
   93OSM   H11T 8917   2.978   0.225   3.116  1.0952 -0.4610  0.9303
   93OSM   C12S 8918   2.908   0.259   3.316 -0.4108 -0.0212 -0.4657
   93OSM   H12S 8919   2.986   0.191   3.354 -0.3949  0.2153 -0.0678
   93OSM   H12T 8920   2.818   0.194   3.314  0.2834 -1.0873  1.2237
   93OSM   C13S 8921   2.907   0.375   3.419 -0.0062 -0.6764  0.3968
   93OSM   H13S 8922   2.825   0.445   3.393  0.4868  0.2215  1.1880
   93OSM   H13T 8923   3.003   0.431   3.414  0.0859 -0.9011 -0.5457
   93OSM   C14S 8924   2.898   0.321   3.561  0.3426 -0.0708  0.4168
   93OSM   H14S 8925   2.992   0.271   3.590 -1.1196 -1.5438  2.9640
   93OSM   H14T 8926   2.817   0.247   3.577  0.2868  0.2521  1.7601
   93OSM   C15S 8927   2.884   0.439   3.654  0.1135  0.0794 -0.0362
   93OSM   H15S 8928   2.782   0.483   3.663 -0.8055 -1.8825 -0.2545
   93OSM   H15T 8929   2.949   0.522   3.621 -0.2254 -0.3689 -1.9341
   93OSM   C16S 8930   2.921   0.400   3.798 -0.1941 -0.7814 -0.1046
   93OSM   H16S 8931   2.948   0.492   3.855  0.0121 -0.3799 -0.8442
   93OSM   H16T 8932   3.016   0.343   3.790 -0.1723 -0.5346 -1.9237
   93OSM   C17S 8933   2.814   0.328   3.876 -0.6168 -0.1176 -0.0159
   93OSM   H17S 8934   2.815   0.224   3.835 -1.2302  1.1612 -3.6260
   93OSM   H17T 8935   2.714   0.376   3.874 -0.7784 -0.4704 -0.7590
   93OSM   C18S 8936   2.866   0.312   4.021  0.2176  0.0020 -0.5385
   93OSM   H18S 8937   2.799   0.247   4.082 -0.1331  1.5644  0.8078
   93OSM   H18T 8938   2.969   0.270   4.021  0.2682  0.1143 -0.0567
   93OSM   H18U 8939   2.870   0.414   4.065 -0.4060 -0.1586 -0.0924
   93OSM    C1F 8940   3.493   0.523   2.273 -0.5650  0.1718  0.2664
   93OSM     OF 8941   3.492   0.632   2.219  0.1215 -0.5707  0.4980
   93OSM    C2F 8942   3.620   0.453   2.318  0.5062 -0.8371  0.7856
   93OSM    H2F 8943   3.704   0.477   2.249 -0.1922  2.4875  0.9603
   93OSM    H2G 8944   3.614   0.342   2.316  0.4977 -0.8563 -2.0863
   93OSM    C3F 8945   3.671   0.499   2.454  0.4164 -0.6422 -0.1590
   93OSM    H3F 8946   3.698   0.607   2.443 -2.1426  0.1970  1.0688
   93OSM    H3G 8947   3.762   0.446   2.489 -0.2546 -0.9897  1.1369
   93OSM    C4F 8948   3.559   0.492   2.561  0.2169 -0.0683 -0.1617
   93OSM    H4F 8949   3.520   0.388   2.557  0.4793 -0.1701 -0.0890
   93OSM    H4G 8950   3.482   0.565   2.528  0.7086 -0.4318 -2.2239
   93OSM    C5F 8951   3.602   0.528   2.702 -0.3048 -0.1488 -0.7537
   93OSM    H5F 8952   3.659   0.623   2.705 -0.7394  0.0943  0.4719
   93OSM    H5G 8953   3.665   0.446   2.743 -1.4377 -0.8103 -0.2565
   93OSM    C6F 8954   3.483   0.526   2.805  0.1508 -0.5511  0.2510
   93OSM    H6F 8955   3.445   0.423   2.822  0.1924 -0.6750 -0.3686
   93OSM    H6G 8956   3.399   0.569   2.747  1.4405  1.3223 -0.3251
   93OSM    C7F 8957   3.513   0.599   2.933  0.2712  0.5953  0.1784
   93OSM    H7F 8958   3.560   0.697   2.913  0.3989  0.0331 -2.8114
   93OSM    H7G 8959   3.587   0.542   2.993 -1.8162  0.0288  2.3857
   93OSM    C8F 8960   3.390   0.628   3.027  0.0351 -0.1210  0.1063
   93OSM    H8F 8961   3.299   0.667   2.978 -0.5296 -3.0974 -1.4134
   93OSM    H8G 8962   3.428   0.692   3.110 -0.4155 -0.2736  0.4354
   93OSM    C9F 8963   3.334   0.506   3.087  0.0783 -0.2464 -0.5165
   93OSM    H9F 8964   3.288   0.432   3.020 -0.7365  0.5224 -0.8152
   93OSM   C10F 8965   3.351   0.458   3.211 -1.0467 -0.2713  0.0521
   93OSM   H10F 8966   3.309   0.357   3.222  0.8519 -1.2248 -0.9518
   93OSM   C11F 8967   3.427   0.524   3.330  0.6839  0.2669 -0.2689
   93OSM   H11F 8968   3.471   0.622   3.302  3.1633 -0.9405 -0.8337
   93OSM   H11G 8969   3.508   0.459   3.369  0.3207 -1.6696 -2.5724
   93OSM   C12F 8970   3.340   0.547   3.454  0.6245 -0.0725 -0.1859
   93OSM   H12F 8971   3.234   0.572   3.432  0.1664 -2.6469 -1.2228
   93OSM   H12G 8972   3.385   0.627   3.518 -0.5763  0.3285  0.1850
   93OSM   C13F 8973   3.322   0.409   3.527  0.1969 -0.1388  0.6210
   93OSM   H13F 8974   3.420   0.361   3.547 -1.2211 -3.7240 -0.2936
   93OSM   H13G 8975   3.265   0.350   3.452  0.7556  0.9843 -0.7305
   93OSM   C14F 8976   3.248   0.420   3.661 -0.3822  0.5774  0.2084
   93OSM   H14F 8977   3.216   0.315   3.675  1.1567 -0.4357 -2.8796
   93OSM   H14G 8978   3.159   0.484   3.644 -1.1422 -0.6045 -0.4458
   93OSM   C15F 8979   3.335   0.463   3.777  0.0607 -0.1688 -0.7859
   93OSM   H15F 8980   3.359   0.572   3.782  0.9172 -0.3616 -0.5343
   93OSM   H15G 8981   3.431   0.409   3.787 -1.1754 -2.2158  0.7572
   93OSM   C16F 8982   3.261   0.432   3.916 -0.0242  0.3935 -0.0021
   93OSM   H16F 8983   3.232   0.325   3.922 -2.0128  0.8420 -0.8903
   93OSM   H16G 8984   3.164   0.484   3.933  0.7600  1.1028  2.8557
   93OSM   C17F 8985   3.352   0.462   4.035 -0.5172  0.1843  0.2838
   93OSM   H17F 8986   3.400   0.561   4.042  2.0231 -0.7886 -1.7372
   93OSM   H17G 8987   3.429   0.381   4.032  0.2652  0.9108  0.4346
   93OSM   C18F 8988   3.280   0.450   4.170  0.3947 -0.2472  0.5203
   93OSM   H18F 8989   3.249   0.344   4.183  0.4136 -0.1056  1.8707
   93OSM   H18G 8990   3.356   0.489   4.242 -0.6582 -1.9113  2.6590
   93OSM   H18H 8991   3.192   0.517   4.162 -1.6583 -2.6787  1.3471
   94OSM      N 8992   5.620   6.542   1.577  0.3153 -0.2490  0.1385
   94OSM    C15 8993   5.686   6.412   1.578 -0.5351  0.4588 -1.1865
   94OSM   H15A 8994   5.700   6.378   1.680  2.2008  1.4781 -1.1664
   94OSM   H15B 8995   5.774   6.417   1.516 -0.6231 -0.6602 -1.4323
   94OSM   H15C 8996   5.626   6.333   1.534  0.1353  0.1879 -1.6258
   94OSM    C14 8997   5.713   6.634   1.638  0.8045  0.2320 -0.5736
   94OSM   H14A 8998   5.727   6.630   1.745  0.5582  2.3020 -0.4173
   94OSM   H14B 8999   5.680   6.736   1.622  0.0217  0.3531  1.5275
   94OSM   H14C 9000   5.806   6.629   1.582  2.5395  0.5403  2.0975
   94OSM    C13 9001   5.585   6.584   1.439  0.2105  0.0422  0.1582
   94OSM   H13A 9002   5.504   6.521   1.406  0.7007 -0.5462  0.0701
   94OSM   H13B 9003   5.670   6.589   1.372  1.1653 -3.4402  0.8991
   94OSM   H13C 9004   5.546   6.685   1.441  1.0113  0.3574  2.3395
   94OSM    C12 9005   5.491   6.530   1.655 -0.3862 -0.3382  0.1771
   94OSM   H12A 9006   5.445   6.434   1.635  0.4478 -0.4590 -1.3547
   94OSM   H12B 9007   5.422   6.604   1.618  0.4051 -0.2800 -1.2803
   94OSM    C11 9008   5.501   6.543   1.812 -0.4597  0.1569  0.0001
   94OSM   H11A 9009   5.587   6.481   1.843 -1.8441 -1.5328  0.6289
   94OSM   H11B 9010   5.403   6.507   1.852  0.5241 -1.7178  0.8445
   94OSM      P 9011   5.404   6.787   1.833  0.2933  0.0627  0.4615
   94OSM    O13 9012   5.471   6.914   1.787  0.6462 -0.1870 -0.4503
   94OSM    O14 9013   5.301   6.728   1.749 -0.0363 -0.0326 -0.2534
   94OSM    O11 9014   5.350   6.799   1.979  0.1971  0.0679  0.2075
   94OSM    O12 9015   5.525   6.683   1.858 -0.1440  0.3222 -0.0185
   94OSM    C1S 9016   5.345   6.699   2.079 -0.0317  0.0065 -0.2652
   94OSM    H1S 9017   5.408   6.611   2.056  0.2116  0.3973 -1.1644
   94OSM    H1T 9018   5.240   6.665   2.092 -0.5568  1.3777 -0.6959
   94OSM     NF 9019   5.371   6.652   2.324 -0.2961  0.2291 -0.2679
   94OSM    HNF 9020   5.293   6.668   2.382 -0.8503 -2.3710 -0.1777
   94OSM    C2S 9021   5.399   6.752   2.218  0.4815 -0.6577 -0.8993
   94OSM    H2S 9022   5.509   6.771   2.222  0.0887  1.7619 -0.1605
   94OSM    C3S 9023   5.315   6.889   2.259 -0.5272 -0.1698  0.3680
   94OSM    H3S 9024   5.208   6.858   2.269 -0.8180 -0.6355 -3.0611
   94OSM     O3 9025   5.327   6.992   2.162 -0.3145 -0.4713  0.3073
   94OSM    HO3 9026   5.340   6.948   2.078  0.7865  2.1724 -1.0316
   94OSM    C4S 9027   5.367   6.943   2.392 -0.3885  0.0092  0.1492
   94OSM    H4S 9028   5.477   6.952   2.385 -0.2216 -2.1732 -0.8068
   94OSM    C5S 9029   5.295   6.967   2.505 -0.3658  0.3297  0.6520
   94OSM    H5S 9030   5.185   6.961   2.494 -0.4551  1.9623  0.4286
   94OSM    C6S 9031   5.338   7.031   2.635 -0.3309  0.7007 -0.1180
   94OSM    H6S 9032   5.325   7.142   2.630 -0.7060  0.6555 -0.1903
   94OSM    H6T 9033   5.446   7.006   2.648 -0.3270 -0.2887 -1.8425
   94OSM    C7S 9034   5.252   6.987   2.750  0.2711 -0.2873  0.3794
   94OSM    H7S 9035   5.249   6.876   2.754 -0.1214 -0.2833  0.2240
   94OSM    H7T 9036   5.146   7.013   2.734  0.0829 -1.4192 -0.2838
   94OSM    C8S 9037   5.299   7.036   2.887  0.8190 -0.0105  0.0598
   94OSM    H8S 9038   5.293   7.147   2.885 -2.4639 -0.0916 -1.5802
   94OSM    H8T 9039   5.401   7.003   2.915  0.1996 -1.6716  0.5038
   94OSM    C9S 9040   5.209   6.989   3.000  0.5229  0.3582  0.5490
   94OSM    H9S 9041   5.190   6.880   3.004 -1.2243  0.5669 -0.7396
   94OSM    H9T 9042   5.106   7.023   2.976  0.1770 -1.3078 -0.4764
   94OSM   C10S 9043   5.256   7.042   3.137  0.0642 -0.4196  0.8445
   94OSM   H10S 9044   5.256   7.153   3.127 -0.1835 -0.4933 -0.0973
   94OSM   H10T 9045   5.363   7.017   3.151  0.0959  0.4098  2.1992
   94OSM   C11S 9046   5.170   6.990   3.257 -0.6536 -0.3702  0.0018
   94OSM   H11S 9047   5.200   6.886   3.284 -0.2975 -0.0006  1.0722
   94OSM   H11T 9048   5.064   6.997   3.225 -0.7649 -0.4925  0.3391
   94OSM   C12S 9049   5.188   7.071   3.382  0.4888  0.0999 -0.1340
   94OSM   H12S 9050   5.147   7.174   3.369 -0.2811 -0.0980  0.6148
   94OSM   H12T 9051   5.296   7.072   3.406  0.3450  0.6365  0.5069
   94OSM   C13S 9052   5.130   7.006   3.504  0.5535  0.1957  0.7516
   94OSM   H13S 9053   5.160   6.900   3.523  3.0174  0.4180 -1.3439
   94OSM   H13T 9054   5.021   7.008   3.483  0.7532  1.7992 -0.2273
   94OSM   C14S 9055   5.169   7.085   3.621  0.3416 -0.3229 -0.1943
   94OSM   H14S 9056   5.143   7.189   3.593  0.6797  0.3378  1.7581
   94OSM   H14T 9057   5.275   7.083   3.654  0.1056 -1.2265  0.5675
   94OSM   C15S 9058   5.084   7.081   3.741 -0.4355  0.7080 -0.1410
   94OSM   H15S 9059   4.979   7.111   3.720 -0.4029  1.5621  0.7876
   94OSM   H15T 9060   5.120   7.145   3.825 -1.3302 -1.1336  1.7386
   94OSM   C16S 9061   5.089   6.944   3.826 -1.0087  0.0243  0.6383
   94OSM   H16S 9062   5.197   6.934   3.852  0.0446 -1.3478 -3.4974
   94OSM   H16T 9063   5.058   6.867   3.752 -1.7407 -1.2893  2.2289
   94OSM   C17S 9064   5.003   6.953   3.950 -0.1126  0.0712 -0.3110
   94OSM   H17S 9065   5.022   7.057   3.985  0.6193  0.0675 -0.6813
   94OSM   H17T 9066   5.042   6.888   4.031  0.8412  0.7144 -0.2425
   94OSM   C18S 9067   4.848   6.921   3.944 -0.5865  0.1063  0.0404
   94OSM   H18S 9068   4.790   6.996   3.886 -0.6875 -1.3831 -1.8954
   94OSM   H18T 9069   4.802   6.917   4.045 -1.5102  3.6786 -0.1061
   94OSM   H18U 9070   4.822   6.823   3.899  0.6105  0.2148 -0.9234
   94OSM    C1F 9071   5.446   6.547   2.327  0.0955 -0.1500  0.5276
   94OSM     OF 9072   5.542   6.535   2.247 -0.3059  0.2370 -0.2508
   94OSM    C2F 9073   5.421   6.433   2.427  0.0813  0.0360 -0.4256
   94OSM    H2F 9074   5.450   6.340   2.374 -0.9051  0.1621 -1.2260
   94OSM    H2G 9075   5.314   6.429   2.453  0.4631 -0.1434  1.2068
   94OSM    C3F 9076   5.508   6.452   2.557  0.1044  0.5414  0.2181
   94OSM    H3F 9077   5.616   6.448   2.532 -0.4486 -0.0697 -2.4577
   94OSM    H3G 9078   5.485   6.356   2.608  0.6727 -1.1259 -2.4384
   94OSM    C4F 9079   5.457   6.569   2.642 -0.2210  0.3139 -0.3396
   94OSM    H4F 9080   5.347   6.565   2.656 -0.0744  1.3955  1.4108
   94OSM    H4G 9081   5.491   6.665   2.598  0.8338  1.3774  2.5679
   94OSM    C5F 9082   5.525   6.570   2.781 -0.0366  0.1784 -0.9309
   94OSM    H5F 9083   5.634   6.570   2.761  0.3836 -0.7240  1.0943
   94OSM    H5G 9084   5.494   6.481   2.839  1.9102  1.0194  1.6012
   94OSM    C6F 9085   5.494   6.694   2.867 -0.1401  0.5889 -0.7299
   94OSM    H6F 9086   5.387   6.683   2.891  0.3198  0.7162  1.6628
   94OSM    H6G 9087   5.507   6.785   2.804 -0.1223  2.2377  1.5239
   94OSM    C7F 9088   5.584   6.700   2.992 -0.1572  0.4901  0.1183
   94OSM    H7F 9089   5.602   6.808   3.013 -0.1209  0.9603 -2.1540
   94OSM    H7G 9090   5.688   6.667   2.971  0.0111  1.1327 -0.0914
   94OSM    C8F 9091   5.545   6.619   3.119 -0.6019 -0.2961 -0.1128
   94OSM    H8F 9092   5.635   6.593   3.179  0.6740  1.4791 -1.1379
   94OSM    H8G 9093   5.484   6.532   3.086 -3.1151  1.8234 -1.5168
   94OSM    C9F 9094   5.456   6.707   3.198 -0.1710  0.3916  0.4880
   94OSM    H9F 9095   5.355   6.720   3.157 -0.5588 -1.1213  0.8973
   94OSM   C10F 9096   5.492   6.790   3.293  0.2094 -0.8507  0.1916
   94OSM   H10F 9097   5.416   6.859   3.332  0.9473  1.4280 -2.1212
   94OSM   C11F 9098   5.635   6.812   3.343 -0.6328  0.1609 -0.9916
   94OSM   H11F 9099   5.679   6.890   3.278  0.2228  0.1653 -0.4269
   94OSM   H11G 9100   5.685   6.713   3.328  0.0541  0.4848 -0.8973
   94OSM   C12F 9101   5.654   6.854   3.486 -1.0246  0.2199  0.0775
   94OSM   H12F 9102   5.614   6.957   3.499 -1.7554 -0.0597  0.1206
   94OSM   H12G 9103   5.762   6.860   3.509 -0.8509  2.3374 -1.0953
   94OSM   C13F 9104   5.581   6.764   3.583  0.2147 -0.5286 -0.7685
   94OSM   H13F 9105   5.598   6.656   3.563 -1.8529 -1.2682  0.9560
   94OSM   H13G 9106   5.474   6.782   3.560 -0.1496  0.1640  1.2318
   94OSM   C14F 9107   5.607   6.815   3.723 -0.1670  0.3761  0.3029
   94OSM   H14F 9108   5.587   6.923   3.735 -1.9630 -0.1255  2.3550
   94OSM   H14G 9109   5.714   6.793   3.745 -0.4527  1.6382  3.4345
   94OSM   C15F 9110   5.519   6.742   3.816 -0.3003  0.6726  0.2774
   94OSM   H15F 9111   5.542   6.636   3.793  0.0775  0.4213  1.7165
   94OSM   H15G 9112   5.410   6.748   3.798 -0.3188  0.4283  0.3126
   94OSM   C16F 9113   5.550   6.788   3.956 -0.5209  0.2906  0.9846
   94OSM   H16F 9114   5.517   6.894   3.965 -3.8503 -0.7672  2.9286
   94OSM   H16G 9115   5.660   6.797   3.969 -0.2985 -0.7770 -0.0163
   94OSM   C17F 9116   5.486   6.693   4.058  0.1187 -0.6402  0.6373
   94OSM   H17F 9117   5.556   6.686   4.144 -0.8930  1.0289  1.6353
   94OSM   H17G 9118   5.469   6.596   4.007  0.0154 -0.8840  1.1322
   94OSM   C18F 9119   5.355   6.749   4.116 -0.5566  0.2507 -0.1834
   94OSM   H18F 9120   5.298   6.805   4.039 -0.0838 -0.1152 -0.8065
   94OSM   H18G 9121   5.394   6.835   4.175  0.7389  0.2217 -0.9696
   94OSM   H18H 9122   5.295   6.684   4.183 -0.8535 -0.1865 -0.8721
   95OSM      N 9123   6.414   2.581   1.987 -0.5340 -0.5232 -0.0405
   95OSM    C15 9124   6.298   2.674   1.999 -0.8381  0.0104 -0.6193
   95OSM   H15A 9125   6.209   2.618   1.975  1.1783 -3.7275 -0.2226
   95OSM   H15B 9126   6.313   2.769   1.951 -0.0061  0.7191  0.9726
   95OSM   H15C 9127   6.287   2.696   2.104  1.9323 -0.9149 -0.0376
   95OSM    C14 9128   6.393   2.455   2.069 -0.2703 -0.1631  0.4002
   95OSM   H14A 9129   6.291   2.421   2.064 -0.2513 -0.3396  1.1992
   95OSM   H14B 9130   6.419   2.475   2.172  1.0664  1.9875 -0.2685
   95OSM   H14C 9131   6.465   2.387   2.025  0.9067  1.7024 -0.7384
   95OSM    C13 9132   6.429   2.538   1.843  0.2171  0.7300 -0.1700
   95OSM   H13A 9133   6.343   2.491   1.797 -0.0827  0.0355  1.0625
   95OSM   H13B 9134   6.513   2.471   1.834 -1.3649 -1.1873 -1.4508
   95OSM   H13C 9135   6.453   2.620   1.777  0.3249  1.6449  0.9737
   95OSM    C12 9136   6.538   2.642   2.033 -0.2806  0.5381 -0.1264
   95OSM   H12A 9137   6.618   2.571   2.016  0.8330  1.9783 -1.1431
   95OSM   H12B 9138   6.554   2.647   2.140  1.2294 -0.3767 -0.2843
   95OSM    C11 9139   6.576   2.774   1.976 -0.1229 -0.2822 -0.4233
   95OSM   H11A 9140   6.527   2.865   2.016 -0.6317 -0.8923  0.3746
   95OSM   H11B 9141   6.545   2.775   1.869 -0.3676 -0.3595 -0.3541
   95OSM      P 9142   6.789   2.920   1.983  0.0420 -0.3346 -0.1763
   95OSM    O13 9143   6.931   2.901   2.015 -0.0919 -0.4044  0.1075
   95OSM    O14 9144   6.759   2.968   1.849 -0.0164 -0.6279  0.2211
   95OSM    O11 9145   6.715   3.015   2.087 -0.3413 -0.2790  0.0259
   95OSM    O12 9146   6.717   2.776   1.994  1.3548  1.0358  0.2258
   95OSM    C1S 9147   6.713   2.973   2.220  0.4215 -0.4086 -0.6651
   95OSM    H1S 9148   6.702   2.863   2.236 -0.1090 -0.1685  0.7859
   95OSM    H1T 9149   6.626   3.026   2.264  0.9685 -1.0018  1.2419
   95OSM     NF 9150   6.794   2.985   2.449 -0.5978 -0.2866 -0.0546
   95OSM    HNF 9151   6.730   3.036   2.506 -2.3873 -1.0493 -1.2678
   95OSM    C2S 9152   6.823   3.032   2.318  0.2663  0.0914  0.3922
   95OSM    H2S 9153   6.915   2.989   2.273 -0.4068  0.0234 -0.9911
   95OSM    C3S 9154   6.819   3.192   2.302 -0.3914 -0.3412 -0.1683
   95OSM    H3S 9155   6.720   3.235   2.325  0.4081  0.5503  1.8392
   95OSM     O3 9156   6.841   3.229   2.162  0.4951 -0.6715 -0.4462
   95OSM    HO3 9157   6.822   3.144   2.121  3.0624 -3.5229  3.5303
   95OSM    C4S 9158   6.926   3.264   2.386 -0.2391  0.6923 -0.7045
   95OSM    H4S 9159   7.031   3.256   2.352 -0.4012  2.5289 -1.8022
   95OSM    C5S 9160   6.898   3.337   2.497  0.3101 -0.1742  0.1647
   95OSM    H5S 9161   6.791   3.343   2.523  0.1304  3.3258 -0.9233
   95OSM    C6S 9162   7.000   3.401   2.589  0.2405  0.1119  0.2289
   95OSM    H6S 9163   6.952   3.418   2.688 -0.5073  0.7834 -0.2338
   95OSM    H6T 9164   7.019   3.500   2.543 -0.2760 -0.8795 -2.2475
   95OSM    C7S 9165   7.123   3.314   2.611  0.2460  0.4145  0.1602
   95OSM    H7S 9166   7.165   3.305   2.508  0.5701 -0.3176  0.3516
   95OSM    H7T 9167   7.094   3.214   2.648 -0.4847  0.0147 -1.4035
   95OSM    C8S 9168   7.228   3.371   2.707  0.5902 -0.1549 -0.4014
   95OSM    H8S 9169   7.272   3.456   2.650 -0.4250  2.3220  2.2993
   95OSM    H8T 9170   7.304   3.290   2.719 -0.8244 -1.3061  1.1421
   95OSM    C9S 9171   7.178   3.414   2.846 -0.4590  0.0903  0.2093
   95OSM    H9S 9172   7.112   3.330   2.877 -0.0324 -0.8169 -1.2602
   95OSM    H9T 9173   7.122   3.510   2.839  2.8500  2.1557 -0.1886
   95OSM   C10S 9174   7.296   3.439   2.942  0.2560 -0.7741  0.1008
   95OSM   H10S 9175   7.345   3.530   2.902 -0.0870 -0.4200  0.4755
   95OSM   H10T 9176   7.375   3.361   2.933  2.4141  1.4527 -1.5809
   95OSM   C11S 9177   7.260   3.473   3.086 -0.0718  0.2681  0.3872
   95OSM   H11S 9178   7.195   3.393   3.126 -0.4584  0.2914 -0.1776
   95OSM   H11T 9179   7.201   3.567   3.082 -0.1863  0.3096  2.1592
   95OSM   C12S 9180   7.388   3.502   3.175 -0.5257  0.4344  0.9437
   95OSM   H12S 9181   7.431   3.599   3.144 -2.3021  1.1318  0.5576
   95OSM   H12T 9182   7.465   3.423   3.164  0.3266  1.3458  0.2633
   95OSM   C13S 9183   7.349   3.515   3.321  0.7560 -0.2517  0.3180
   95OSM   H13S 9184   7.308   3.417   3.354 -0.0170 -0.3028 -0.7424
   95OSM   H13T 9185   7.277   3.600   3.324  0.2556 -0.6883  0.7751
   95OSM   C14S 9186   7.473   3.544   3.403  0.4200 -0.2311 -0.6698
   95OSM   H14S 9187   7.510   3.646   3.381  1.3176  0.8581  4.5698
   95OSM   H14T 9188   7.551   3.468   3.380  0.2025 -0.9345  0.8043
   95OSM   C15S 9189   7.456   3.530   3.557  0.5774  0.1164  0.1819
   95OSM   H15S 9190   7.397   3.436   3.550  0.6409  0.1572 -1.2001
   95OSM   H15T 9191   7.373   3.599   3.584 -1.3598 -1.7542 -0.7054
   95OSM   C16S 9192   7.583   3.534   3.638  0.0004 -0.3629  0.7958
   95OSM   H16S 9193   7.625   3.636   3.627 -1.1782  0.0906  0.2752
   95OSM   H16T 9194   7.653   3.462   3.591 -1.5119 -1.5368  0.2518
   95OSM   C17S 9195   7.569   3.527   3.784  0.1420  0.8726  0.4923
   95OSM   H17S 9196   7.674   3.515   3.819  0.0829  1.3916  0.8594
   95OSM   H17T 9197   7.514   3.439   3.823  3.2371 -1.1528  0.5804
   95OSM   C18S 9198   7.507   3.648   3.847  0.1111 -0.1553 -0.0455
   95OSM   H18S 9199   7.491   3.630   3.955 -0.7020  1.7579  0.1898
   95OSM   H18T 9200   7.411   3.668   3.794  1.3626  1.3092 -1.9010
   95OSM   H18U 9201   7.576   3.735   3.840 -1.4773  1.2075  0.6157
   95OSM    C1F 9202   6.846   2.880   2.498 -0.0518 -0.1755  0.1646
   95OSM     OF 9203   6.888   2.796   2.422  0.1575  0.3970 -0.8421
   95OSM    C2F 9204   6.848   2.862   2.648  0.3502 -0.0850  0.6278
   95OSM    H2F 9205   6.863   2.754   2.669 -2.0858 -1.0744 -2.0351
   95OSM    H2G 9206   6.744   2.882   2.681  0.4974  1.7079  0.0868
   95OSM    C3F 9207   6.937   2.971   2.714  0.2861 -0.4857  0.2218
   95OSM    H3F 9208   6.892   3.072   2.698 -0.0076 -0.8816 -1.7311
   95OSM    H3G 9209   7.038   2.979   2.668  0.0073  2.2817 -0.1157
   95OSM    C4F 9210   6.960   2.957   2.861  0.0337 -0.4130 -0.7165
   95OSM    H4F 9211   7.023   3.042   2.894  0.8188 -1.4549  0.5485
   95OSM    H4G 9212   7.002   2.859   2.890  0.3746  0.2399  1.1040
   95OSM    C5F 9213   6.822   2.977   2.937 -0.0389  0.5086  0.4926
   95OSM    H5F 9214   6.757   2.887   2.943 -0.0681  0.3297 -1.7834
   95OSM    H5G 9215   6.770   3.056   2.878 -0.6665 -1.2811 -1.4655
   95OSM    C6F 9216   6.841   3.037   3.081 -0.3173  0.8315  0.0495
   95OSM    H6F 9217   6.734   3.050   3.108 -0.7130 -0.2191 -0.9392
   95OSM    H6G 9218   6.892   3.135   3.093  0.9319  0.0476  1.4532
   95OSM    C7F 9219   6.901   2.942   3.178  0.3485 -0.0671  0.9791
   95OSM    H7F 9220   7.002   2.914   3.142  0.8783  3.8081 -1.1147
   95OSM    H7G 9221   6.836   2.853   3.190 -0.7909  0.6379  0.1702
   95OSM    C8F 9222   6.921   2.997   3.321 -0.1694  0.4043  0.3114
   95OSM    H8F 9223   6.936   2.905   3.381  0.1391 -0.4912 -1.0880
   95OSM    H8G 9224   6.828   3.054   3.342  1.6799  3.5111  0.7456
   95OSM    C9F 9225   7.031   3.096   3.334 -0.6543 -0.0520  0.7043
   95OSM    H9F 9226   7.060   3.139   3.237 -1.4516 -0.2876  0.3575
   95OSM   C10F 9227   7.089   3.134   3.452 -0.1602  0.3046 -0.7169
   95OSM   H10F 9228   7.172   3.206   3.449 -0.1395  0.3963  0.9099
   95OSM   C11F 9229   7.059   3.077   3.588 -0.2730  0.5138  0.6207
   95OSM   H11F 9230   7.105   2.977   3.602  3.2072  1.7171 -0.9151
   95OSM   H11G 9231   6.949   3.063   3.589 -0.1640 -0.4777  2.7541
   95OSM   C12F 9232   7.098   3.162   3.711 -0.3159  0.2289  0.7283
   95OSM   H12F 9233   7.207   3.148   3.722  0.2385  2.1260 -1.5145
   95OSM   H12G 9234   7.037   3.119   3.794 -1.5864  0.2840 -0.1336
   95OSM   C13F 9235   7.076   3.313   3.711  0.1993 -0.2455 -0.2027
   95OSM   H13F 9236   6.966   3.325   3.701  0.2047  0.9732  0.8474
   95OSM   H13G 9237   7.127   3.363   3.626  2.1313 -1.6837  0.0387
   95OSM   C14F 9238   7.127   3.374   3.846 -0.1583  0.3261 -0.7633
   95OSM   H14F 9239   7.231   3.344   3.872 -0.3321  1.4165  1.4077
   95OSM   H14G 9240   7.070   3.315   3.921 -0.7698  0.9356 -0.7338
   95OSM   C15F 9241   7.112   3.526   3.859  0.1429  0.4663  0.4566
   95OSM   H15F 9242   7.007   3.554   3.837 -0.5768 -2.2278  0.0166
   95OSM   H15G 9243   7.176   3.580   3.787 -0.8668  0.1728 -0.7081
   95OSM   C16F 9244   7.147   3.570   4.002 -0.3123 -0.0515 -0.5313
   95OSM   H16F 9245   7.253   3.555   4.033 -1.0891 -2.5542  1.2492
   95OSM   H16G 9246   7.095   3.496   4.066  1.4824 -2.5224 -1.7573
   95OSM   C17F 9247   7.110   3.719   4.041 -0.5872  0.8173  0.3662
   95OSM   H17F 9248   7.113   3.726   4.152  3.3105 -1.2770  0.5580
   95OSM   H17G 9249   7.006   3.741   4.008 -0.6554 -0.0656 -0.0486
   95OSM   C18F 9250   7.205   3.814   3.967  0.1190 -1.2636  0.1866
   95OSM   H18F 9251   7.206   3.789   3.859 -0.6211  2.2293 -0.7681
   95OSM   H18G 9252   7.308   3.805   4.010  0.8476  1.1761 -0.8260
   95OSM   H18H 9253   7.175   3.919   3.986 -0.2115 -1.2142 -0.5710
   96OSM      N 9254   1.542   0.662   1.739  0.6619  0.2272 -0.7543
   96OSM    C15 9255   1.448   0.588   1.641 -0.4502  0.3107  0.0540
   96OSM   H15A 9256   1.498   0.504   1.595 -1.9546 -0.0422 -0.9968
   96OSM   H15B 9257   1.422   0.653   1.558  0.5110 -1.9943 -2.2010
   96OSM   H15C 9258   1.357   0.560   1.691 -0.5320 -1.5029 -1.0318
   96OSM    C14 9259   1.654   0.706   1.648  0.0610 -0.5463  0.3662
   96OSM   H14A 9260   1.709   0.618   1.616 -1.8408 -1.5797 -0.2343
   96OSM   H14B 9261   1.724   0.774   1.695  0.2514 -0.7343  0.3570
   96OSM   H14C 9262   1.616   0.757   1.561 -1.6477 -0.4725  1.1004
   96OSM    C13 9263   1.474   0.781   1.788 -0.0252  0.0328 -0.1596
   96OSM   H13A 9264   1.534   0.848   1.848 -2.4405 -0.6463  3.3922
   96OSM   H13B 9265   1.399   0.746   1.858 -0.1309 -2.0829 -1.2565
   96OSM   H13C 9266   1.421   0.828   1.707 -1.0436  0.5954  0.8015
   96OSM    C12 9267   1.587   0.568   1.851 -0.4592 -0.0369 -0.7669
   96OSM   H12A 9268   1.646   0.484   1.815 -1.2206 -0.8612 -0.1422
   96OSM   H12B 9269   1.499   0.514   1.884 -1.9552  1.2263 -2.5093
   96OSM    C11 9270   1.668   0.621   1.970 -0.0873  0.6211  0.4754
   96OSM   H11A 9271   1.668   0.548   2.054  0.4119 -0.0974 -0.1357
   96OSM   H11B 9272   1.608   0.710   1.997  0.2986  0.5000  1.7810
   96OSM      P 9273   1.909   0.563   1.908  0.1008  0.4617  0.4386
   96OSM    O13 9274   1.857   0.432   1.870 -0.1479  0.3860  0.5372
   96OSM    O14 9275   2.008   0.626   1.813  0.4285  0.1138 -0.0363
   96OSM    O11 9276   1.978   0.552   2.055  0.4009  0.1412  0.1893
   96OSM    O12 9277   1.794   0.666   1.931  0.0570 -0.0851 -0.5543
   96OSM    C1S 9278   2.003   0.671   2.137 -0.7755  0.7371 -0.4389
   96OSM    H1S 9279   1.907   0.723   2.158 -0.8002  0.3198  0.5091
   96OSM    H1T 9280   2.064   0.744   2.080  0.2072  1.4848  1.5005
   96OSM     NF 9281   2.075   0.738   2.358  0.2904  0.7211 -0.1887
   96OSM    HNF 9282   2.148   0.806   2.364 -0.5863  1.6559  0.1860
   96OSM    C2S 9283   2.083   0.625   2.267 -0.1842 -0.2900  0.4171
   96OSM    H2S 9284   2.041   0.534   2.316 -0.0595 -0.4017  0.3191
   96OSM    C3S 9285   2.231   0.588   2.223  1.1706  0.1111 -0.0885
   96OSM    H3S 9286   2.283   0.681   2.191  1.4511  0.0177  0.0952
   96OSM     O3 9287   2.241   0.511   2.106 -0.0533  0.6641  0.8945
   96OSM    HO3 9288   2.152   0.519   2.072 -0.2729 -0.1603  1.2230
   96OSM    C4S 9289   2.300   0.536   2.345  0.5808 -0.5367 -0.5788
   96OSM    H4S 9290   2.349   0.613   2.407  1.0396 -2.9687  2.2929
   96OSM    C5S 9291   2.309   0.411   2.387 -0.6909  0.0345 -0.2497
   96OSM    H5S 9292   2.265   0.326   2.333  0.9253 -0.8094 -0.2970
   96OSM    C6S 9293   2.376   0.375   2.519 -0.0085 -0.2108  0.3863
   96OSM    H6S 9294   2.295   0.348   2.590 -1.4463  0.8430 -0.7842
   96OSM    H6T 9295   2.430   0.458   2.570 -0.5239 -0.5127  1.4528
   96OSM    C7S 9296   2.487   0.269   2.515 -0.2536  0.4376  0.5759
   96OSM    H7S 9297   2.562   0.310   2.445 -0.1253 -0.7694 -0.0262
   96OSM    H7T 9298   2.449   0.172   2.476  0.7200  0.4750 -0.5131
   96OSM    C8S 9299   2.557   0.241   2.643  0.5093  0.0282 -0.4864
   96OSM    H8S 9300   2.604   0.334   2.683  1.3671 -0.2271 -0.8715
   96OSM    H8T 9301   2.643   0.176   2.616  0.2447 -0.4340 -0.2472
   96OSM    C9S 9302   2.462   0.190   2.754  0.0226 -0.8610  0.6235
   96OSM    H9S 9303   2.364   0.166   2.707  0.4634  0.9861 -1.4391
   96OSM    H9T 9304   2.431   0.270   2.824 -0.7869 -1.0503  0.4871
   96OSM   C10S 9305   2.522   0.067   2.829 -0.2134 -0.2719  0.4388
   96OSM   H10S 9306   2.627   0.090   2.858 -0.1574  0.3479 -0.2224
   96OSM   H10T 9307   2.526  -0.011   2.750  1.0724  1.2971 -1.1094
   96OSM   C11S 9308   2.451   0.002   2.943  0.3204 -0.1404 -0.1982
   96OSM   H11S 9309   2.390  -0.083   2.906  0.4973 -0.7229  0.8175
   96OSM   H11T 9310   2.389   0.079   2.995  1.3034  0.7749 -0.3350
   96OSM   C12S 9311   2.552  -0.037   3.049  0.4221  0.1266 -0.6180
   96OSM   H12S 9312   2.590   0.061   3.084 -0.3956  0.8821 -1.7566
   96OSM   H12T 9313   2.633  -0.091   2.996 -1.7933 -2.4673 -1.5905
   96OSM   C13S 9314   2.490  -0.119   3.165 -0.1234 -0.0178  0.0440
   96OSM   H13S 9315   2.559  -0.164   3.239 -0.7023 -1.5477 -0.3022
   96OSM   H13T 9316   2.445  -0.201   3.105 -0.6089  0.1921  0.1125
   96OSM   C14S 9317   2.377  -0.048   3.236  0.2338  0.1632  0.2524
   96OSM   H14S 9318   2.291  -0.042   3.166  1.2854  2.8409 -0.9313
   96OSM   H14T 9319   2.401   0.059   3.248  1.7221  0.1997 -2.3293
   96OSM   C15S 9320   2.351  -0.115   3.374  0.4704  0.1893  0.1281
   96OSM   H15S 9321   2.446  -0.106   3.431  1.3499  0.1879 -1.3020
   96OSM   H15T 9322   2.330  -0.224   3.365  0.6374  0.0638  1.0797
   96OSM   C16S 9323   2.222  -0.068   3.444 -0.0565 -0.7131  0.2806
   96OSM   H16S 9324   2.138  -0.060   3.371 -0.4568 -0.1291  0.7962
   96OSM   H16T 9325   2.249   0.031   3.487  0.7937 -1.4653  1.5222
   96OSM   C17S 9326   2.180  -0.158   3.559 -0.1377 -0.3582  0.3347
   96OSM   H17S 9327   2.162  -0.260   3.521  2.7865 -0.6056 -0.5698
   96OSM   H17T 9328   2.088  -0.117   3.606 -1.1265 -1.1917 -0.7868
   96OSM   C18S 9329   2.284  -0.171   3.665  0.2158  0.2034  0.6989
   96OSM   H18S 9330   2.236  -0.191   3.763 -0.9488 -2.1755 -0.2747
   96OSM   H18T 9331   2.338  -0.074   3.662 -0.3396  0.5067 -1.2486
   96OSM   H18U 9332   2.356  -0.250   3.634  0.5117  0.5541  0.4729
   96OSM    C1F 9333   1.973   0.757   2.436  0.4658 -0.4149 -0.3175
   96OSM     OF 9334   1.871   0.694   2.417  0.2139 -0.2553  0.5146
   96OSM    C2F 9335   1.991   0.849   2.551 -0.7468  0.5385  0.1745
   96OSM    H2F 9336   1.923   0.937   2.541 -1.5394 -0.2998 -3.2974
   96OSM    H2G 9337   2.095   0.886   2.556 -0.5853  0.5683 -2.2254
   96OSM    C3F 9338   1.947   0.778   2.682  0.1623  0.8468  0.1129
   96OSM    H3F 9339   2.010   0.695   2.720  0.4532  1.1831  0.3713
   96OSM    H3G 9340   1.842   0.743   2.672  0.1305  0.4090  1.8308
   96OSM    C4F 9341   1.938   0.866   2.801  0.3724 -0.4762  0.0763
   96OSM    H4F 9342   1.876   0.948   2.759  0.7887 -0.9632 -1.5515
   96OSM    H4G 9343   2.036   0.913   2.820 -1.2720  2.8352  1.1439
   96OSM    C5F 9344   1.863   0.810   2.923 -0.5801  0.3125  0.2633
   96OSM    H5F 9345   1.805   0.718   2.899  0.0957  0.0423 -0.3568
   96OSM    H5G 9346   1.795   0.890   2.959  1.2013  2.5950 -1.1432
   96OSM    C6F 9347   1.954   0.779   3.042  0.6083 -0.3474 -0.4702
   96OSM    H6F 9348   2.031   0.855   3.067 -1.2807  1.6562 -0.4562
   96OSM    H6G 9349   2.003   0.683   3.014  0.6250 -0.4674 -0.0473
   96OSM    C7F 9350   1.875   0.758   3.176  0.7426 -0.0642 -0.0469
   96OSM    H7F 9351   1.799   0.680   3.158 -1.5612  2.2365 -0.9826
   96OSM    H7G 9352   1.824   0.854   3.202  0.8562  0.0347 -0.1832
   96OSM    C8F 9353   1.963   0.717   3.295  0.4269 -0.2179  0.1340
   96OSM    H8F 9354   2.056   0.778   3.285  0.2943  0.1373  1.0050
   96OSM    H8G 9355   2.004   0.615   3.283 -0.8045 -0.6107 -1.0926
   96OSM    C9F 9356   1.896   0.745   3.432  0.1122  0.4458  0.3043
   96OSM    H9F 9357   1.791   0.777   3.423  0.3622  0.8530 -1.5575
   96OSM   C10F 9358   1.948   0.742   3.553 -0.6107 -0.8276 -0.1365
   96OSM   H10F 9359   1.890   0.747   3.646  1.3040 -1.6199  1.1755
   96OSM   C11F 9360   2.088   0.703   3.579  0.0221 -0.9706  0.0612
   96OSM   H11F 9361   2.151   0.793   3.599 -1.4505  0.1539 -0.1210
   96OSM   H11G 9362   2.137   0.655   3.492 -1.1286 -0.3143 -0.9773
   96OSM   C12F 9363   2.092   0.601   3.695 -0.5829 -0.2178  0.6099
   96OSM   H12F 9364   2.190   0.550   3.686  0.1022  0.9123  1.4029
   96OSM   H12G 9365   2.016   0.522   3.678 -1.0006  0.6879 -2.3379
   96OSM   C13F 9366   2.072   0.665   3.833 -0.2009  1.0841 -0.0808
   96OSM   H13F 9367   1.971   0.709   3.847 -0.0764  1.0826  0.9572
   96OSM   H13G 9368   2.146   0.744   3.858  1.2103  0.1340 -1.1546
   96OSM   C14F 9369   2.086   0.566   3.951 -0.1683  0.0679 -0.7706
   96OSM   H14F 9370   2.027   0.473   3.941 -1.7119  0.4109  3.0598
   96OSM   H14G 9371   2.049   0.615   4.044  0.7705 -0.1251 -0.2793
   96OSM   C15F 9372   2.239   0.531   3.983 -0.1438 -0.1087  0.3123
   96OSM   H15F 9373   2.298   0.625   3.996 -0.7314  0.0612  2.0507
   96OSM   H15G 9374   2.290   0.473   3.903  0.4562 -0.1065  0.6802
   96OSM   C16F 9375   2.246   0.452   4.117 -0.9299  0.1173  0.5177
   96OSM   H16F 9376   2.234   0.342   4.111  2.1518 -0.2650 -0.4325
   96OSM   H16G 9377   2.167   0.485   4.187  0.5975 -0.2145  2.4667
   96OSM   C17F 9378   2.386   0.474   4.185 -0.4078 -0.0064  0.3304
   96OSM   H17F 9379   2.368   0.419   4.280  1.7386 -0.2937  0.6326
   96OSM   H17G 9380   2.423   0.572   4.221 -0.9579  0.3450 -0.0486
   96OSM   C18F 9381   2.499   0.385   4.127  0.2578  0.1683  0.2865
   96OSM   H18F 9382   2.591   0.400   4.187  1.1730  0.6844 -1.1735
   96OSM   H18G 9383   2.527   0.405   4.021  1.2246 -1.4869  0.1965
   96OSM   H18H 9384   2.467   0.279   4.122  0.8265 -0.0681  1.3758
   97OSM      N 9385   5.703   3.294   2.030 -0.4772  0.1391  0.1164
   97OSM    C15 9386   5.649   3.348   1.900 -0.5764  0.0789 -0.1721
   97OSM   H15A 9387   5.725   3.362   1.825 -2.3045 -0.6262 -2.1428
   97OSM   H15B 9388   5.593   3.438   1.919  0.0835  0.5343 -0.3662
   97OSM   H15C 9389   5.582   3.280   1.850 -0.1782  0.4643 -1.2468
   97OSM    C14 9390   5.767   3.164   2.001 -0.7508  0.0165 -0.4991
   97OSM   H14A 9391   5.829   3.169   1.913 -1.1374 -0.0621 -0.7818
   97OSM   H14B 9392   5.688   3.090   1.995  0.0626 -0.9982  0.8256
   97OSM   H14C 9393   5.838   3.143   2.080  0.0457 -0.4738 -1.3237
   97OSM    C13 9394   5.813   3.392   2.061 -0.0221 -0.1613  0.3327
   97OSM   H13A 9395   5.769   3.484   2.097  0.4314 -0.4643  1.7384
   97OSM   H13B 9396   5.868   3.407   1.969 -1.2179  2.4861 -0.0577
   97OSM   H13C 9397   5.882   3.354   2.135 -0.7026  0.1636  1.1603
   97OSM    C12 9398   5.602   3.276   2.137  0.1948  0.3335 -0.0835
   97OSM   H12A 9399   5.576   3.374   2.172  0.6304 -0.0160  1.3188
   97OSM   H12B 9400   5.661   3.240   2.221 -0.3015 -0.1514  0.0687
   97OSM    C11 9401   5.483   3.189   2.117 -0.0026 -0.0409  0.9401
   97OSM   H11A 9402   5.441   3.205   2.015 -1.2262 -0.7609  1.3119
   97OSM   H11B 9403   5.411   3.220   2.195 -0.0653  0.4613  0.6844
   97OSM      P 9404   5.451   2.931   2.172 -0.3001  0.1081  0.3543
   97OSM    O13 9405   5.318   2.927   2.101 -0.0274 -0.0523  0.5283
   97OSM    O14 9406   5.537   2.807   2.153  0.3867 -0.2382 -0.2277
   97OSM    O11 9407   5.426   2.950   2.326 -0.6282 -0.3092  0.0907
   97OSM    O12 9408   5.526   3.057   2.122  0.1338  0.4194  0.8707
   97OSM    C1S 9409   5.533   3.010   2.408  0.2851  0.8289  0.5367
   97OSM    H1S 9410   5.607   3.067   2.347  0.6453 -0.9519 -0.7625
   97OSM    H1T 9411   5.605   2.934   2.444 -0.9437 -1.3959 -1.4736
   97OSM     NF 9412   5.606   3.173   2.582  0.0541 -0.4064  0.3676
   97OSM    HNF 9413   5.655   3.135   2.660  0.2736 -0.6874  0.0983
   97OSM    C2S 9414   5.493   3.090   2.533  0.9781  0.3377 -0.5050
   97OSM    H2S 9415   5.414   3.154   2.488  0.1516 -1.0152 -1.0367
   97OSM    C3S 9416   5.418   3.006   2.644  0.3419 -0.1234 -0.0532
   97OSM    H3S 9417   5.487   2.934   2.692 -0.8488 -0.6080  0.9727
   97OSM     O3 9418   5.318   2.929   2.585 -0.2713  0.4790  0.0334
   97OSM    HO3 9419   5.338   2.921   2.491 -2.4730 -1.8824 -0.3294
   97OSM    C4S 9420   5.359   3.090   2.754  0.2221 -0.4469  0.4070
   97OSM    H4S 9421   5.422   3.099   2.844 -1.7021 -1.1376  1.8867
   97OSM    C5S 9422   5.242   3.152   2.757 -0.5678 -0.0823  0.1410
   97OSM    H5S 9423   5.193   3.163   2.659 -0.9547 -0.5915  0.2793
   97OSM    C6S 9424   5.180   3.232   2.865 -0.1129  0.7347  0.5742
   97OSM    H6S 9425   5.125   3.315   2.816 -1.7498 -0.3275  0.5416
   97OSM    H6T 9426   5.256   3.287   2.925 -1.4172  1.2220  1.8499
   97OSM    C7S 9427   5.095   3.153   2.962 -0.0133  1.1587  0.0822
   97OSM    H7S 9428   5.156   3.068   2.999  0.7947  0.9960 -1.5068
   97OSM    H7T 9429   5.008   3.113   2.905  1.5535 -0.2986 -1.3970
   97OSM    C8S 9430   5.040   3.241   3.078  1.0769 -0.0306 -0.1990
   97OSM    H8S 9431   4.968   3.315   3.037 -2.1005 -2.9477 -0.4086
   97OSM    H8T 9432   5.124   3.298   3.123  2.0964 -2.5164  1.2320
   97OSM    C9S 9433   4.956   3.167   3.177 -1.0248 -0.0841 -0.2196
   97OSM    H9S 9434   4.875   3.115   3.122  0.4100 -1.6545 -0.9382
   97OSM    H9T 9435   4.905   3.233   3.251  2.5709 -0.8134  3.2587
   97OSM   C10S 9436   5.030   3.066   3.261 -0.5846  0.1097  0.3616
   97OSM   H10S 9437   5.081   2.994   3.194 -1.4967  0.3549 -0.6059
   97OSM   H10T 9438   4.956   3.005   3.316  0.5253 -1.3625  0.2860
   97OSM   C11S 9439   5.130   3.137   3.358  0.0407  0.6282  0.2666
   97OSM   H11S 9440   5.204   3.195   3.298  0.3486 -1.0459 -1.0609
   97OSM   H11T 9441   5.183   3.056   3.414 -0.1092 -0.3498 -0.9668
   97OSM   C12S 9442   5.062   3.237   3.447  1.0512 -0.2830 -0.1375
   97OSM   H12S 9443   4.965   3.192   3.480  0.7691 -0.3844 -1.0718
   97OSM   H12T 9444   5.027   3.325   3.390 -1.2979 -2.5059 -2.4365
   97OSM   C13S 9445   5.132   3.285   3.569 -0.1133  0.7509 -0.8551
   97OSM   H13S 9446   5.228   3.338   3.551 -0.3550  0.8087 -2.0839
   97OSM   H13T 9447   5.149   3.204   3.643 -2.7178  1.6084  0.8287
   97OSM   C14S 9448   5.052   3.384   3.653 -0.2462 -0.3655  0.6083
   97OSM   H14S 9449   5.009   3.458   3.582  2.1026  0.8592  0.3766
   97OSM   H14T 9450   5.136   3.433   3.705  0.6609 -0.3301 -0.8256
   97OSM   C15S 9451   4.940   3.331   3.735 -0.3881 -0.0089 -0.1438
   97OSM   H15S 9452   4.869   3.258   3.690 -1.2986  2.1009 -2.3871
   97OSM   H15T 9453   4.887   3.424   3.766  2.5950  1.4914  0.8303
   97OSM   C16S 9454   4.989   3.295   3.880  0.1575  0.4712 -0.7220
   97OSM   H16S 9455   4.901   3.276   3.946  0.2698  1.3371 -0.3064
   97OSM   H16T 9456   5.045   3.375   3.934  4.6733 -2.0036 -1.2721
   97OSM   C17S 9457   5.070   3.165   3.895  0.6573 -0.2199 -0.0580
   97OSM   H17S 9458   5.178   3.185   3.874  0.3889 -0.6103 -1.9946
   97OSM   H17T 9459   5.036   3.083   3.829 -3.7285  0.5017  0.9952
   97OSM   C18S 9460   5.081   3.102   4.034 -0.0182  0.0716 -0.0474
   97OSM   H18S 9461   4.987   3.049   4.061 -1.5153  1.5694 -2.0111
   97OSM   H18T 9462   5.097   3.176   4.116  2.2347  0.2356 -0.5911
   97OSM   H18U 9463   5.150   3.017   4.045 -0.8064 -0.2913  3.0351
   97OSM    C1F 9464   5.657   3.275   2.511  0.0171  0.6249 -0.6916
   97OSM     OF 9465   5.599   3.318   2.413 -0.3169  0.4679 -0.4838
   97OSM    C2F 9466   5.789   3.337   2.561  0.2793 -0.0065  0.0776
   97OSM    H2F 9467   5.836   3.250   2.610  0.5454 -1.2801 -2.2952
   97OSM    H2G 9468   5.772   3.414   2.640 -0.6782  0.0816 -0.1941
   97OSM    C3F 9469   5.877   3.396   2.451  0.5375  0.3200 -0.2275
   97OSM    H3F 9470   5.815   3.444   2.373 -0.5606 -1.0220 -0.2137
   97OSM    H3G 9471   5.914   3.304   2.400 -0.6974 -0.3533  0.0511
   97OSM    C4F 9472   5.991   3.488   2.496 -0.7207 -0.5154  1.0943
   97OSM    H4F 9473   5.953   3.581   2.543 -0.2718 -0.8904  2.2275
   97OSM    H4G 9474   6.046   3.513   2.402 -1.0356 -0.0641  1.0283
   97OSM    C5F 9475   6.100   3.432   2.588 -0.0591  0.8283  0.0404
   97OSM    H5F 9476   6.137   3.338   2.541 -2.8882 -1.7201  2.4248
   97OSM    H5G 9477   6.044   3.398   2.678 -0.3976 -2.5045 -1.2846
   97OSM    C6F 9478   6.208   3.530   2.630  0.0521  0.1321 -0.1544
   97OSM    H6F 9479   6.165   3.631   2.643  2.1167  1.1063 -0.4854
   97OSM    H6G 9480   6.286   3.548   2.552  1.4121 -1.7518  0.6733
   97OSM    C7F 9481   6.281   3.508   2.764 -0.2990  0.5573  0.4936
   97OSM    H7F 9482   6.204   3.484   2.841  1.5326 -2.7585  1.4753
   97OSM    H7G 9483   6.340   3.595   2.799  2.9003 -1.1154 -0.3460
   97OSM    C8F 9484   6.389   3.396   2.754 -0.2992  0.7930  0.3641
   97OSM    H8F 9485   6.351   3.300   2.715  3.2289 -1.2694  1.5495
   97OSM    H8G 9486   6.418   3.373   2.859 -3.2815  0.8399  1.3004
   97OSM    C9F 9487   6.509   3.431   2.669  0.6455 -0.1835 -0.1457
   97OSM    H9F 9488   6.496   3.450   2.561 -1.8516  1.4098  0.3429
   97OSM   C10F 9489   6.625   3.473   2.719 -0.2940  0.1197 -0.5651
   97OSM   H10F 9490   6.705   3.478   2.645  0.7079 -2.0278  0.3080
   97OSM   C11F 9491   6.674   3.481   2.861 -0.5494 -0.7555 -0.6771
   97OSM   H11F 9492   6.603   3.551   2.909 -1.1290 -1.5109 -0.4304
   97OSM   H11G 9493   6.768   3.541   2.866 -0.8872 -0.3168  1.2773
   97OSM   C12F 9494   6.686   3.356   2.951 -0.3468  0.2212  0.4965
   97OSM   H12F 9495   6.771   3.287   2.931 -0.6633  0.1779 -0.7681
   97OSM   H12G 9496   6.602   3.287   2.926  1.6107 -2.6272  1.2783
   97OSM   C13F 9497   6.685   3.389   3.097  0.1192 -0.3578  0.8605
   97OSM   H13F 9498   6.646   3.304   3.158 -0.0722 -0.8947  0.0168
   97OSM   H13G 9499   6.610   3.470   3.110 -0.7809 -1.0345  0.1108
   97OSM   C14F 9500   6.816   3.432   3.146 -0.2546 -0.3639 -0.5345
   97OSM   H14F 9501   6.867   3.499   3.073  0.0026 -0.8805 -0.8327
   97OSM   H14G 9502   6.883   3.345   3.159  0.9703  0.7691  1.0859
   97OSM   C15F 9503   6.817   3.502   3.290  0.3639  0.0865  0.2727
   97OSM   H15F 9504   6.769   3.433   3.362 -0.9567 -1.0223 -1.5896
   97OSM   H15G 9505   6.743   3.586   3.291  0.9582  0.6222  1.5374
   97OSM   C16F 9506   6.955   3.544   3.345  0.3933  0.4647 -0.0820
   97OSM   H16F 9507   6.991   3.610   3.262 -0.3590  1.3291  0.2709
   97OSM   H16G 9508   7.014   3.451   3.359  0.6196  0.5302 -0.5666
   97OSM   C17F 9509   6.957   3.623   3.475 -0.6308  0.0263  0.7047
   97OSM   H17F 9510   6.937   3.563   3.567  0.5562 -0.3823  0.7123
   97OSM   H17G 9511   6.877   3.700   3.478 -0.5343  0.1064  2.7759
   97OSM   C18F 9512   7.087   3.706   3.483 -0.3522  0.1121  0.0593
   97OSM   H18F 9513   7.180   3.645   3.487 -0.4816 -0.1414 -0.5903
   97OSM   H18G 9514   7.076   3.771   3.572  0.7622 -1.2147  1.2268
   97OSM   H18H 9515   7.101   3.772   3.394 -1.0183 -1.3542 -1.1887
   98OSM      N 9516   0.395   5.506   1.714 -0.3531 -0.4636 -0.8367
   98OSM    C15 9517   0.264   5.559   1.648 -0.0046  0.4482  0.1799
   98OSM   H15A 9518   0.296   5.614   1.561  1.8398  0.7766  1.0203
   98OSM   H15B 9519   0.206   5.619   1.717  0.4032 -0.6620  1.5368
   98OSM   H15C 9520   0.200   5.481   1.611  2.1886 -0.2634 -2.3977
   98OSM    C14 9521   0.459   5.408   1.622  0.4372  0.9726  0.0403
   98OSM   H14A 9522   0.544   5.358   1.666 -1.6439 -2.3829  0.6281
   98OSM   H14B 9523   0.478   5.462   1.530  0.4445  1.4332  0.3124
   98OSM   H14C 9524   0.389   5.326   1.615  0.8828  0.5796  0.1310
   98OSM    C13 9525   0.485   5.626   1.739 -0.7445  0.0233  0.6615
   98OSM   H13A 9526   0.429   5.694   1.802  0.3093  2.0119 -0.4551
   98OSM   H13B 9527   0.518   5.681   1.652  0.8124 -0.1917  1.0788
   98OSM   H13C 9528   0.575   5.604   1.794  2.0438  3.5341 -1.9971
   98OSM    C12 9529   0.359   5.430   1.844  0.0113  0.1696 -0.7463
   98OSM   H12A 9530   0.448   5.382   1.882  0.0723 -0.1049 -1.2261
   98OSM   H12B 9531   0.295   5.348   1.814  0.8394 -0.6895 -0.2286
   98OSM    C11 9532   0.285   5.509   1.960  0.4397 -0.9009 -0.3446
   98OSM   H11A 9533   0.334   5.608   1.974 -1.1055  0.1876 -2.0588
   98OSM   H11B 9534   0.288   5.462   2.060 -1.9572  0.2365  0.3473
   98OSM      P 9535   0.043   5.432   1.915  0.1998  0.0324 -0.0444
   98OSM    O13 9536  -0.082   5.501   1.905 -0.1451  0.2476  0.3379
   98OSM    O14 9537   0.068   5.313   1.821  0.1315 -1.2090 -0.6489
   98OSM    O11 9538   0.043   5.363   2.062 -0.4320 -0.7431  0.3037
   98OSM    O12 9539   0.148   5.539   1.911 -0.4243  0.3888 -0.2724
   98OSM    C1S 9540   0.048   5.443   2.185  0.5627 -0.4606  0.3366
   98OSM    H1S 9541   0.117   5.529   2.174 -0.7490  0.3791 -2.3455
   98OSM    H1T 9542   0.094   5.377   2.261  2.0950 -0.0765 -0.2313
   98OSM     NF 9543  -0.070   5.562   2.362  0.3481 -0.2308 -0.3322
   98OSM    HNF 9544  -0.095   5.524   2.450  2.0298 -0.5650  0.0395
   98OSM    C2S 9545  -0.095   5.489   2.237  0.1831  0.6240  0.2866
   98OSM    H2S 9546  -0.131   5.561   2.161 -0.4089  1.0480  0.9481
   98OSM    C3S 9547  -0.195   5.364   2.243 -0.2095 -0.5975 -1.1189
   98OSM    H3S 9548  -0.144   5.278   2.291  1.0785  1.5400  1.6968
   98OSM     O3 9549  -0.231   5.317   2.114  0.6740 -0.7603 -0.0681
   98OSM    HO3 9550  -0.162   5.356   2.060  0.6422 -3.3596 -2.1534
   98OSM    C4S 9551  -0.323   5.395   2.330  0.0879  0.1471  0.4894
   98OSM    H4S 9552  -0.392   5.458   2.272  0.8303 -0.0590 -0.6436
   98OSM    C5S 9553  -0.353   5.344   2.454  0.0132  0.7431  0.5147
   98OSM    H5S 9554  -0.283   5.274   2.500 -2.2294 -2.0616 -0.0866
   98OSM    C6S 9555  -0.485   5.381   2.509  0.4871  0.2985  0.6432
   98OSM    H6S 9556  -0.556   5.295   2.511 -0.5579  1.0170 -1.5549
   98OSM    H6T 9557  -0.550   5.447   2.447  0.3623  0.3324  0.8083
   98OSM    C7S 9558  -0.475   5.451   2.642 -0.1903  0.4266 -0.3267
   98OSM    H7S 9559  -0.405   5.537   2.638 -1.0247  1.0701 -1.7134
   98OSM    H7T 9560  -0.448   5.373   2.717 -1.1524 -0.8929 -1.3111
   98OSM    C8S 9561  -0.617   5.493   2.681  0.4577 -0.0458 -0.9974
   98OSM    H8S 9562  -0.688   5.408   2.674 -1.6852  1.6596 -1.1660
   98OSM    H8T 9563  -0.659   5.572   2.616 -0.1740 -0.1309 -0.7010
   98OSM    C9S 9564  -0.619   5.555   2.820  0.4239  0.4715 -1.0758
   98OSM    H9S 9565  -0.729   5.565   2.830  0.4374 -0.1403 -0.1799
   98OSM    H9T 9566  -0.572   5.655   2.830  1.4412 -0.1770  1.6500
   98OSM   C10S 9567  -0.554   5.471   2.929  0.3071  0.6112 -0.2169
   98OSM   H10S 9568  -0.443   5.477   2.918  0.1764  1.0129 -1.4294
   98OSM   H10T 9569  -0.584   5.365   2.918 -0.1479  0.5646  1.2816
   98OSM   C11S 9570  -0.591   5.521   3.070  0.4026  0.4345  0.6820
   98OSM   H11S 9571  -0.695   5.486   3.082  0.9317 -1.0050  1.2954
   98OSM   H11T 9572  -0.584   5.632   3.067 -0.4829  0.4790  0.0761
   98OSM   C12S 9573  -0.507   5.459   3.176 -0.6504 -0.5125 -0.0765
   98OSM   H12S 9574  -0.399   5.482   3.168 -0.6172 -0.1251  1.3022
   98OSM   H12T 9575  -0.504   5.351   3.148 -1.8836 -0.5448 -0.1613
   98OSM   C13S 9576  -0.558   5.481   3.317  0.0936 -0.1414 -0.4964
   98OSM   H13S 9577  -0.482   5.440   3.387 -2.4717 -2.6520  0.9836
   98OSM   H13T 9578  -0.642   5.413   3.341 -0.3116  0.3454 -0.5318
   98OSM   C14S 9579  -0.585   5.630   3.348  0.1862  0.4294 -0.2208
   98OSM   H14S 9580  -0.683   5.657   3.302  0.5635  0.5258 -0.9877
   98OSM   H14T 9581  -0.512   5.696   3.297 -0.2015  1.8298  0.9375
   98OSM   C15S 9582  -0.599   5.665   3.504  0.3549  0.6384 -0.0928
   98OSM   H15S 9583  -0.499   5.656   3.552  2.0251 -0.9246 -3.4530
   98OSM   H15T 9584  -0.663   5.593   3.559  0.5111  0.3155 -0.3281
   98OSM   C16S 9585  -0.636   5.812   3.526 -0.6528 -0.4968  0.1768
   98OSM   H16S 9586  -0.732   5.826   3.472 -0.1023 -0.3222 -0.7885
   98OSM   H16T 9587  -0.566   5.885   3.480 -1.2053 -0.3240 -0.3996
   98OSM   C17S 9588  -0.649   5.856   3.673 -0.3627  0.4481 -0.0353
   98OSM   H17S 9589  -0.556   5.812   3.716 -0.1313  0.7521 -0.2147
   98OSM   H17T 9590  -0.735   5.806   3.721 -0.7066  2.9578  2.1604
   98OSM   C18S 9591  -0.659   6.007   3.696 -0.4171  0.8103 -0.6241
   98OSM   H18S 9592  -0.755   6.038   3.649 -0.4068  0.4463 -0.8888
   98OSM   H18T 9593  -0.667   6.019   3.806 -0.9564 -1.0015 -0.4393
   98OSM   H18U 9594  -0.572   6.065   3.657 -0.4648  0.8051 -0.7376
   98OSM    C1F 9595  -0.030   5.689   2.366 -0.2111 -0.3363 -0.1343
   98OSM     OF 9596  -0.035   5.760   2.267  0.0669 -0.0357 -0.2898
   98OSM    C2F 9597   0.013   5.733   2.497  0.3639  0.0906  0.4330
   98OSM    H2F 9598   0.014   5.647   2.568  1.8862 -1.4302 -1.3327
   98OSM    H2G 9599  -0.063   5.812   2.516 -3.4060 -3.3195  0.8824
   98OSM    C3F 9600   0.167   5.781   2.493 -0.2124 -0.3781  0.5427
   98OSM    H3F 9601   0.197   5.832   2.587  1.5843  2.7540 -1.5563
   98OSM    H3G 9602   0.180   5.864   2.420  1.2749 -0.1893  1.0001
   98OSM    C4F 9603   0.268   5.670   2.461  0.7659  0.1491 -0.2999
   98OSM    H4F 9604   0.292   5.687   2.354  0.3738  2.2029 -0.1006
   98OSM    H4G 9605   0.217   5.571   2.466  1.7152 -0.3611 -0.4462
   98OSM    C5F 9606   0.395   5.670   2.545 -0.0172 -0.6630 -0.3260
   98OSM    H5F 9607   0.436   5.773   2.550 -0.5857 -0.4509  0.0931
   98OSM    H5G 9608   0.476   5.615   2.493  1.1650  0.3613  0.3979
   98OSM    C6F 9609   0.381   5.635   2.705  0.5360 -0.5164  0.9408
   98OSM    H6F 9610   0.323   5.542   2.723 -2.4998  0.9633 -0.3520
   98OSM    H6G 9611   0.319   5.722   2.736 -1.6004 -0.3832 -2.9989
   98OSM    C7F 9612   0.521   5.628   2.765  0.6486 -0.2316 -0.2134
   98OSM    H7F 9613   0.559   5.732   2.755 -1.2638  0.4571 -0.6709
   98OSM    H7G 9614   0.583   5.559   2.704  0.6214 -0.1291 -0.3592
   98OSM    C8F 9615   0.528   5.576   2.914  0.3328 -0.0544  0.0980
   98OSM    H8F 9616   0.477   5.659   2.967  1.6099  1.4409 -0.9061
   98OSM    H8G 9617   0.635   5.593   2.938  0.3391  1.4993 -0.8509
   98OSM    C9F 9618   0.478   5.437   2.945  0.4154 -0.4857  0.0679
   98OSM    H9F 9619   0.437   5.384   2.858  1.0982  0.6905 -1.0026
   98OSM   C10F 9620   0.478   5.376   3.066 -0.4327  0.1345 -0.2228
   98OSM   H10F 9621   0.442   5.274   3.085  0.6054 -0.1729  0.1377
   98OSM   C11F 9622   0.530   5.459   3.183  0.0605 -0.6190 -0.5332
   98OSM   H11F 9623   0.498   5.565   3.173  2.4839  0.1365 -0.9406
   98OSM   H11G 9624   0.641   5.464   3.187  0.0446 -0.5439 -0.1284
   98OSM   C12F 9625   0.507   5.407   3.331  0.2476 -0.6230  0.0741
   98OSM   H12F 9626   0.401   5.410   3.365  0.0393 -2.3505 -0.3282
   98OSM   H12G 9627   0.565   5.475   3.397 -1.3909  1.7054 -0.7127
   98OSM   C13F 9628   0.550   5.267   3.350  0.1039  1.1298  0.4224
   98OSM   H13F 9629   0.627   5.240   3.274 -0.9112 -1.3834  0.1759
   98OSM   H13G 9630   0.461   5.212   3.312 -0.6523  2.3070  0.4580
   98OSM   C14F 9631   0.572   5.219   3.493 -0.0731 -0.5587  0.5300
   98OSM   H14F 9632   0.491   5.255   3.559 -1.1991 -1.0558 -0.5362
   98OSM   H14G 9633   0.668   5.256   3.534  0.7750 -0.0830 -1.6966
   98OSM   C15F 9634   0.580   5.066   3.505 -0.3484  0.1996  0.5788
   98OSM   H15F 9635   0.660   5.032   3.435  0.8149  1.0342  1.4562
   98OSM   H15G 9636   0.481   5.026   3.475  0.6808 -0.5938 -2.1598
   98OSM   C16F 9637   0.619   5.010   3.643  0.4780  0.1714  0.4353
   98OSM   H16F 9638   0.556   5.066   3.715  1.5745  1.8081  0.1837
   98OSM   H16G 9639   0.726   5.041   3.650  0.5884 -0.0152 -0.3464
   98OSM   C17F 9640   0.636   4.857   3.657  0.7135  0.2992  0.6302
   98OSM   H17F 9641   0.630   4.835   3.766 -0.5736  1.2169  0.7639
   98OSM   H17G 9642   0.735   4.833   3.613  0.0008 -0.2680 -0.7382
   98OSM   C18F 9643   0.518   4.776   3.586 -0.0412  0.3215 -0.2609
   98OSM   H18F 9644   0.529   4.756   3.477  0.4351 -3.0641  0.2858
   98OSM   H18G 9645   0.418   4.820   3.606  0.7042  1.7014  0.5583
   98OSM   H18H 9646   0.509   4.678   3.638 -0.5475  0.6824  0.3461
   99OSM      N 9647   5.465   0.289   1.690  0.3224  0.3129 -0.4297
   99OSM    C15 9648   5.614   0.278   1.698 -0.1929 -0.5450 -0.0483
   99OSM   H15A 9649   5.652   0.355   1.632  1.2003 -0.1333  1.1711
   99OSM   H15B 9650   5.651   0.180   1.669  1.2194 -0.2000  0.4671
   99OSM   H15C 9651   5.653   0.290   1.798  0.3904 -0.5964 -0.2646
   99OSM    C14 9652   5.436   0.436   1.698  0.1264  0.7755 -0.1306
   99OSM   H14A 9653   5.330   0.453   1.690 -0.4948 -2.0299  0.8750
   99OSM   H14B 9654   5.472   0.500   1.618 -1.7839  1.0954 -0.7934
   99OSM   H14C 9655   5.470   0.477   1.791  0.4448 -1.0784  0.6134
   99OSM    C13 9656   5.418   0.243   1.559  0.4391  0.9485 -0.4610
   99OSM   H13A 9657   5.467   0.293   1.477  0.2842 -1.1205 -1.9052
   99OSM   H13B 9658   5.310   0.253   1.559  0.2574 -0.5754 -1.8494
   99OSM   H13C 9659   5.447   0.141   1.536 -2.4207 -0.3070  0.8955
   99OSM    C12 9660   5.395   0.208   1.807  0.5443 -0.0019 -0.2305
   99OSM   H12A 9661   5.428   0.251   1.901  0.0494 -0.7556  0.3033
   99OSM   H12B 9662   5.431   0.106   1.809 -1.9781 -0.9525  1.0729
   99OSM    C11 9663   5.243   0.194   1.802  0.5913  0.5089 -0.1915
   99OSM   H11A 9664   5.207   0.116   1.871 -0.4053 -0.8994 -2.2035
   99OSM   H11B 9665   5.224   0.136   1.709  1.8979 -1.2015  0.5704
   99OSM      P 9666   5.066   0.346   1.925  0.2650  0.0368  0.1755
   99OSM    O13 9667   5.026   0.489   1.926  0.0337 -0.5108  0.3736
   99OSM    O14 9668   4.955   0.249   1.892 -0.1066  0.0617  0.1814
   99OSM    O11 9669   5.142   0.314   2.052  0.3969 -0.1360 -0.1006
   99OSM    O12 9670   5.174   0.323   1.809 -0.3009  0.5845  0.2446
   99OSM    C1S 9671   5.081   0.318   2.176  0.9149  0.0492 -1.0309
   99OSM    H1S 9672   5.003   0.239   2.173  0.5548  0.3269  0.3495
   99OSM    H1T 9673   5.021   0.410   2.195 -1.4212 -1.6591  0.4065
   99OSM     NF 9674   5.120   0.295   2.427  0.3904  0.1807 -0.0093
   99OSM    HNF 9675   5.137   0.387   2.462  3.4879 -0.6334  0.9430
   99OSM    C2S 9676   5.183   0.291   2.294  0.2340  0.1060 -1.1444
   99OSM    H2S 9677   5.221   0.187   2.287 -1.4761 -0.4439 -3.0123
   99OSM    C3S 9678   5.311   0.387   2.275  0.4223  0.1449  0.5333
   99OSM    H3S 9679   5.269   0.489   2.286 -1.2223 -0.5715  1.2777
   99OSM     O3 9680   5.372   0.372   2.143  0.2742 -0.5701  0.3056
   99OSM    HO3 9681   5.296   0.336   2.096  2.0599 -3.2117 -0.7771
   99OSM    C4S 9682   5.410   0.374   2.386 -0.4682  0.8453 -0.2731
   99OSM    H4S 9683   5.380   0.424   2.480  1.7968  1.9452 -0.0677
   99OSM    C5S 9684   5.536   0.330   2.381  0.1199  0.0527  0.4475
   99OSM    H5S 9685   5.586   0.289   2.292  0.0470 -3.4028  1.8325
   99OSM    C6S 9686   5.636   0.327   2.495  0.7879  0.2835  0.3873
   99OSM    H6S 9687   5.716   0.399   2.465  1.2242 -0.6259 -0.6779
   99OSM    H6T 9688   5.681   0.226   2.493 -1.1882 -0.6237 -0.8189
   99OSM    C7S 9689   5.583   0.343   2.634  0.3952  0.1851 -0.7978
   99OSM    H7S 9690   5.483   0.297   2.638  0.1788  0.6355  2.7469
   99OSM    H7T 9691   5.564   0.451   2.652 -1.3784 -0.3887  1.2391
   99OSM    C8S 9692   5.674   0.282   2.738  0.2049  0.1728 -0.5279
   99OSM    H8S 9693   5.779   0.317   2.744 -0.5362  2.3831  1.3478
   99OSM    H8T 9694   5.684   0.172   2.727  2.0322  0.5392 -3.2538
   99OSM    C9S 9695   5.633   0.306   2.882 -0.5146  0.0129 -0.7295
   99OSM    H9S 9696   5.525   0.288   2.902 -0.2452  1.0624  2.2977
   99OSM    H9T 9697   5.668   0.411   2.889  1.8419 -0.6243 -1.8881
   99OSM   C10S 9698   5.727   0.237   2.985  0.0731 -0.3374  0.8824
   99OSM   H10S 9699   5.832   0.263   2.961  0.3491 -0.6067  1.7701
   99OSM   H10T 9700   5.708   0.129   2.967  0.7299 -0.2930 -0.1304
   99OSM   C11S 9701   5.683   0.273   3.128 -0.8314  0.1853  0.7999
   99OSM   H11S 9702   5.590   0.217   3.153  0.6090 -1.2870  3.3012
   99OSM   H11T 9703   5.655   0.380   3.138 -0.4532  0.6539 -2.3413
   99OSM   C12S 9704   5.800   0.232   3.224 -0.0626 -0.0952 -0.0040
   99OSM   H12S 9705   5.897   0.283   3.204  0.5203 -1.1794  0.0067
   99OSM   H12T 9706   5.821   0.124   3.212  1.1219  0.3224 -2.0476
   99OSM   C13S 9707   5.754   0.283   3.361 -0.1225 -0.1361 -1.0203
   99OSM   H13S 9708   5.657   0.238   3.391 -0.6746  1.6207 -0.0234
   99OSM   H13T 9709   5.729   0.391   3.350 -0.0636 -0.0251 -0.0741
   99OSM   C14S 9710   5.861   0.272   3.470 -0.3265 -0.2035 -0.0056
   99OSM   H14S 9711   5.865   0.361   3.537  0.3687 -1.1840  1.3108
   99OSM   H14T 9712   5.961   0.269   3.423 -0.7431 -0.1511 -0.9189
   99OSM   C15S 9713   5.853   0.153   3.569 -1.0236 -0.7478 -0.3913
   99OSM   H15S 9714   5.880   0.057   3.520 -1.3359 -0.7983 -0.4645
   99OSM   H15T 9715   5.752   0.143   3.615  0.3824 -2.2027  2.6750
   99OSM   C16S 9716   5.945   0.168   3.693 -0.2331  0.4759  0.4023
   99OSM   H16S 9717   5.920   0.265   3.740 -1.7129 -0.2447  1.1617
   99OSM   H16T 9718   6.047   0.177   3.650 -0.3223  2.2174  0.5180
   99OSM   C17S 9719   5.925   0.053   3.796 -0.0565  0.9887 -0.6467
   99OSM   H17S 9720   5.960  -0.040   3.747  0.5970  1.3182 -0.8133
   99OSM   H17T 9721   5.817   0.050   3.821  0.1122  1.9301  0.2919
   99OSM   C18S 9722   5.997   0.081   3.929 -0.4548  0.1779  0.0002
   99OSM   H18S 9723   5.971   0.187   3.951 -3.6160 -0.4027 -0.4546
   99OSM   H18T 9724   6.105   0.061   3.913 -0.4869  0.1251 -0.1459
   99OSM   H18U 9725   5.964   0.026   4.020 -1.5714  2.2495  0.9187
   99OSM    C1F 9726   5.035   0.208   2.475 -0.7178 -0.2635 -0.6366
   99OSM     OF 9727   5.005   0.102   2.418  0.1735  0.2523  0.7041
   99OSM    C2F 9728   4.972   0.243   2.608  0.4256  0.2678 -0.5679
   99OSM    H2F 9729   4.972   0.354   2.614 -0.2441  0.2430  0.0599
   99OSM    H2G 9730   5.033   0.207   2.693 -0.4872  0.3549  0.1410
   99OSM    C3F 9731   4.823   0.184   2.621  0.3005 -0.6985  1.3656
   99OSM    H3F 9732   4.804   0.075   2.625 -0.6413 -0.5159  2.2948
   99OSM    H3G 9733   4.764   0.229   2.538 -0.2554  1.6048  2.8827
   99OSM    C4F 9734   4.753   0.227   2.752 -0.9150  0.3758 -0.5504
   99OSM    H4F 9735   4.646   0.199   2.741 -1.0272  0.1636  0.8538
   99OSM    H4G 9736   4.773   0.335   2.770  0.1081  0.4400 -1.9624
   99OSM    C5F 9737   4.799   0.144   2.869 -0.7038  0.0428 -0.6190
   99OSM    H5F 9738   4.910   0.150   2.873 -0.7183 -0.3085  2.0534
   99OSM    H5G 9739   4.771   0.037   2.870 -1.6401  0.2802  0.6674
   99OSM    C6F 9740   4.764   0.202   3.005  0.3104  0.3011 -0.3916
   99OSM    H6F 9741   4.662   0.171   3.036  0.7695 -0.5744  0.2833
   99OSM    H6G 9742   4.770   0.312   3.007  2.7147  0.2028  1.2819
   99OSM    C7F 9743   4.867   0.165   3.113  0.0277 -0.1773 -0.5468
   99OSM    H7F 9744   4.968   0.206   3.092  0.7972 -2.0056 -0.5814
   99OSM    H7G 9745   4.868   0.055   3.132 -2.5892  0.3036  3.9284
   99OSM    C8F 9746   4.836   0.226   3.251 -0.7779  0.1202  0.6889
   99OSM    H8F 9747   4.863   0.333   3.244  1.2621 -0.4293 -1.2394
   99OSM    H8G 9748   4.903   0.185   3.330  0.7047 -0.6090 -0.8799
   99OSM    C9F 9749   4.700   0.215   3.314 -0.0534  0.1133  0.2247
   99OSM    H9F 9750   4.623   0.190   3.239 -1.5965  1.0283  1.4343
   99OSM   C10F 9751   4.673   0.231   3.443  0.1131 -1.2418  0.1048
   99OSM   H10F 9752   4.575   0.206   3.488  0.0789  1.5723  1.8871
   99OSM   C11F 9753   4.777   0.277   3.550  0.7973  0.5666  0.1738
   99OSM   H11F 9754   4.804   0.382   3.524  1.5126 -0.0565 -1.7569
   99OSM   H11G 9755   4.868   0.216   3.565  0.4810  0.6604  2.9512
   99OSM   C12F 9756   4.703   0.287   3.685  0.3183 -0.1643 -0.8001
   99OSM   H12F 9757   4.664   0.186   3.710 -0.3627 -0.3752 -2.5757
   99OSM   H12G 9758   4.613   0.352   3.685  0.4086 -0.0388 -0.7119
   99OSM   C13F 9759   4.783   0.349   3.802 -0.3299  0.9405 -0.1652
   99OSM   H13F 9760   4.872   0.283   3.816 -0.6704  0.5092 -0.0197
   99OSM   H13G 9761   4.729   0.348   3.899 -1.3481 -1.8725 -0.6667
   99OSM   C14F 9762   4.828   0.491   3.757  0.0589  0.3263 -0.8799
   99OSM   H14F 9763   4.738   0.555   3.741  0.4673  0.9342 -0.7798
   99OSM   H14G 9764   4.899   0.491   3.672  0.3894  2.2274 -0.6620
   99OSM   C15F 9765   4.912   0.559   3.869 -1.0199 -0.3693 -0.3017
   99OSM   H15F 9766   5.001   0.493   3.878 -0.7989  0.1218  1.7526
   99OSM   H15G 9767   4.864   0.560   3.969 -0.7974  1.3571 -0.1711
   99OSM   C16F 9768   4.966   0.693   3.832  0.3936 -0.5577 -0.1088
   99OSM   H16F 9769   4.884   0.767   3.843  1.1791  0.1877  0.9097
   99OSM   H16G 9770   4.997   0.696   3.726  0.6480  1.0905  0.0004
   99OSM   C17F 9771   5.089   0.738   3.907 -0.6535 -0.3527  0.5030
   99OSM   H17F 9772   5.174   0.741   3.836 -2.3421  1.1174 -1.5826
   99OSM   H17G 9773   5.114   0.658   3.979  1.8754 -0.7910 -0.7509
   99OSM   C18F 9774   5.085   0.870   3.979  0.0101 -0.3152 -1.0939
   99OSM   H18F 9775   5.114   0.956   3.914  0.8953  1.5791  1.6417
   99OSM   H18G 9776   5.168   0.868   4.053 -1.4386 -2.0075  0.5722
   99OSM   H18H 9777   4.988   0.897   4.025 -0.0437 -1.8667 -0.2342
  100OSM      N 9778   0.849   6.856   1.685  0.1314  0.5584 -0.0401
  100OSM    C15 9779   0.878   6.712   1.712 -0.0639  0.4680 -0.2613
  100OSM   H15A 9780   0.797   6.653   1.752  1.0685 -1.9090 -1.2612
  100OSM   H15B 9781   0.965   6.700   1.773 -1.8022  0.3667  2.3508
  100OSM   H15C 9782   0.897   6.661   1.618 -0.3737 -1.4814  0.6933
  100OSM    C14 9783   0.963   6.917   1.615 -0.6932 -0.3444  0.7745
  100OSM   H14A 9784   1.052   6.923   1.677 -0.0644  2.0130 -0.2389
  100OSM   H14B 9785   0.931   7.019   1.596 -1.1223 -0.7586 -0.9056
  100OSM   H14C 9786   0.996   6.882   1.518  1.5957 -0.4433  1.5190
  100OSM    C13 9787   0.730   6.867   1.599 -0.3850  0.8078 -0.2611
  100OSM   H13A 9788   0.744   6.804   1.512  0.1051  1.1759 -0.4551
  100OSM   H13B 9789   0.722   6.968   1.560  1.1985 -0.0582 -3.1552
  100OSM   H13C 9790   0.641   6.830   1.648 -1.3841 -0.1280 -2.6094
  100OSM    C12 9791   0.823   6.929   1.808  0.4924 -0.2753 -0.6995
  100OSM   H12A 9792   0.743   6.881   1.862  0.9543  1.1350  1.3614
  100OSM   H12B 9793   0.788   7.027   1.780 -1.5970 -0.1847  1.8786
  100OSM    C11 9794   0.942   6.937   1.911 -0.4236 -0.4172  0.4525
  100OSM   H11A 9795   0.988   6.836   1.919 -0.2822 -0.5491 -1.5209
  100OSM   H11B 9796   0.912   6.959   2.016  0.8276 -1.4284  1.0525
  100OSM      P 9797   1.033   7.183   1.872 -0.2109 -0.0638 -0.2932
  100OSM    O13 9798   1.161   7.231   1.808  0.2170  0.1139  0.5817
  100OSM    O14 9799   0.906   7.231   1.813  0.0232 -0.4149 -0.0774
  100OSM    O11 9800   1.029   7.215   2.024  0.2756  0.8126  0.6670
  100OSM    O12 9801   1.045   7.021   1.868  0.8074 -0.0731  0.3163
  100OSM    C1S 9802   1.121   7.129   2.108  0.9786 -0.5683  0.1568
  100OSM    H1S 9803   1.227   7.142   2.076  0.6196 -0.8022 -1.1978
  100OSM    H1T 9804   1.090   7.023   2.096 -0.3944 -0.2268  0.5331
  100OSM     NF 9805   1.206   7.080   2.330 -0.6390 -0.1500 -0.8853
  100OSM    HNF 9806   1.172   7.031   2.410  0.8730  0.0775 -0.0543
  100OSM    C2S 9807   1.110   7.164   2.260 -0.1106 -0.5855 -0.4663
  100OSM    H2S 9808   1.136   7.271   2.278  1.5496 -1.2166  1.2490
  100OSM    C3S 9809   0.966   7.154   2.325 -0.2717  0.0057  0.3860
  100OSM    H3S 9810   0.925   7.055   2.299  1.5761 -0.4306 -1.0968
  100OSM     O3 9811   0.871   7.244   2.270  0.3839 -0.1126 -0.0242
  100OSM    HO3 9812   0.900   7.259   2.180 -1.0166 -2.4201 -0.9360
  100OSM    C4S 9813   0.966   7.172   2.477 -0.0085  0.0345 -0.4009
  100OSM    H4S 9814   1.024   7.259   2.511 -0.1050 -0.6536  1.6531
  100OSM    C5S 9815   0.907   7.092   2.573  0.3687 -0.1480  0.3455
  100OSM    H5S 9816   0.844   7.008   2.540  0.1876 -0.3251  1.1421
  100OSM    C6S 9817   0.918   7.102   2.727  0.0560  0.3036  0.1950
  100OSM    H6S 9818   0.999   7.042   2.775  0.2488  1.9376  2.1045
  100OSM    H6T 9819   0.822   7.078   2.778  0.0804  1.8671  1.0750
  100OSM    C7S 9820   0.941   7.246   2.771 -0.1126  0.6899 -0.0226
  100OSM    H7S 9821   0.875   7.317   2.717 -1.3121 -1.0464 -0.9430
  100OSM    H7T 9822   1.042   7.269   2.732  0.1954 -1.0516 -0.3562
  100OSM    C8S 9823   0.938   7.254   2.922 -0.5947 -0.4631 -0.0983
  100OSM    H8S 9824   1.004   7.181   2.974  0.2780  0.1373 -0.3390
  100OSM    H8T 9825   0.831   7.224   2.932 -0.7380  0.4754  1.9144
  100OSM    C9S 9826   0.931   7.395   2.983 -0.1573 -0.4821 -0.4656
  100OSM    H9S 9827   0.832   7.440   2.963  1.4390  3.6123 -0.0995
  100OSM    H9T 9828   1.012   7.461   2.944  0.2387 -0.3958  0.4718
  100OSM   C10S 9829   0.946   7.388   3.134  0.8405  0.8099  0.3545
  100OSM   H10S 9830   1.054   7.377   3.158  0.7236 -2.9150 -0.2736
  100OSM   H10T 9831   0.889   7.303   3.176 -1.2538  0.6786 -2.4636
  100OSM   C11S 9832   0.887   7.507   3.209  0.6937  0.2243  0.2718
  100OSM   H11S 9833   0.780   7.513   3.181  0.2289 -2.2565  1.3154
  100OSM   H11T 9834   0.935   7.600   3.170 -0.0684  1.9334  3.1363
  100OSM   C12S 9835   0.909   7.504   3.354  0.1246 -0.0656  0.2620
  100OSM   H12S 9836   1.017   7.495   3.378  0.2499  1.4193  0.3354
  100OSM   H12T 9837   0.855   7.417   3.398 -2.8545  1.1125 -0.8053
  100OSM   C13S 9838   0.857   7.629   3.440  0.2899 -0.6919 -0.5697
  100OSM   H13S 9839   0.765   7.660   3.387  0.0611 -1.0618 -0.3918
  100OSM   H13T 9840   0.938   7.705   3.439 -0.2469 -0.0970 -2.2191
  100OSM   C14S 9841   0.808   7.595   3.589  0.5305 -1.3470  0.0214
  100OSM   H14S 9842   0.739   7.509   3.577 -2.5916  0.9210  0.3224
  100OSM   H14T 9843   0.724   7.664   3.615  1.7172  0.1304  0.0805
  100OSM   C15S 9844   0.912   7.566   3.698  0.0900  0.0415  0.2411
  100OSM   H15S 9845   0.987   7.645   3.717 -0.8635  1.2900 -0.8867
  100OSM   H15T 9846   0.972   7.479   3.664 -0.3681 -0.8441  1.5970
  100OSM   C16S 9847   0.845   7.506   3.828 -0.1231  0.0671  0.0765
  100OSM   H16S 9848   0.930   7.470   3.890 -0.8673 -2.5064 -0.2680
  100OSM   H16T 9849   0.795   7.415   3.788  0.4264 -0.3192  0.2643
  100OSM   C17S 9850   0.781   7.602   3.925 -0.4349  0.3876 -0.1149
  100OSM   H17S 9851   0.825   7.699   3.892  0.1574 -0.7832 -3.0746
  100OSM   H17T 9852   0.813   7.583   4.030  0.8254  1.3214 -0.3010
  100OSM   C18S 9853   0.631   7.601   3.918  0.3806  0.0908 -0.4611
  100OSM   H18S 9854   0.587   7.503   3.948 -1.1238  0.7052 -0.5453
  100OSM   H18T 9855   0.602   7.631   3.815 -0.1434  1.6064  0.0957
  100OSM   H18U 9856   0.581   7.690   3.963 -0.7104  0.3324 -2.0505
  100OSM    C1F 9857   1.338   7.121   2.318 -0.5422 -0.3385 -0.0323
  100OSM     OF 9858   1.367   7.230   2.273 -0.3494  0.4655  0.2416
  100OSM    C2F 9859   1.446   7.024   2.359 -0.7923 -0.0538 -0.2654
  100OSM    H2F 9860   1.504   7.008   2.266  1.3908  3.5626  0.2411
  100OSM    H2G 9861   1.391   6.937   2.399 -0.6752 -0.3081 -0.6565
  100OSM    C3F 9862   1.541   7.081   2.462  0.5866  0.2675 -0.3433
  100OSM    H3F 9863   1.581   7.177   2.423  1.5258  1.6125  3.5100
  100OSM    H3G 9864   1.627   7.012   2.477  0.1299 -0.1335  0.5032
  100OSM    C4F 9865   1.477   7.108   2.600 -0.0303 -0.3394 -0.4460
  100OSM    H4F 9866   1.392   7.179   2.586  0.1784  0.6466  2.4324
  100OSM    H4G 9867   1.547   7.159   2.670  2.6062 -1.6346 -1.9876
  100OSM    C5F 9868   1.425   6.977   2.662 -0.6913  0.0420 -0.2564
  100OSM    H5F 9869   1.508   6.909   2.689 -1.1007 -0.5237 -0.4075
  100OSM    H5G 9870   1.363   6.919   2.591 -1.2682 -0.1795  0.4111
  100OSM    C6F 9871   1.342   6.995   2.785 -0.4367 -0.4575  0.2721
  100OSM    H6F 9872   1.313   6.889   2.802  0.6630 -1.0888 -1.5529
  100OSM    H6G 9873   1.250   7.056   2.786  0.0370  0.3109 -0.9795
  100OSM    C7F 9874   1.426   7.039   2.908 -0.2053 -1.1656 -0.1097
  100OSM    H7F 9875   1.441   7.148   2.923 -0.1947 -0.4468 -4.1835
  100OSM    H7G 9876   1.529   6.999   2.905  0.6956  1.0714 -0.9826
  100OSM    C8F 9877   1.381   6.972   3.034 -0.7194 -0.5933 -0.3805
  100OSM    H8F 9878   1.436   7.011   3.123  0.1925 -0.0185 -1.1778
  100OSM    H8G 9879   1.397   6.862   3.037 -1.0764 -0.6557 -0.7149
  100OSM    C9F 9880   1.238   6.990   3.059 -0.0896 -0.2302 -0.5438
  100OSM    H9F 9881   1.170   6.920   3.008 -2.0307  2.8288 -2.4920
  100OSM   C10F 9882   1.185   7.072   3.146  0.2592 -0.9508  0.6716
  100OSM   H10F 9883   1.076   7.079   3.152 -0.1063 -3.8362 -0.7114
  100OSM   C11F 9884   1.256   7.160   3.235  0.4772  0.0701 -0.1932
  100OSM   H11F 9885   1.181   7.238   3.260 -0.1855 -0.3590 -0.7794
  100OSM   H11G 9886   1.353   7.200   3.199  0.9135 -0.3758  0.4809
  100OSM   C12F 9887   1.277   7.078   3.368  0.0828 -0.8942  0.6191
  100OSM   H12F 9888   1.364   7.009   3.368  1.3642  0.6568  0.4828
  100OSM   H12G 9889   1.188   7.015   3.388  0.0962 -1.4538 -0.9787
  100OSM   C13F 9890   1.290   7.174   3.486 -0.6108 -0.2222  0.0449
  100OSM   H13F 9891   1.204   7.245   3.486 -2.1504 -2.0055 -1.0042
  100OSM   H13G 9892   1.382   7.233   3.469 -0.0177  0.2760  3.9503
  100OSM   C14F 9893   1.310   7.115   3.630  0.0157  0.6106  0.2502
  100OSM   H14F 9894   1.368   7.186   3.692  1.8950 -0.6143 -0.0070
  100OSM   H14G 9895   1.381   7.029   3.622 -0.3634  0.0212  2.6091
  100OSM   C15F 9896   1.178   7.072   3.698 -0.0965  0.1685  0.4966
  100OSM   H15F 9897   1.150   6.971   3.663  0.4833  0.0950  0.2496
  100OSM   H15G 9898   1.103   7.152   3.680  0.1193  0.6419  1.5887
  100OSM   C16F 9899   1.209   7.053   3.854  0.1795  0.4209 -0.4057
  100OSM   H16F 9900   1.309   7.003   3.856 -0.1752 -0.3811  2.0504
  100OSM   H16G 9901   1.129   6.982   3.882 -0.1276  0.5962 -0.8404
  100OSM   C17F 9902   1.207   7.185   3.933  0.5288 -0.2697  0.2860
  100OSM   H17F 9903   1.264   7.257   3.871  1.0053  0.0346  1.0753
  100OSM   H17G 9904   1.252   7.175   4.034  1.2799  2.1544  0.2441
  100OSM   C18F 9905   1.067   7.243   3.938  0.2827  0.7359  1.0105
  100OSM   H18F 9906   1.028   7.259   3.835  2.3392  0.1810  0.0845
  100OSM   H18G 9907   1.055   7.339   3.993  0.4375  0.6129  1.2610
  100OSM   H18H 9908   1.006   7.160   3.979  1.0551 -0.3558  0.0211
  101SLPC     N 9909   2.870   2.735   6.616 -0.5266  0.5628  0.1111
  101SLPC   C13 9910   2.915   2.670   6.493 -0.0588  0.4154  0.0696
  101SLPC  H13A 9911   2.924   2.736   6.408  0.5932  0.1154 -0.0954
  101SLPC  H13B 9912   3.016   2.635   6.500 -0.0340  0.6284  0.9896
  101SLPC  H13C 9913   2.858   2.581   6.473 -0.3985  0.9379 -1.4050
  101SLPC   C14 9914   2.928   2.872   6.632  0.2792 -0.0227 -0.0939
  101SLPC  H14A 9915   2.906   2.923   6.539 -2.6258 -2.4035 -0.8775
  101SLPC  H14B 9916   2.888   2.940   6.705 -2.4789 -0.7351 -0.8093
  101SLPC  H14C 9917   3.035   2.870   6.644  0.3749 -1.9314 -0.9405
  101SLPC   C15 9918   2.920   2.649   6.731  0.5285  0.1103 -0.4701
  101SLPC  H15A 9919   3.027   2.639   6.722  0.4133 -0.3347 -1.5073
  101SLPC  H15B 9920   2.908   2.699   6.826  0.7562 -1.8386  0.6231
  101SLPC  H15C 9921   2.872   2.553   6.728 -2.5941  1.5818 -2.9375
  101SLPC   C12 9922   2.721   2.739   6.626 -0.4764 -1.1462  0.6367
  101SLPC  H12A 9923   2.678   2.804   6.551 -0.2050 -1.1676  0.4634
  101SLPC  H12B 9924   2.700   2.787   6.720 -1.8250 -0.4387  0.0005
  101SLPC   C11 9925   2.633   2.611   6.616  0.6105  0.4118 -0.1093
  101SLPC  H11A 9926   2.533   2.651   6.646  1.2367  1.9433 -0.0016
  101SLPC  H11B 9927   2.661   2.534   6.691 -0.3545 -0.3999 -0.5479
  101SLPC     P 9928   2.524   2.602   6.379 -0.2684 -0.4177  0.6717
  101SLPC   O13 9929   2.545   2.506   6.264 -0.2124 -0.1898 -0.0311
  101SLPC   O14 9930   2.390   2.599   6.442 -0.4530 -0.0948  0.2045
  101SLPC   O12 9931   2.630   2.555   6.487  0.3045  0.1120 -0.3466
  101SLPC   O11 9932   2.556   2.754   6.348 -0.0110 -0.1729  0.2644
  101SLPC    C1 9933   2.684   2.780   6.295  0.6698 -0.0383  0.5077
  101SLPC    HA 9934   2.750   2.827   6.371  0.8305 -0.3400  0.5543
  101SLPC    HB 9935   2.734   2.690   6.253 -2.3985 -1.3177 -0.6577
  101SLPC    C2 9936   2.673   2.894   6.186  0.4713  0.2144 -0.4244
  101SLPC    HS 9937   2.616   2.977   6.233  1.5269 -0.2510  1.8141
  101SLPC   O21 9938   2.603   2.841   6.074 -0.6675  0.0134 -0.3672
  101SLPC   C21 9939   2.504   2.902   6.014 -0.2432 -1.0873  0.5212
  101SLPC   O22 9940   2.464   3.015   6.041  0.6462  0.5544  0.6202
  101SLPC   C22 9941   2.456   2.821   5.899  0.1006 -0.0654 -0.3948
  101SLPC   H2R 9942   2.444   2.716   5.933 -0.8059  0.4414  0.9375
  101SLPC   H2S 9943   2.359   2.868   5.873  0.1622  0.7899  0.8509
  101SLPC    C3 9944   2.805   2.939   6.135 -0.0660  0.4576 -0.1402
  101SLPC    HX 9945   2.852   2.854   6.082 -2.9223 -1.1439 -0.3388
  101SLPC    HY 9946   2.873   2.960   6.221 -0.4765  0.7152  0.1269
  101SLPC   O31 9947   2.802   3.049   6.051 -0.6035  0.5677 -0.2443
  101SLPC   C31 9948   2.916   3.068   5.986 -0.4231 -0.2098 -0.5427
  101SLPC   O32 9949   3.021   3.010   6.008  0.0718  0.2962 -0.0953
  101SLPC   C32 9950   2.894   3.191   5.900  0.0864 -0.2346  0.2908
  101SLPC   H2X 9951   2.900   3.281   5.965  1.8481 -0.9332  1.1618
  101SLPC   H2Y 9952   2.791   3.195   5.857 -0.4563 -1.7524  1.3632
  101SLPC   C23 9953   2.554   2.822   5.774  0.0396  0.5728  0.7156
  101SLPC   H3R 9954   2.512   2.746   5.705 -1.1686  1.5894  0.2918
  101SLPC   H3S 9955   2.650   2.783   5.816  0.1242  0.3305  0.2999
  101SLPC   C24 9956   2.584   2.963   5.717 -0.3893 -0.0085  0.0441
  101SLPC   H4R 9957   2.630   3.028   5.794  0.0849  2.6850 -2.3451
  101SLPC   H4S 9958   2.483   3.005   5.697 -0.4176 -0.1222 -0.0539
  101SLPC   C25 9959   2.654   2.952   5.585  0.3155 -0.5832 -0.3243
  101SLPC   H5R 9960   2.717   2.862   5.595  0.1816 -0.3933  4.3320
  101SLPC   H5S 9961   2.719   3.039   5.560 -0.7905  0.3211 -0.1891
  101SLPC   C26 9962   2.549   2.954   5.470  0.0550  0.2993  0.2756
  101SLPC   H6R 9963   2.506   3.056   5.466  0.2935  0.3871 -0.0630
  101SLPC   H6S 9964   2.467   2.883   5.494 -0.6886  1.2601  0.6551
  101SLPC   C27 9965   2.603   2.920   5.326  0.0726  0.5188 -0.2824
  101SLPC   H7R 9966   2.509   2.940   5.269 -0.0238  1.3396  0.1476
  101SLPC   H7S 9967   2.639   2.816   5.310  1.0631  1.0370 -1.5914
  101SLPC   C28 9968   2.722   3.008   5.294  0.8694 -0.5406  0.6771
  101SLPC   H8R 9969   2.818   2.976   5.339  1.2767  0.1734  0.3195
  101SLPC   H8S 9970   2.712   3.113   5.328 -0.9182  0.3241 -2.1987
  101SLPC   C29 9971   2.734   3.008   5.145  0.5788  0.6136  0.2312
  101SLPC   H9R 9972   2.634   3.014   5.098  0.1291  0.0882  1.0766
  101SLPC  C210 9973   2.841   2.981   5.072  0.0343 -0.4570  0.4208
  101SLPC  H10R 9974   2.824   2.979   4.963 -1.7346 -0.2869  0.6717
  101SLPC  C211 9975   2.979   2.955   5.117  0.3017 -0.5946  0.1461
  101SLPC  H11R 9976   3.007   2.998   5.215  0.4467  1.7340 -0.8292
  101SLPC  H11S 9977   3.030   3.019   5.041 -2.4254  1.6020 -0.0302
  101SLPC  C212 9978   3.027   2.811   5.111  0.2448  0.1913 -0.1300
  101SLPC  H12R 9979   2.983   2.754   5.028  1.2662 -1.6767  0.5633
  101SLPC  C213 9980   3.100   2.738   5.192  0.4890  0.3800  0.4941
  101SLPC  H13R 9981   3.115   2.631   5.170 -0.9269 -0.1551  1.9589
  101SLPC  C214 9982   3.171   2.777   5.318  0.0948 -0.0222 -0.9600
  101SLPC  H14R 9983   3.231   2.869   5.302  1.5214 -0.8481 -0.5171
  101SLPC  H14S 9984   3.236   2.697   5.357  1.7499  1.8839  0.3644
  101SLPC  C215 9985   3.077   2.805   5.436 -0.0882  0.2388  0.1826
  101SLPC  H15R 9986   2.993   2.733   5.446  0.2294 -0.4229 -1.5882
  101SLPC  H15S 9987   3.041   2.908   5.413 -1.6150 -0.4269 -0.5203
  101SLPC  C216 9988   3.166   2.817   5.560  0.0434 -0.4373  0.7243
  101SLPC  H16R 9989   3.257   2.881   5.553  0.0912 -0.2118  2.7334
  101SLPC  H16S 9990   3.206   2.714   5.565 -0.1367 -0.5700 -0.2913
  101SLPC  C217 9991   3.092   2.851   5.693 -0.1771  0.6556 -0.4570
  101SLPC  H17R 9992   3.041   2.949   5.683 -2.5934 -0.3978  0.8073
  101SLPC  H17S 9993   3.176   2.859   5.765 -1.0816 -2.1145  1.0541
  101SLPC  C218 9994   2.993   2.748   5.743 -0.1021  0.1531 -0.8771
  101SLPC  H18R 9995   2.948   2.767   5.843 -0.0588 -2.2407 -0.3435
  101SLPC  H18S 9996   3.019   2.640   5.734 -3.0329 -0.5023 -2.8521
  101SLPC  H18T 9997   2.908   2.780   5.680 -1.0315  4.1788  2.0296
  101SLPC   C33 9998   3.006   3.215   5.791  0.3685  0.3641 -0.5839
  101SLPC   H3X 9999   3.092   3.145   5.789  0.9124  1.0179 -0.4178
  101SLPC   H3Y10000   3.048   3.315   5.813 -0.1757 -0.1194  3.3140
  101SLPC   C3410001   2.940   3.206   5.657  0.8440 -0.1137  0.0742
  101SLPC   H4X10002   2.869   3.290   5.646  0.8830 -0.1501 -0.4784
  101SLPC   H4Y10003   2.885   3.111   5.645  0.3412  0.1266  0.4563
  101SLPC   C3510004   3.046   3.225   5.552  0.1656  0.0268 -0.3777
  101SLPC   H5X10005   3.114   3.138   5.549 -0.1877 -0.3623  1.4623
  101SLPC   H5Y10006   3.111   3.310   5.582 -0.7787  0.8812 -0.6500
  101SLPC   C3610007   2.986   3.260   5.410 -0.0095  0.2345 -0.0506
  101SLPC   H6X10008   2.907   3.337   5.404 -1.7854 -1.6058 -1.4295
  101SLPC   H6Y10009   2.929   3.168   5.384  3.4762 -1.9166 -0.9133
  101SLPC   C3710010   3.092   3.296   5.310  0.4084 -0.0737  0.7279
  101SLPC   H7X10011   3.176   3.224   5.318  1.2845  0.8032 -0.3433
  101SLPC   H7Y10012   3.122   3.401   5.329 -3.6141  1.7951 -1.9291
  101SLPC   C3810013   3.035   3.308   5.167 -0.2646 -0.2230 -0.3919
  101SLPC   H8X10014   2.948   3.240   5.153 -0.1567 -0.4309 -0.0716
  101SLPC   H8Y10015   3.112   3.260   5.104  1.1478 -0.0402  1.1386
  101SLPC   C3910016   3.023   3.453   5.118  0.5619  0.2934  0.2064
  101SLPC   H9X10017   3.117   3.506   5.144 -0.1452  0.9909  1.5246
  101SLPC   H9Y10018   2.943   3.502   5.178  0.9492 -0.9072  1.7677
  101SLPC  C31010019   2.988   3.463   4.966  0.0219  0.1270 -0.5440
  101SLPC  H10X10020   2.901   3.403   4.934  0.4635  0.9478 -3.5961
  101SLPC  H10Y10021   3.072   3.415   4.912 -0.9849 -0.2489 -1.8112
  101SLPC  C31110022   2.981   3.609   4.907  0.2181  0.5348 -0.6983
  101SLPC  H11X10023   3.068   3.668   4.943 -1.3068 -0.3560  5.6900
  101SLPC  H11Y10024   2.889   3.662   4.938  1.1484  1.4177  0.6574
  101SLPC  C31210025   2.980   3.603   4.755 -0.1200 -0.4407  0.2334
  101SLPC  H12X10026   2.893   3.564   4.698 -0.0011  1.0975 -1.0491
  101SLPC  H12Y10027   3.069   3.543   4.725  0.2684  0.1030  0.2813
  101SLPC  C31310028   2.990   3.755   4.700  0.1650 -0.0606 -0.4508
  101SLPC  H13X10029   3.039   3.820   4.775 -2.8216  0.8034  0.8984
  101SLPC  H13Y10030   2.890   3.801   4.686  0.4759  0.6286 -0.4564
  101SLPC  C31410031   3.063   3.770   4.562  0.0655 -0.7524  0.5916
  101SLPC  H14X10032   3.174   3.762   4.571  0.0055  0.1791  3.0822
  101SLPC  H14Y10033   3.043   3.874   4.531  0.1931 -0.4756  1.3989
  101SLPC  C31510034   3.003   3.679   4.461  0.3421 -0.1304  0.6227
  101SLPC  H15X10035   2.893   3.692   4.466  0.5331  2.3117 -0.1095
  101SLPC  H15Y10036   3.039   3.578   4.490  1.8510 -0.1387 -1.0584
  101SLPC  C31610037   3.064   3.703   4.319 -0.1754  0.4469  0.1077
  101SLPC  H16X10038   3.026   3.619   4.257  1.8604 -0.8473  0.5392
  101SLPC  H16Y10039   3.170   3.677   4.337 -0.2339  1.1369  1.5767
  101SLPC  C31710040   3.033   3.840   4.259  0.6171  0.1509  0.6169
  101SLPC  H17X10041   3.077   3.919   4.323  1.8363  0.6865 -0.8109
  101SLPC  H17Y10042   2.923   3.850   4.253  0.3270 -2.4742  0.3133
  101SLPC  C31810043   3.082   3.850   4.111  0.5234 -0.0961 -1.0616
  101SLPC  H18X10044   3.193   3.857   4.107  0.7745 -0.0077  2.7740
  101SLPC  H18Y10045   3.035   3.938   4.063 -0.6617 -0.7038 -1.0527
  101SLPC  H18Z10046   3.049   3.756   4.061 -2.4590 -1.6151  3.1350
  102SLPC     N10047   2.304   3.750   6.388  0.0759  0.3888  0.1514
  102SLPC   C1310048   2.276   3.666   6.510 -0.6410  0.2418 -0.2040
  102SLPC  H13A10049   2.291   3.717   6.604  0.4903  2.4623 -1.5002
  102SLPC  H13B10050   2.173   3.636   6.511 -1.0305  1.5457  0.6012
  102SLPC  H13C10051   2.332   3.573   6.506  3.4400  2.3960  1.0972
  102SLPC   C1410052   2.450   3.787   6.409 -0.0007  0.2289  0.2605
  102SLPC  H14A10053   2.523   3.710   6.387  0.7948  0.4598  1.9453
  102SLPC  H14B10054   2.466   3.867   6.338  1.6383 -1.4213 -1.3639
  102SLPC  H14C10055   2.476   3.810   6.511 -1.3152  1.9031  0.2472
  102SLPC   C1510056   2.222   3.874   6.406  0.0757 -0.2201  0.3424
  102SLPC  H15A10057   2.219   3.903   6.510 -0.4424 -2.9594  1.1920
  102SLPC  H15B10058   2.261   3.951   6.341  0.3787 -0.8277 -0.2105
  102SLPC  H15C10059   2.119   3.858   6.380  0.2917  1.2896 -1.7010
  102SLPC   C1210060   2.271   3.677   6.260 -0.1955  0.3643  0.1601
  102SLPC  H12A10061   2.342   3.596   6.248  2.3419  2.8054 -3.2116
  102SLPC  H12B10062   2.287   3.731   6.168 -3.9925 -2.2878 -2.3836
  102SLPC   C1110063   2.121   3.634   6.236 -0.2833 -0.7547  0.3516
  102SLPC  H11A10064   2.123   3.588   6.135  0.9645  0.5830 -0.2644
  102SLPC  H11B10065   2.065   3.728   6.222  0.4534 -0.4216 -0.4114
  102SLPC     P10066   2.118   3.388   6.348 -0.0426  0.3641 -0.1489
  102SLPC   O1310067   2.248   3.385   6.419 -0.6901  0.1833  0.3243
  102SLPC   O1410068   2.011   3.310   6.416 -0.1524 -0.0639 -0.5970
  102SLPC   O1210069   2.064   3.544   6.334 -0.3761  0.4244 -0.9950
  102SLPC   O1110070   2.136   3.356   6.195 -0.6410  0.3283  0.7070
  102SLPC    C110071   2.136   3.224   6.136 -0.1973  0.1649  0.0806
  102SLPC    HA10072   2.243   3.199   6.126 -0.3582 -0.3388 -0.4616
  102SLPC    HB10073   2.084   3.144   6.195  0.9540 -0.6692 -0.0114
  102SLPC    C210074   2.071   3.238   5.999 -0.0477 -0.8736 -0.6163
  102SLPC    HS10075   2.093   3.339   5.959 -0.4333 -0.3878  0.3578
  102SLPC   O2110076   1.927   3.206   6.018  0.0232 -0.2016 -0.0681
  102SLPC   C2110077   1.851   3.307   5.991  0.1309 -0.0161  0.2034
  102SLPC   O2210078   1.877   3.421   5.954 -0.6792  0.0640  0.2566
  102SLPC   C2210079   1.706   3.251   6.007 -0.5714  0.3650  0.2083
  102SLPC   H2R10080   1.702   3.142   5.989 -0.7688  0.6385 -1.5587
  102SLPC   H2S10081   1.667   3.273   6.109 -0.8968 -2.6223  0.8080
  102SLPC    C310082   2.142   3.138   5.900  0.0448  0.4069 -0.3709
  102SLPC    HX10083   2.117   3.033   5.923  0.5020  0.4593  0.3844
  102SLPC    HY10084   2.252   3.152   5.910  0.2816 -1.2816 -0.3175
  102SLPC   O3110085   2.087   3.151   5.771  0.1229  0.1385 -0.3477
  102SLPC   C3110086   2.146   3.093   5.670 -0.3356 -0.2595  0.3859
  102SLPC   O3210087   2.234   3.013   5.684  0.1381 -0.1558  0.1399
  102SLPC   C3210088   2.107   3.138   5.532 -0.1817 -0.2746  0.0982
  102SLPC   H2X10089   2.133   3.063   5.454  2.3365  0.3432  0.2605
  102SLPC   H2Y10090   2.165   3.232   5.518  0.4002 -0.5012  0.8992
  102SLPC   C2310091   1.600   3.301   5.906 -0.3535 -0.2416  0.1661
  102SLPC   H3R10092   1.591   3.412   5.901 -0.7935 -0.3304 -2.7265
  102SLPC   H3S10093   1.497   3.265   5.930 -0.2012 -1.2591 -0.6342
  102SLPC   C2410094   1.643   3.243   5.767  0.9783  0.7401 -0.1822
  102SLPC   H4R10095   1.639   3.133   5.777  0.4073  0.7707 -0.0564
  102SLPC   H4S10096   1.748   3.275   5.749  0.1090  2.9991 -1.7627
  102SLPC   C2510097   1.543   3.279   5.654 -0.1037 -0.0811 -0.2958
  102SLPC   H5R10098   1.575   3.381   5.625  2.0370 -0.8929 -1.0352
  102SLPC   H5S10099   1.438   3.276   5.690  0.7988 -0.1173  2.5543
  102SLPC   C2610100   1.550   3.175   5.545 -0.4229  0.0264 -0.3560
  102SLPC   H6R10101   1.559   3.074   5.592  0.2504 -0.3439 -1.2601
  102SLPC   H6S10102   1.648   3.187   5.495 -0.1161  1.8249  0.5991
  102SLPC   C2710103   1.433   3.187   5.448 -0.6017 -0.4905 -0.1893
  102SLPC   H7R10104   1.439   3.289   5.407 -0.8323 -0.8624 -1.1607
  102SLPC   H7S10105   1.339   3.177   5.507 -0.6826 -0.0212 -0.2405
  102SLPC   C2810106   1.439   3.078   5.339  0.3066 -0.2055 -0.5934
  102SLPC   H8R10107   1.434   2.985   5.400  1.3469  0.3561  0.3913
  102SLPC   H8S10108   1.541   3.078   5.294  0.4637  0.3321 -0.2524
  102SLPC   C2910109   1.335   3.095   5.239 -0.6273  0.2374  0.2197
  102SLPC   H9R10110   1.245   3.040   5.270 -2.5985  2.4583 -1.2060
  102SLPC  C21010111   1.347   3.140   5.112 -0.7806  0.0296  0.8729
  102SLPC  H10R10112   1.254   3.142   5.052  0.6140 -0.8890 -1.4755
  102SLPC  C21110113   1.481   3.197   5.056  0.2123  0.3339  0.0514
  102SLPC  H11R10114   1.494   3.169   4.949 -0.7728 -0.2481  0.0757
  102SLPC  H11S10115   1.564   3.139   5.102 -0.8439 -3.0329 -1.9395
  102SLPC  C21210116   1.500   3.345   5.078 -0.3920 -0.0294 -0.2114
  102SLPC  H12R10117   1.561   3.356   5.170  0.2091 -0.4417 -0.5561
  102SLPC  C21310118   1.470   3.452   5.002 -0.2507  0.3475 -0.0599
  102SLPC  H13R10119   1.497   3.548   5.049  0.2109 -0.6268  1.7880
  102SLPC  C21410120   1.397   3.467   4.876 -0.4011 -0.0931  0.0927
  102SLPC  H14R10121   1.315   3.540   4.893  0.0510  0.8909 -1.6306
  102SLPC  H14S10122   1.374   3.367   4.835 -1.3885  0.0795  0.2073
  102SLPC  C21510123   1.467   3.542   4.759 -0.2939 -0.5329  0.3633
  102SLPC  H15R10124   1.546   3.470   4.731  0.3276 -0.3002  1.4657
  102SLPC  H15S10125   1.509   3.640   4.791 -3.4563  0.3859  2.1739
  102SLPC  C21610126   1.365   3.560   4.644  1.0955 -0.1059  0.0219
  102SLPC  H16R10127   1.270   3.604   4.680  0.2903 -2.5369  1.0562
  102SLPC  H16S10128   1.335   3.457   4.616  0.8032  0.2022 -0.8244
  102SLPC  C21710129   1.414   3.647   4.522  0.5138  0.1463 -0.2903
  102SLPC  H17R10130   1.417   3.753   4.555  2.5912  0.2808 -0.7847
  102SLPC  H17S10131   1.327   3.650   4.453  0.1382  0.4347  0.1898
  102SLPC  C21810132   1.545   3.597   4.460 -0.5616 -0.0513 -0.4243
  102SLPC  H18R10133   1.520   3.499   4.413  1.1954 -1.0931  0.6446
  102SLPC  H18S10134   1.625   3.579   4.536 -0.4901 -1.6289 -0.8382
  102SLPC  H18T10135   1.581   3.677   4.391  2.0500 -0.8495 -0.1313
  102SLPC   C3310136   1.959   3.190   5.525  0.6662  0.6587 -0.0096
  102SLPC   H3X10137   1.927   3.251   5.612  0.1705  2.5577 -1.4263
  102SLPC   H3Y10138   1.894   3.101   5.518  0.4160  0.9268 -1.5144
  102SLPC   C3410139   1.934   3.286   5.405  0.0244  0.6209  0.8380
  102SLPC   H4X10140   2.026   3.346   5.392  0.1870  0.1081 -0.5157
  102SLPC   H4Y10141   1.849   3.357   5.418 -2.4789 -1.6215 -1.9377
  102SLPC   C3510142   1.900   3.214   5.270  0.8824  0.1446  0.0927
  102SLPC   H5X10143   1.801   3.167   5.291  1.4843 -0.6725  1.2047
  102SLPC   H5Y10144   1.970   3.130   5.253  0.1420 -0.2865 -0.9417
  102SLPC   C3610145   1.901   3.304   5.140 -0.1966  0.1792  0.3146
  102SLPC   H6X10146   2.000   3.356   5.144 -0.3173  0.4410 -0.0141
  102SLPC   H6Y10147   1.830   3.389   5.144 -0.9806 -0.3864 -0.9626
  102SLPC   C3710148   1.883   3.217   5.019  0.3728 -0.9642 -0.5324
  102SLPC   H7X10149   1.788   3.162   5.038 -1.4387  1.8952 -0.6463
  102SLPC   H7Y10150   1.959   3.136   5.016 -0.5825 -2.0454  1.7849
  102SLPC   C3810151   1.868   3.294   4.887  0.1656 -0.4657 -0.5187
  102SLPC   H8X10152   1.965   3.346   4.867  0.8729 -2.5801 -3.0517
  102SLPC   H8Y10153   1.794   3.374   4.907  0.1846 -0.8931  1.4851
  102SLPC   C3910154   1.828   3.215   4.764 -0.0266  0.5872  0.1875
  102SLPC   H9X10155   1.722   3.189   4.784 -0.0258  0.0080 -0.5189
  102SLPC   H9Y10156   1.871   3.113   4.778 -1.1910  0.3455  2.6371
  102SLPC  C31010157   1.850   3.283   4.635  0.4734 -1.1377 -0.0211
  102SLPC  H10X10158   1.947   3.335   4.625  1.1664 -2.4742 -0.5613
  102SLPC  H10Y10159   1.768   3.358   4.629  1.3552 -0.1961 -0.6919
  102SLPC  C31110160   1.835   3.178   4.526  0.0491 -0.4100 -1.2628
  102SLPC  H11X10161   1.759   3.103   4.556  0.0988  0.4165  1.1932
  102SLPC  H11Y10162   1.936   3.135   4.513  0.4027 -0.1257  0.2448
  102SLPC  C31210163   1.797   3.238   4.386  0.5958  0.6573  0.3206
  102SLPC  H12X10164   1.695   3.281   4.398  0.3363  0.7288 -1.7467
  102SLPC  H12Y10165   1.793   3.162   4.305 -0.4793  1.8865 -0.8402
  102SLPC  C31310166   1.887   3.340   4.331  0.0350 -0.0084 -0.2579
  102SLPC  H13X10167   1.978   3.289   4.292 -0.9021 -1.3203 -0.8025
  102SLPC  H13Y10168   1.911   3.421   4.403  1.0343 -0.2798 -0.2708
  102SLPC  C31410169   1.811   3.424   4.222  0.0759  0.5143  0.4343
  102SLPC  H14X10170   1.723   3.481   4.259  0.4473  1.6994 -0.4316
  102SLPC  H14Y10171   1.778   3.356   4.141 -0.5381  2.7401 -1.2817
  102SLPC  C31510172   1.914   3.513   4.146 -0.6025 -0.0780  0.0170
  102SLPC  H15X10173   1.867   3.533   4.047 -0.6097 -1.4084 -0.2699
  102SLPC  H15Y10174   2.005   3.453   4.125  0.0320  1.1605 -0.9079
  102SLPC  C31610175   1.955   3.642   4.215 -0.4008  0.6058  0.6022
  102SLPC  H16X10176   2.041   3.684   4.160 -1.3560  0.2898 -1.1847
  102SLPC  H16Y10177   1.985   3.605   4.315  0.8273 -1.0304 -0.3380
  102SLPC  C31710178   1.841   3.750   4.206 -0.2690 -0.0970 -0.3111
  102SLPC  H17X10179   1.750   3.706   4.251 -0.8435  0.5140 -0.8562
  102SLPC  H17Y10180   1.820   3.780   4.101 -1.6290  0.9077  0.2252
  102SLPC  C31810181   1.877   3.868   4.297  0.9347  0.7628 -0.4276
  102SLPC  H18X10182   1.908   3.821   4.393  0.0550  1.4938  0.2367
  102SLPC  H18Y10183   1.790   3.935   4.312 -1.4486 -1.4180 -3.3450
  102SLPC  H18Z10184   1.968   3.923   4.265  2.1705 -0.1717  1.2935
  103SLPC     N10185   1.586   2.801   6.465  0.1280  0.6509  0.6584
  103SLPC   C1310186   1.706   2.730   6.527  0.7188  0.6237 -0.6591
  103SLPC  H13A10187   1.744   2.658   6.455 -1.4997  0.4115 -1.6973
  103SLPC  H13B10188   1.781   2.800   6.561 -0.3966  0.6187  2.0089
  103SLPC  H13C10189   1.674   2.670   6.611  0.3097  1.6843 -0.0501
  103SLPC   C1410190   1.543   2.888   6.573 -0.2557 -0.0987 -0.3759
  103SLPC  H14A10191   1.520   2.835   6.664  1.6060 -0.5961 -0.1515
  103SLPC  H14B10192   1.600   2.976   6.599  0.2686 -0.9695  1.5591
  103SLPC  H14C10193   1.452   2.936   6.541 -0.3776  0.2330  0.4529
  103SLPC   C1510194   1.480   2.696   6.452 -0.1920 -0.2480 -0.1497
  103SLPC  H15A10195   1.396   2.740   6.401 -0.0663 -0.0276 -0.1685
  103SLPC  H15B10196   1.524   2.619   6.390  0.2684  0.7884 -1.1299
  103SLPC  H15C10197   1.455   2.651   6.547 -0.6719  3.1427  1.4848
  103SLPC   C1210198   1.626   2.874   6.336 -0.0085 -0.1686  0.0395
  103SLPC  H12A10199   1.654   2.798   6.263  0.0217  0.7377 -0.9129
  103SLPC  H12B10200   1.711   2.940   6.347 -0.5944  0.6627 -0.3297
  103SLPC   C1110201   1.518   2.956   6.267  0.4270  0.1506  0.3072
  103SLPC  H11A10202   1.560   3.035   6.200  1.8416 -0.0067  0.9725
  103SLPC  H11B10203   1.471   3.016   6.348  2.3598  0.0035  1.6185
  103SLPC     P10204   1.290   2.888   6.173  0.1902  0.0071  0.5325
  103SLPC   O1310205   1.223   2.782   6.243  0.1328  0.2633  0.2419
  103SLPC   O1410206   1.251   3.023   6.217  0.6400 -0.3365  0.2030
  103SLPC   O1210207   1.441   2.865   6.197 -0.0318 -0.7963 -0.0940
  103SLPC   O1110208   1.274   2.854   6.018 -0.5088 -0.4985  0.0574
  103SLPC    C110209   1.315   2.943   5.913  0.8320  0.1015 -0.5664
  103SLPC    HA10210   1.234   2.964   5.840 -0.7320  0.7786  1.2763
  103SLPC    HB10211   1.345   3.042   5.954 -0.2238 -0.4641  1.7076
  103SLPC    C210212   1.440   2.891   5.836 -0.6376  0.4572 -0.6159
  103SLPC    HS10213   1.471   2.968   5.763  0.2996  2.7909  2.0888
  103SLPC   O2110214   1.415   2.758   5.785  0.1928 -0.3451  0.2935
  103SLPC   C2110215   1.323   2.765   5.689  0.4263 -0.0728 -0.0195
  103SLPC   O2210216   1.283   2.869   5.636  0.0618  0.2066  0.5454
  103SLPC   C2210217   1.287   2.621   5.652 -0.1613 -0.3805  0.3583
  103SLPC   H2R10218   1.312   2.562   5.742 -0.7726  1.3432  1.7081
  103SLPC   H2S10219   1.177   2.611   5.658 -0.0735 -3.0452 -0.8331
  103SLPC    C310220   1.561   2.884   5.926 -0.5743  0.3797 -0.5598
  103SLPC    HX10221   1.565   2.803   6.001 -1.6813 -0.5439 -1.4730
  103SLPC    HY10222   1.561   2.977   5.988 -0.1498  1.2151 -1.7609
  103SLPC   O3110223   1.678   2.893   5.845  0.1489  0.1154  0.2408
  103SLPC   C3110224   1.766   2.792   5.850  0.9994  0.0413 -0.1921
  103SLPC   O3210225   1.745   2.681   5.900  0.4877 -0.3006  0.1499
  103SLPC   C3210226   1.884   2.825   5.766 -0.1584 -0.8756  0.1956
  103SLPC   H2X10227   1.960   2.744   5.756 -0.6083 -1.6646  2.5604
  103SLPC   H2Y10228   1.929   2.918   5.808 -0.4756  0.0935 -1.5062
  103SLPC   C2310229   1.359   2.579   5.525  0.6981  1.2470  1.1714
  103SLPC   H3R10230   1.368   2.468   5.523  1.8111  1.3021  2.1698
  103SLPC   H3S10231   1.467   2.606   5.526  0.9025  0.5195  0.5610
  103SLPC   C2410232   1.300   2.630   5.398 -0.2516  0.1067  0.0237
  103SLPC   H4R10233   1.303   2.741   5.402 -2.6166  0.1844  1.2242
  103SLPC   H4S10234   1.194   2.599   5.387 -1.2027  2.9338  0.3948
  103SLPC   C2510235   1.380   2.605   5.264 -0.0923 -0.1122 -0.4327
  103SLPC   H5R10236   1.489   2.612   5.286 -0.2256  2.1253 -0.2618
  103SLPC   H5S10237   1.355   2.682   5.188 -1.2432  0.1643  0.1987
  103SLPC   C2610238   1.341   2.468   5.203 -0.1132 -0.1495  0.1581
  103SLPC   H6R10239   1.356   2.396   5.286 -1.3762 -1.3989 -0.6546
  103SLPC   H6S10240   1.418   2.455   5.124 -0.4462  1.1384 -0.4150
  103SLPC   C2710241   1.214   2.442   5.126 -0.1814 -0.4542 -0.5062
  103SLPC   H7R10242   1.132   2.450   5.201  1.4552 -0.7031  1.4185
  103SLPC   H7S10243   1.231   2.337   5.092 -0.2823 -1.0825  1.2347
  103SLPC   C2810244   1.177   2.532   5.006  0.5941 -0.1957  0.1535
  103SLPC   H8R10245   1.182   2.637   5.044 -0.4445 -0.4307  0.9922
  103SLPC   H8S10246   1.068   2.520   4.990  0.9744 -1.6563 -1.6448
  103SLPC   C2910247   1.250   2.499   4.876  0.7001 -0.5720  0.4099
  103SLPC   H9R10248   1.241   2.393   4.848 -0.5943 -0.6443  1.0295
  103SLPC  C21010249   1.315   2.588   4.801 -0.4047 -0.9137  0.2376
  103SLPC  H10R10250   1.367   2.550   4.712  1.9283 -1.6668  1.8393
  103SLPC  C21110251   1.325   2.739   4.834 -0.3577 -0.0161  0.7021
  103SLPC  H11R10252   1.406   2.746   4.910 -0.6375  2.0747  0.8698
  103SLPC  H11S10253   1.230   2.766   4.884 -0.7477  0.4043 -0.2425
  103SLPC  C21210254   1.358   2.827   4.707 -0.3517  0.0173 -0.3957
  103SLPC  H12R10255   1.451   2.884   4.713  0.1428 -0.8874  1.1846
  103SLPC  C21310256   1.279   2.841   4.597  0.0896  0.3131  0.1156
  103SLPC  H13R10257   1.320   2.906   4.519  0.4414 -0.1501 -0.0978
  103SLPC  C21410258   1.142   2.783   4.567  0.0556  0.1126 -0.2724
  103SLPC  H14R10259   1.087   2.855   4.502  0.8205  1.1989  0.2511
  103SLPC  H14S10260   1.085   2.750   4.656 -0.7915  0.2484 -0.7507
  103SLPC  C21510261   1.154   2.665   4.471 -0.2302  0.3509  0.2627
  103SLPC  H15R10262   1.203   2.577   4.518 -0.9867 -0.0215  0.3518
  103SLPC  H15S10263   1.214   2.686   4.380 -0.5080 -1.2859 -0.3171
  103SLPC  C21610264   1.011   2.603   4.445 -0.5383 -1.1166  0.5010
  103SLPC  H16R10265   0.958   2.663   4.367 -0.2522  0.1551  1.2561
  103SLPC  H16S10266   0.950   2.620   4.536  1.3489 -1.6126  1.9088
  103SLPC  C21710267   1.006   2.460   4.401 -0.6908  0.9300 -0.0753
  103SLPC  H17R10268   0.904   2.425   4.376 -1.2470  1.4205  1.3974
  103SLPC  H17S10269   1.035   2.410   4.496  1.2999  1.4927 -0.3311
  103SLPC  C21810270   1.094   2.428   4.275 -0.3431 -0.0306 -1.0253
  103SLPC  H18R10271   1.067   2.479   4.180  1.3975  0.9122 -1.0446
  103SLPC  H18S10272   1.098   2.317   4.264 -1.0333  0.0117 -1.7878
  103SLPC  H18T10273   1.198   2.456   4.302  0.0673 -3.8574  2.4642
  103SLPC   C3310274   1.830   2.857   5.621 -0.1109 -0.3988 -0.9638
  103SLPC   H3X10275   1.920   2.862   5.556  0.9876 -1.3586  0.4181
  103SLPC   H3Y10276   1.779   2.956   5.617  1.2448  0.4916  1.5539
  103SLPC   C3410277   1.730   2.758   5.566 -0.5347 -0.4099 -0.8711
  103SLPC   H4X10278   1.646   2.758   5.639 -2.0268 -1.9161 -2.5013
  103SLPC   H4Y10279   1.776   2.659   5.547 -0.1560 -0.1977 -1.0701
  103SLPC   C3510280   1.671   2.808   5.431 -0.1547  0.3779 -0.7114
  103SLPC   H5X10281   1.674   2.919   5.434 -2.8258  0.4938 -0.4038
  103SLPC   H5Y10282   1.564   2.779   5.426  0.0925 -0.7833  0.2074
  103SLPC   C3610283   1.750   2.761   5.312  0.2038  0.1446  0.6500
  103SLPC   H6X10284   1.758   2.650   5.306 -1.3276 -0.0929  2.2131
  103SLPC   H6Y10285   1.846   2.818   5.310 -0.5829  1.4952  0.2269
  103SLPC   C3710286   1.682   2.806   5.173 -0.8053 -0.1340  0.1198
  103SLPC   H7X10287   1.646   2.911   5.183  0.2446  0.2677 -0.1098
  103SLPC   H7Y10288   1.593   2.742   5.159 -0.2831 -0.8790  0.1209
  103SLPC   C3810289   1.782   2.795   5.057 -0.1127 -0.2614  0.2367
  103SLPC   H8X10290   1.827   2.697   5.085  0.5922 -0.0988 -0.2786
  103SLPC   H8Y10291   1.871   2.861   5.054 -0.0853 -0.3376 -0.7063
  103SLPC   C3910292   1.714   2.806   4.917  0.3779  0.4060 -0.5614
  103SLPC   H9X10293   1.677   2.909   4.900  1.9618  0.7318 -2.3932
  103SLPC   H9Y10294   1.626   2.738   4.913 -1.2097  1.8843  3.5817
  103SLPC  C31010295   1.809   2.787   4.796  0.6938 -0.4429 -0.1970
  103SLPC  H10X10296   1.865   2.692   4.808  0.9807  0.0205  3.0588
  103SLPC  H10Y10297   1.879   2.873   4.799 -0.1892  0.2807  0.4804
  103SLPC  C31110298   1.742   2.780   4.654 -0.3654  0.3603 -0.1857
  103SLPC  H11X10299   1.820   2.793   4.576  0.5047 -1.0572  0.4065
  103SLPC  H11Y10300   1.663   2.855   4.635 -2.3393 -1.4719  0.3015
  103SLPC  C31210301   1.668   2.641   4.639  0.0415 -0.1450  0.3323
  103SLPC  H12X10302   1.585   2.620   4.710 -0.0056 -1.0497  0.0221
  103SLPC  H12Y10303   1.739   2.560   4.664 -0.4655 -0.9474 -0.7429
  103SLPC  C31310304   1.628   2.622   4.493 -0.4701 -0.0199  0.5601
  103SLPC  H13X10305   1.708   2.629   4.417 -1.1493  0.6201 -0.1059
  103SLPC  H13Y10306   1.554   2.701   4.469  1.8678  1.9632 -0.5402
  103SLPC  C31410307   1.567   2.483   4.482 -0.3359  0.0910  0.0503
  103SLPC  H14X10308   1.503   2.466   4.571  0.8193  0.5218  0.9979
  103SLPC  H14Y10309   1.654   2.413   4.484 -2.5975 -2.8874  0.7253
  103SLPC  C31510310   1.477   2.451   4.364  0.8580 -0.5940 -0.6321
  103SLPC  H15X10311   1.423   2.545   4.340 -0.0129 -0.7893  0.5111
  103SLPC  H15Y10312   1.392   2.382   4.386  0.6534  0.0864  0.8137
  103SLPC  C31610313   1.558   2.414   4.242  0.0506  0.5454 -0.0540
  103SLPC  H16X10314   1.591   2.309   4.258 -1.7095  0.0795  0.7334
  103SLPC  H16Y10315   1.642   2.486   4.240 -0.7242  1.6171  2.3652
  103SLPC  C31710316   1.473   2.424   4.113 -0.1209  0.9254  0.2262
  103SLPC  H17X10317   1.382   2.360   4.115  0.2194  0.4182 -0.3397
  103SLPC  H17Y10318   1.544   2.381   4.039  0.2417  0.3190  0.9146
  103SLPC  C31810319   1.435   2.563   4.074  1.0412 -0.2902 -0.2210
  103SLPC  H18X10320   1.516   2.637   4.091  0.8141  0.3180 -1.6292
  103SLPC  H18Y10321   1.336   2.586   4.119  1.1942 -3.7931  2.3273
  103SLPC  H18Z10322   1.424   2.568   3.964 -1.3377 -0.5833 -0.0454
  104SLPC     N10323   3.801   0.811   6.363  0.3399  0.1711  0.1546
  104SLPC   C1310324   3.727   0.683   6.387 -0.4846  0.3581 -0.9652
  104SLPC  H13A10325   3.676   0.644   6.300 -0.9449 -0.8380 -0.1821
  104SLPC  H13B10326   3.789   0.597   6.406 -0.2479  0.2371 -2.1977
  104SLPC  H13C10327   3.669   0.692   6.478  1.0026  0.1601  0.0301
  104SLPC   C1410328   3.879   0.794   6.242 -1.0015 -0.2147 -0.2463
  104SLPC  H14A10329   3.800   0.762   6.175 -2.9952  1.3448  1.2128
  104SLPC  H14B10330   3.915   0.889   6.205  0.3294 -0.7238 -0.3060
  104SLPC  H14C10331   3.956   0.720   6.255  0.1621  1.2805  2.1721
  104SLPC   C1510332   3.892   0.845   6.470 -0.0601 -0.6100  0.2236
  104SLPC  H15A10333   3.949   0.758   6.499 -0.3389 -0.4525  1.3095
  104SLPC  H15B10334   3.963   0.923   6.446 -1.5013  0.5716 -0.4150
  104SLPC  H15C10335   3.843   0.881   6.559 -0.2906  0.1342 -0.1935
  104SLPC   C1210336   3.698   0.918   6.334  0.1533  0.1764  0.0714
  104SLPC  H12A10337   3.755   1.008   6.320  0.4582 -0.0228  0.0252
  104SLPC  H12B10338   3.633   0.935   6.419 -1.4976 -0.8790 -0.9339
  104SLPC   C1110339   3.608   0.905   6.217 -0.3480  0.5771 -0.5831
  104SLPC  H11A10340   3.527   0.981   6.222  0.6600  1.6128  0.5939
  104SLPC  H11B10341   3.564   0.803   6.222  1.4970 -0.1871  0.7454
  104SLPC     P10342   3.708   1.037   6.012 -0.3911  0.3249  0.3453
  104SLPC   O1310343   3.592   1.126   6.019  0.4255 -0.1922  0.3597
  104SLPC   O1410344   3.832   1.105   6.045 -0.9217 -0.0249  0.0545
  104SLPC   O1210345   3.668   0.909   6.093 -0.3126  0.9734 -0.0816
  104SLPC   O1110346   3.711   0.979   5.871 -0.0167 -0.5017 -0.0237
  104SLPC    C110347   3.591   0.951   5.795 -0.4333  0.0568 -0.2985
  104SLPC    HA10348   3.578   0.842   5.781  1.5372 -0.0009 -2.1573
  104SLPC    HB10349   3.498   0.989   5.843  0.4161  2.3418 -0.3084
  104SLPC    C210350   3.591   1.011   5.652 -0.6466  0.2849  0.4128
  104SLPC    HS10351   3.548   1.113   5.660  0.7646  1.0640 -1.3649
  104SLPC   O2110352   3.521   0.912   5.567  0.3165 -0.0215  0.3951
  104SLPC   C2110353   3.394   0.928   5.565 -0.0378  0.2826 -0.1653
  104SLPC   O2210354   3.336   1.028   5.608  0.0253 -0.2719  0.1137
  104SLPC   C2210355   3.325   0.809   5.494 -0.2752  0.2785 -0.0099
  104SLPC   H2R10356   3.295   0.835   5.390 -0.0251  1.0040  0.0971
  104SLPC   H2S10357   3.391   0.720   5.505 -1.0033 -0.2467  0.2290
  104SLPC    C310358   3.737   1.020   5.596  0.2866  0.5618 -0.3492
  104SLPC    HX10359   3.791   0.926   5.617  0.3116  0.9723  1.6200
  104SLPC    HY10360   3.793   1.102   5.646  0.0942  0.8570 -0.6109
  104SLPC   O3110361   3.734   1.048   5.451 -0.1741  0.8388  0.0845
  104SLPC   C3110362   3.727   0.954   5.361 -0.2021  0.7782  0.2321
  104SLPC   O3210363   3.759   0.834   5.375  0.1492  0.2378 -0.0840
  104SLPC   C3210364   3.675   1.009   5.228 -0.0637 -0.5209  0.0680
  104SLPC   H2X10365   3.694   0.936   5.145  0.7276 -1.0178  0.6771
  104SLPC   H2Y10366   3.719   1.105   5.194  1.5046 -0.8689  1.0025
  104SLPC   C2310367   3.186   0.766   5.560  0.2176 -0.0045 -0.1826
  104SLPC   H3R10368   3.113   0.849   5.554 -2.6540 -2.1446  2.0477
  104SLPC   H3S10369   3.201   0.752   5.670 -0.1457  1.3430  0.0658
  104SLPC   C2410370   3.127   0.630   5.510  0.3603  0.3535 -0.0845
  104SLPC   H4R10371   3.025   0.618   5.552 -1.2399  0.2397 -3.5839
  104SLPC   H4S10372   3.188   0.546   5.550  0.5520  0.5194 -0.0323
  104SLPC   C2510373   3.102   0.628   5.359 -0.2561 -0.3228  0.5774
  104SLPC   H5R10374   3.084   0.524   5.323 -2.4961 -0.5432  2.1442
  104SLPC   H5S10375   3.193   0.664   5.306 -0.0044 -1.1224  0.4388
  104SLPC   C2610376   2.985   0.699   5.298  0.6343  0.2263  0.1048
  104SLPC   H6R10377   2.970   0.799   5.345  0.5455  0.8289 -1.1781
  104SLPC   H6S10378   2.894   0.640   5.323 -0.6140  1.8874 -0.3218
  104SLPC   C2710379   3.025   0.726   5.149  0.3195  0.0855 -0.0630
  104SLPC   H7R10380   2.933   0.748   5.091  1.0497 -0.1049 -1.3117
  104SLPC   H7S10381   3.059   0.632   5.102 -0.4277 -0.0429 -0.3644
  104SLPC   C2810382   3.124   0.838   5.127  0.8375 -0.1071 -0.5492
  104SLPC   H8R10383   3.155   0.850   5.021 -0.0834  0.3418 -0.7774
  104SLPC   H8S10384   3.220   0.820   5.179 -0.5407  0.8933  2.5421
  104SLPC   C2910385   3.078   0.972   5.173 -0.5594 -0.1261 -0.1806
  104SLPC   H9R10386   3.145   1.014   5.250  0.5215 -0.3591 -0.9707
  104SLPC  C21010387   2.990   1.053   5.118 -0.2414 -0.0247  0.4521
  104SLPC  H10R10388   2.966   1.154   5.154 -0.0886  1.0304 -2.1897
  104SLPC  C21110389   2.912   1.019   4.989  0.0502  0.3039  0.0267
  104SLPC  H11R10390   2.879   0.914   4.985  0.6438  0.1523 -1.5059
  104SLPC  H11S10391   2.986   1.019   4.906  0.2153 -1.6184  0.1264
  104SLPC  C21210392   2.795   1.113   4.962 -0.6649  0.2403  0.2371
  104SLPC  H12R10393   2.749   1.154   5.053 -0.8756 -1.1748  0.8026
  104SLPC  C21310394   2.736   1.146   4.846  0.5528 -0.6655  0.0361
  104SLPC  H13R10395   2.646   1.209   4.855  0.9357 -0.3321  2.0451
  104SLPC  C21410396   2.785   1.103   4.707 -0.3240 -0.7059 -0.0365
  104SLPC  H14R10397   2.697   1.071   4.647 -1.9824  0.7770  1.4957
  104SLPC  H14S10398   2.866   1.027   4.715  1.7252  1.4694  1.0241
  104SLPC  C21510399   2.855   1.217   4.624 -0.7874 -0.7659 -0.4869
  104SLPC  H15R10400   2.951   1.253   4.667 -0.1525 -1.0926 -1.5778
  104SLPC  H15S10401   2.788   1.304   4.607 -0.4810 -0.7186 -1.5393
  104SLPC  C21610402   2.886   1.172   4.474  0.3638 -0.5050 -0.9136
  104SLPC  H16R10403   2.815   1.091   4.448  0.6309 -1.2158  0.4492
  104SLPC  H16S10404   2.991   1.137   4.474 -0.4373 -3.1146 -0.2286
  104SLPC  C21710405   2.865   1.295   4.386 -0.2856 -0.0551  0.1608
  104SLPC  H17R10406   2.938   1.373   4.418 -0.1669 -0.3909  0.7146
  104SLPC  H17S10407   2.762   1.333   4.404 -0.1736  0.5494 -0.4636
  104SLPC  C21810408   2.878   1.271   4.237  0.8298 -1.2345  0.0537
  104SLPC  H18R10409   2.878   1.370   4.187 -1.7251 -1.1045  0.2222
  104SLPC  H18S10410   2.796   1.203   4.207 -1.7188  1.4536  0.5532
  104SLPC  H18T10411   2.972   1.222   4.201  0.0464 -1.3627 -1.9527
  104SLPC   C3310412   3.521   1.019   5.241 -0.1181  0.4422 -0.2847
  104SLPC   H3X10413   3.491   1.078   5.330  0.3724 -0.3592  0.4286
  104SLPC   H3Y10414   3.486   0.913   5.239  0.1976  0.1750  2.9637
  104SLPC   C3410415   3.449   1.084   5.122 -0.7839  0.0600 -0.7387
  104SLPC   H4X10416   3.502   1.180   5.107 -0.8690  0.2536  0.1262
  104SLPC   H4Y10417   3.341   1.110   5.136 -0.9641 -0.4794 -1.0956
  104SLPC   C3510418   3.449   0.993   4.996 -0.2591 -0.3807 -0.5972
  104SLPC   H5X10419   3.368   0.922   5.024 -2.9911  2.5789 -0.2931
  104SLPC   H5Y10420   3.540   0.931   4.986  1.4036  1.9589 -0.6906
  104SLPC   C3610421   3.422   1.062   4.859  0.3984 -0.7908 -0.2762
  104SLPC   H6X10422   3.504   1.124   4.818 -1.3660 -0.5517 -3.8289
  104SLPC   H6Y10423   3.339   1.137   4.859 -0.1752 -1.2651 -3.6818
  104SLPC   C3710424   3.397   0.957   4.743  0.4565  0.4501  0.3275
  104SLPC   H7X10425   3.322   0.884   4.780 -1.1282  1.2854 -1.1159
  104SLPC   H7Y10426   3.490   0.896   4.733  0.7811  0.6672  1.7389
  104SLPC   C3810427   3.343   1.013   4.612 -0.4459  0.0663 -0.3418
  104SLPC   H8X10428   3.424   1.082   4.577 -0.9574  1.3211  0.8423
  104SLPC   H8Y10429   3.242   1.060   4.617 -0.8261 -0.8714  1.2892
  104SLPC   C3910430   3.331   0.901   4.508  0.7104 -0.7920  0.3190
  104SLPC   H9X10431   3.258   0.828   4.548 -0.2683 -0.0258 -0.0202
  104SLPC   H9Y10432   3.428   0.848   4.497  2.0350  1.7308 -1.2462
  104SLPC  C31010433   3.278   0.954   4.375 -0.3690 -0.0533  0.2971
  104SLPC  H10X10434   3.344   1.039   4.347 -1.6072  0.7479 -0.2545
  104SLPC  H10Y10435   3.175   0.994   4.381  0.0438  1.2753 -0.9148
  104SLPC  C31110436   3.282   0.842   4.270  0.1721 -0.1265 -0.3115
  104SLPC  H11X10437   3.206   0.764   4.293  1.6898 -1.3274  0.8179
  104SLPC  H11Y10438   3.380   0.794   4.288 -0.2747 -0.8540  0.2297
  104SLPC  C31210439   3.260   0.876   4.117 -0.3872 -0.3341 -0.0117
  104SLPC  H12X10440   3.159   0.918   4.099 -0.7825 -1.0258  0.5959
  104SLPC  H12Y10441   3.277   0.783   4.060  1.8933  0.9816 -1.6792
  104SLPC  C31310442   3.366   0.985   4.069 -0.8213 -0.2639 -0.3746
  104SLPC  H13X10443   3.459   0.939   4.028 -0.0896  2.0572 -1.5265
  104SLPC  H13Y10444   3.388   1.056   4.152 -1.3136  0.5778 -0.9519
  104SLPC  C31410445   3.318   1.081   3.962 -0.5624 -1.2200 -0.0566
  104SLPC  H14X10446   3.289   1.027   3.869 -0.2893  0.8590 -1.4216
  104SLPC  H14Y10447   3.407   1.144   3.942 -2.4708  1.0234 -2.2874
  104SLPC  C31510448   3.204   1.173   4.013 -0.4587  0.5065  0.7901
  104SLPC  H15X10449   3.219   1.192   4.121  1.1307  2.1813  0.3291
  104SLPC  H15Y10450   3.108   1.118   4.002 -0.6245  0.9298  0.1024
  104SLPC  C31610451   3.198   1.305   3.930  0.2463 -0.1538  0.4084
  104SLPC  H16X10452   3.171   1.273   3.828 -0.7953 -0.1180  0.6600
  104SLPC  H16Y10453   3.289   1.367   3.943  0.2918 -0.2664  0.6238
  104SLPC  C31710454   3.085   1.397   3.984  0.1266 -0.0418  0.2323
  104SLPC  H17X10455   3.104   1.418   4.092  0.0396  1.2506  0.0096
  104SLPC  H17Y10456   2.993   1.337   3.972  1.0382 -1.1496 -1.8039
  104SLPC  C31810457   3.071   1.534   3.908  0.2935  0.3434 -0.0638
  104SLPC  H18X10458   3.169   1.587   3.913  0.0276  0.7475  0.8665
  104SLPC  H18Y10459   2.993   1.598   3.954 -0.7443 -1.2263  0.4491
  104SLPC  H18Z10460   3.057   1.516   3.799  0.1933 -0.3602  0.0579
  105SLPC     N10461   4.544   5.939   6.322 -0.2448  0.8211 -0.4378
  105SLPC   C1310462   4.552   5.809   6.256 -0.3822  1.0815  0.1074
  105SLPC  H13A10463   4.523   5.729   6.322 -1.5834  0.1017 -1.5250
  105SLPC  H13B10464   4.486   5.811   6.171  1.9744  0.3006 -1.8468
  105SLPC  H13C10465   4.642   5.777   6.207 -0.5594  1.0675 -0.2120
  105SLPC   C1410466   4.647   5.933   6.428 -0.1435 -0.6956 -0.4903
  105SLPC  H14A10467   4.634   5.854   6.501  1.3737  0.2772  0.9017
  105SLPC  H14B10468   4.750   5.923   6.398 -0.3067 -3.3136 -0.3808
  105SLPC  H14C10469   4.631   6.024   6.485 -2.8704 -1.1460 -0.3964
  105SLPC   C1510470   4.408   5.959   6.384 -0.0457  0.0416  0.2100
  105SLPC  H15A10471   4.328   5.943   6.314 -3.1333 -0.8889  3.6115
  105SLPC  H15B10472   4.386   5.894   6.467  0.0343  0.4159  0.5296
  105SLPC  H15C10473   4.401   6.066   6.399  1.2259  0.6322 -2.7451
  105SLPC   C1210474   4.587   6.050   6.226 -0.4140  1.1392 -0.4460
  105SLPC  H12A10475   4.533   6.028   6.135  0.7101 -2.3554 -0.4389
  105SLPC  H12B10476   4.693   6.040   6.207 -0.6763 -1.3328 -1.0310
  105SLPC   C1110477   4.559   6.197   6.267 -0.0373  0.9423 -0.0083
  105SLPC  H11A10478   4.610   6.277   6.209  0.6323 -0.5030 -1.4946
  105SLPC  H11B10479   4.603   6.212   6.368  1.5636 -2.3427 -0.0575
  105SLPC     P10480   4.341   6.242   6.128 -0.1376 -0.2660 -0.5391
  105SLPC   O1310481   4.363   6.121   6.046  0.7086  0.0529  0.4401
  105SLPC   O1410482   4.207   6.278   6.162  0.3787 -0.1524  0.4747
  105SLPC   O1210483   4.422   6.226   6.266 -0.1085 -0.1274 -0.3379
  105SLPC   O1110484   4.405   6.356   6.048  0.5150  0.3138 -0.2021
  105SLPC    C110485   4.334   6.481   6.010 -0.3182  0.3116  0.0967
  105SLPC    HA10486   4.282   6.517   6.101 -1.0182 -0.4989  0.0295
  105SLPC    HB10487   4.402   6.560   5.972 -0.5728  1.3555  1.7122
  105SLPC    C210488   4.245   6.461   5.878 -0.8461  1.0598  0.0196
  105SLPC    HS10489   4.177   6.378   5.907 -0.4697  0.0443 -1.8342
  105SLPC   O2110490   4.335   6.421   5.767  0.2568 -0.1782 -0.1493
  105SLPC   C2110491   4.279   6.336   5.684 -0.6138 -0.1129  0.7110
  105SLPC   O2210492   4.170   6.289   5.696 -0.4378  0.3100 -0.1761
  105SLPC   C2210493   4.354   6.333   5.556  0.1395 -0.0948  0.0777
  105SLPC   H2R10494   4.446   6.392   5.577  1.5994 -2.7108  1.5742
  105SLPC   H2S10495   4.385   6.226   5.556 -0.5547 -0.3421  1.9679
  105SLPC    C310496   4.166   6.583   5.844  0.3427 -0.2977 -0.0171
  105SLPC    HX10497   4.227   6.676   5.842 -0.5958  0.4057  1.7701
  105SLPC    HY10498   4.096   6.581   5.929 -0.1245 -0.2225 -0.3971
  105SLPC   O3110499   4.093   6.576   5.718  0.2106 -0.4944  0.1973
  105SLPC   C3110500   3.963   6.532   5.724  0.6457  0.0364 -0.2570
  105SLPC   O3210501   3.906   6.501   5.823  0.1855  0.0304  0.4657
  105SLPC   C3210502   3.913   6.499   5.589 -0.6213 -0.0707  0.0500
  105SLPC   H2X10503   3.809   6.463   5.607  0.0587 -1.8298  0.6762
  105SLPC   H2Y10504   3.960   6.409   5.543 -2.9679 -0.3555 -2.0030
  105SLPC   C2310505   4.258   6.367   5.445 -0.3086  0.1050  0.5743
  105SLPC   H3R10506   4.194   6.452   5.474  2.3738  2.2491  0.5576
  105SLPC   H3S10507   4.193   6.278   5.426  1.0250 -0.7422 -0.1834
  105SLPC   C2410508   4.334   6.419   5.314 -0.0637 -0.3629  0.4451
  105SLPC   H4R10509   4.416   6.347   5.291 -0.3746 -0.8374  0.8229
  105SLPC   H4S10510   4.398   6.509   5.323  1.7178 -1.5973  0.7707
  105SLPC   C2510511   4.234   6.423   5.198 -0.8396 -0.0323  1.1840
  105SLPC   H5R10512   4.157   6.498   5.227  0.6407  1.1050  2.3536
  105SLPC   H5S10513   4.195   6.321   5.180  0.0920 -0.2694  0.4179
  105SLPC   C2610514   4.284   6.481   5.063 -0.4059 -0.2497 -0.6367
  105SLPC   H6R10515   4.335   6.575   5.092 -1.8247  0.3775 -0.0878
  105SLPC   H6S10516   4.200   6.510   4.997  0.2656  1.1355 -0.9125
  105SLPC   C2710517   4.384   6.388   4.989  0.3462  0.6152  0.5670
  105SLPC   H7R10518   4.334   6.290   5.004  0.6339  0.4699  0.5924
  105SLPC   H7S10519   4.481   6.366   5.038  0.2059 -2.0303 -0.1638
  105SLPC   C2810520   4.395   6.420   4.842 -0.0142  0.2943  0.2900
  105SLPC   H8R10521   4.292   6.416   4.803 -0.8985 -1.3832  2.5897
  105SLPC   H8S10522   4.453   6.349   4.780 -1.0495 -0.3118 -0.0013
  105SLPC   C2910523   4.451   6.561   4.829 -0.1220  0.0291  0.1489
  105SLPC   H9R10524   4.382   6.633   4.875  1.4193  1.6848  0.0164
  105SLPC  C21010525   4.566   6.605   4.767  0.5316  0.6705 -0.2873
  105SLPC  H10R10526   4.580   6.713   4.751 -0.6090  0.8560 -0.0950
  105SLPC  C21110527   4.679   6.517   4.709  0.0966  0.1522  0.4197
  105SLPC  H11R10528   4.683   6.521   4.598 -2.4884  3.1227  0.2959
  105SLPC  H11S10529   4.669   6.409   4.735  0.5371 -0.3372 -1.3291
  105SLPC  C21210530   4.817   6.556   4.753 -0.4491 -0.1348  0.8688
  105SLPC  H12R10531   4.884   6.579   4.669  0.0967 -2.8848  0.4422
  105SLPC  C21310532   4.869   6.547   4.877  0.2732 -0.3394 -0.6357
  105SLPC  H13R10533   4.971   6.569   4.911 -0.0405 -2.9736  2.5147
  105SLPC  C21410534   4.789   6.503   5.002  0.0098 -0.4094  1.1516
  105SLPC  H14R10535   4.834   6.428   5.071  0.6265 -1.8634 -0.7544
  105SLPC  H14S10536   4.691   6.458   4.975  0.2661 -1.0185  1.2279
  105SLPC  C21510537   4.758   6.627   5.092  0.2098  0.6849  0.2884
  105SLPC  H15R10538   4.690   6.698   5.041  0.2063 -0.2775 -1.1064
  105SLPC  H15S10539   4.855   6.681   5.102  1.1822 -0.6203 -1.4179
  105SLPC  C21610540   4.696   6.601   5.231  0.0040 -0.4815 -0.1418
  105SLPC  H16R10541   4.603   6.541   5.235 -0.1539 -0.2192  0.2097
  105SLPC  H16S10542   4.679   6.702   5.274 -3.4921 -0.2637 -1.6598
  105SLPC  C21710543   4.796   6.525   5.328  0.2857 -0.4226 -0.2015
  105SLPC  H17R10544   4.889   6.585   5.327  0.5277 -0.7847 -1.6140
  105SLPC  H17S10545   4.840   6.430   5.290 -0.2513 -1.3572  1.3927
  105SLPC  C21810546   4.750   6.495   5.476  0.1986 -0.0234 -0.1402
  105SLPC  H18R10547   4.639   6.493   5.481  0.1484  1.0259 -0.5190
  105SLPC  H18S10548   4.782   6.570   5.552  3.0580 -0.6703 -0.5729
  105SLPC  H18T10549   4.783   6.394   5.508 -0.6456 -1.2396 -2.8032
  105SLPC   C3310550   3.920   6.604   5.480 -0.8990  0.5698  0.5481
  105SLPC   H3X10551   4.021   6.650   5.477 -1.1490  1.1604  0.9890
  105SLPC   H3Y10552   3.850   6.681   5.520 -0.1973  1.3861  0.2351
  105SLPC   C3410553   3.888   6.561   5.335  0.4805  0.2571  0.4431
  105SLPC   H4X10554   3.780   6.540   5.322  0.9714 -1.8496 -0.6199
  105SLPC   H4Y10555   3.953   6.484   5.288  1.0012  2.8608 -3.6857
  105SLPC   C3510556   3.907   6.669   5.231 -0.0183 -0.0093 -0.3463
  105SLPC   H5X10557   4.017   6.688   5.232  0.2882 -1.2417  3.1654
  105SLPC   H5Y10558   3.869   6.760   5.282  1.4544 -0.3446  1.4790
  105SLPC   C3610559   3.842   6.649   5.092 -0.2992  0.7205 -0.5174
  105SLPC   H6X10560   3.856   6.742   5.033  5.4606  0.7908  0.3767
  105SLPC   H6Y10561   3.736   6.619   5.106 -1.2220  2.8518 -2.4016
  105SLPC   C3710562   3.906   6.545   5.005 -0.4999  0.4751  0.7373
  105SLPC   H7X10563   3.916   6.442   5.045 -0.1631  0.0127 -0.4667
  105SLPC   H7Y10564   4.002   6.587   4.968  1.6177 -1.6925  3.3392
  105SLPC   C3810565   3.814   6.528   4.877 -0.3153 -0.2692  0.5621
  105SLPC   H8X10566   3.797   6.627   4.830 -0.9332 -0.5202  0.2441
  105SLPC   H8Y10567   3.716   6.500   4.922 -0.4230  0.6028  0.8905
  105SLPC   C3910568   3.854   6.418   4.780 -0.1053  0.3852 -0.0837
  105SLPC   H9X10569   3.846   6.327   4.842  1.2127  0.7425  0.6255
  105SLPC   H9Y10570   3.953   6.437   4.733  0.1647 -2.0079 -0.5678
  105SLPC  C31010571   3.755   6.391   4.659 -0.1248 -0.4495 -0.7065
  105SLPC  H10X10572   3.654   6.381   4.705  0.7831 -0.7110  1.2995
  105SLPC  H10Y10573   3.795   6.292   4.629  0.6560  0.0439 -1.3107
  105SLPC  C31110574   3.757   6.496   4.551 -0.2651  0.0663 -0.4560
  105SLPC  H11X10575   3.859   6.519   4.513  1.7773 -0.0966  4.2358
  105SLPC  H11Y10576   3.730   6.591   4.602  2.8740 -0.3750  2.4126
  105SLPC  C31210577   3.665   6.472   4.429  0.2015 -0.0974 -0.5158
  105SLPC  H12X10578   3.617   6.566   4.391 -0.8942 -0.3371  0.2444
  105SLPC  H12Y10579   3.572   6.421   4.461 -0.0199  2.1219  2.9332
  105SLPC  C31310580   3.720   6.405   4.304 -0.1753  0.6628 -0.2359
  105SLPC  H13X10581   3.744   6.300   4.332  0.3911  0.7213 -0.4917
  105SLPC  H13Y10582   3.817   6.437   4.262 -0.3948  0.2284 -1.1033
  105SLPC  C31410583   3.625   6.411   4.178 -0.3559  0.6001 -0.1927
  105SLPC  H14X10584   3.519   6.434   4.201 -0.0051  3.3296 -0.9870
  105SLPC  H14Y10585   3.617   6.309   4.134 -2.2795  0.6335 -0.0261
  105SLPC  C31510586   3.668   6.513   4.074  0.1453  0.1803  0.1013
  105SLPC  H15X10587   3.760   6.481   4.021  0.1374 -0.5647  0.5123
  105SLPC  H15Y10588   3.703   6.607   4.122  0.0206  0.4922 -0.4166
  105SLPC  C31610589   3.560   6.538   3.968 -0.0262 -0.2554 -0.0104
  105SLPC  H16X10590   3.487   6.609   4.012  0.7353  0.2466  0.4762
  105SLPC  H16Y10591   3.514   6.437   3.962 -0.7761 -0.0416  1.5692
  105SLPC  C31710592   3.605   6.580   3.827  0.0246  0.2133  0.1536
  105SLPC  H17X10593   3.687   6.510   3.798 -0.3455 -0.9530  1.7563
  105SLPC  H17Y10594   3.523   6.560   3.755 -0.4557 -1.2911  1.0635
  105SLPC  C31810595   3.644   6.723   3.817 -0.3083  0.1022  0.0004
  105SLPC  H18X10596   3.551   6.779   3.843 -2.0117 -2.4082 -0.2534
  105SLPC  H18Y10597   3.679   6.736   3.713 -1.7976 -0.0105 -0.5506
  105SLPC  H18Z10598   3.723   6.747   3.891 -1.3802  1.0047  0.8929
  106SLPC     N10599   1.370   0.521   6.183  0.2522 -0.6742 -0.2009
  106SLPC   C1310600   1.333   0.381   6.212  0.0201  0.6634  0.3695
  106SLPC  H13A10601   1.248   0.366   6.276 -1.6474  1.0327 -1.6346
  106SLPC  H13B10602   1.305   0.327   6.122  3.1105 -2.2127  0.9040
  106SLPC  H13C10603   1.420   0.337   6.259  0.0290  2.0717  1.7335
  106SLPC   C1410604   1.451   0.545   6.056 -0.0216 -0.2577  0.3842
  106SLPC  H14A10605   1.534   0.476   6.056  0.2034  0.0122  1.1164
  106SLPC  H14B10606   1.392   0.539   5.965  0.6695  2.2699 -0.3187
  106SLPC  H14C10607   1.487   0.647   6.057  0.4795 -0.3732 -1.2817
  106SLPC   C1510608   1.464   0.563   6.292  0.5797 -0.1763 -0.3957
  106SLPC  H15A10609   1.553   0.503   6.309 -1.6760 -4.0671 -1.1865
  106SLPC  H15B10610   1.489   0.667   6.275 -3.1020  0.6886 -1.2854
  106SLPC  H15C10611   1.409   0.562   6.385 -0.6653 -1.2483 -1.1133
  106SLPC   C1210612   1.248   0.612   6.191  0.6303 -0.5972 -0.7695
  106SLPC  H12A10613   1.175   0.577   6.119 -0.6555 -0.5870  0.4705
  106SLPC  H12B10614   1.275   0.715   6.176  1.4965 -0.1887  2.7104
  106SLPC   C1110615   1.166   0.602   6.322  0.4250  0.5480 -0.1458
  106SLPC  H11A10616   1.119   0.695   6.362  2.2865  1.1029  0.8606
  106SLPC  H11B10617   1.230   0.567   6.406  1.7305  2.0529 -0.4645
  106SLPC     P10618   0.918   0.511   6.291  0.0514 -0.4412  0.0678
  106SLPC   O1310619   0.857   0.504   6.429 -0.2848 -0.4396  0.0133
  106SLPC   O1410620   0.892   0.623   6.205  0.1980 -0.0236  0.2882
  106SLPC   O1210621   1.069   0.495   6.311  0.4801 -0.4614 -0.1367
  106SLPC   O1110622   0.891   0.373   6.220 -0.3925  0.6677  0.6319
  106SLPC    C110623   0.967   0.327   6.101  0.6789  0.0276  0.4554
  106SLPC    HA10624   1.061   0.381   6.076  0.6122 -0.0748 -0.0237
  106SLPC    HB10625   1.004   0.226   6.128  1.7344  0.1367 -0.5251
  106SLPC    C210626   0.886   0.340   5.967  0.4379  0.3738 -0.4652
  106SLPC    HS10627   0.958   0.319   5.884  2.6160  0.2779  1.3662
  106SLPC   O2110628   0.814   0.465   5.950 -0.3484 -0.3118  0.4165
  106SLPC   C2110629   0.899   0.561   5.919  0.4375  0.2827 -0.2899
  106SLPC   O2210630   1.021   0.550   5.910  0.8440  0.4676 -0.5698
  106SLPC   C2210631   0.812   0.687   5.900 -0.9178 -0.3534 -0.1461
  106SLPC   H2R10632   0.714   0.652   5.861 -0.8700 -0.9018  0.2262
  106SLPC   H2S10633   0.802   0.736   6.000 -0.9771 -2.4809  0.9382
  106SLPC    C310634   0.784   0.227   5.949  0.3674  0.7369  0.5733
  106SLPC    HX10635   0.699   0.221   6.020  0.8262  1.1357  1.1677
  106SLPC    HY10636   0.849   0.141   5.973  0.9341  0.1161 -2.7363
  106SLPC   O3110637   0.759   0.199   5.811  0.2685  0.2596 -0.2941
  106SLPC   C3110638   0.634   0.220   5.774  0.0870 -0.5956  0.7819
  106SLPC   O3210639   0.555   0.296   5.826 -0.2784 -0.2000  0.4978
  106SLPC   C3210640   0.601   0.157   5.635  0.6220 -0.3397  0.1170
  106SLPC   H2X10641   0.524   0.079   5.654  0.7786 -0.4652  0.2447
  106SLPC   H2Y10642   0.693   0.114   5.588  0.6036  0.8850 -1.0908
  106SLPC   C2310643   0.869   0.799   5.805 -0.2663  0.1704  0.5461
  106SLPC   H3R10644   0.956   0.854   5.846  0.5485 -0.0383 -0.8518
  106SLPC   H3S10645   0.788   0.875   5.806  0.7977  1.3381  1.3761
  106SLPC   C2410646   0.911   0.766   5.661 -0.2871  0.3364 -0.3169
  106SLPC   H4R10647   0.896   0.657   5.647 -1.4612  0.5241 -0.5705
  106SLPC   H4S10648   1.019   0.784   5.639  0.2833  0.7882  2.3978
  106SLPC   C2510649   0.814   0.834   5.564 -0.1729  0.6184 -0.1978
  106SLPC   H5R10650   0.795   0.942   5.582 -3.3048  0.1348 -0.0199
  106SLPC   H5S10651   0.711   0.792   5.568 -0.2728  0.9524  2.5381
  106SLPC   C2610652   0.868   0.828   5.419  0.1901  0.7243  0.4033
  106SLPC   H6R10653   0.890   0.723   5.390  0.1292  0.4225  1.3938
  106SLPC   H6S10654   0.954   0.898   5.416 -1.4326  2.8048  0.2732
  106SLPC   C2710655   0.771   0.885   5.315  0.3190  0.0032  0.3872
  106SLPC   H7R10656   0.731   0.978   5.362  2.0826  1.5205 -0.9642
  106SLPC   H7S10657   0.686   0.817   5.293 -0.7220  1.6776 -1.0235
  106SLPC   C2810658   0.828   0.906   5.178 -0.0493 -0.1346 -0.4929
  106SLPC   H8R10659   0.857   0.807   5.139 -0.9980 -1.6206  2.2523
  106SLPC   H8S10660   0.917   0.973   5.187 -0.3613 -0.0015  2.9269
  106SLPC   C2910661   0.733   0.986   5.094  0.0049  0.0702  0.3822
  106SLPC   H9R10662   0.738   1.093   5.122 -1.6325  0.0721  0.7314
  106SLPC  C21010663   0.658   0.943   4.988 -0.3932  0.4475 -0.5362
  106SLPC  H10R10664   0.612   1.017   4.922  0.1329 -0.6321 -2.2003
  106SLPC  C21110665   0.650   0.804   4.923  0.4138 -0.0820  1.1848
  106SLPC  H11R10666   0.565   0.801   4.851 -1.4073  2.2495  3.0736
  106SLPC  H11S10667   0.637   0.729   5.003 -0.4124 -0.8852  0.3254
  106SLPC  C21210668   0.782   0.791   4.843  0.1842  0.8586  1.2264
  106SLPC  H12R10669   0.875   0.814   4.896  1.0709  0.9812 -0.3246
  106SLPC  C21310670   0.799   0.767   4.710 -0.0820  0.1505  0.1683
  106SLPC  H13R10671   0.902   0.761   4.673 -0.0935 -2.0033  0.3819
  106SLPC  C21410672   0.692   0.736   4.607  0.8507 -0.2316  0.5166
  106SLPC  H14R10673   0.591   0.746   4.652  0.2882 -1.4510 -0.4338
  106SLPC  H14S10674   0.702   0.631   4.571 -0.1423 -0.0874 -0.2004
  106SLPC  C21510675   0.697   0.837   4.488 -0.2693  0.0499 -0.2906
  106SLPC  H15R10676   0.689   0.940   4.528  2.3995 -0.3329  1.4834
  106SLPC  H15S10677   0.608   0.822   4.423 -0.9628  0.1832  0.5913
  106SLPC  C21610678   0.816   0.819   4.403 -0.6408 -0.4099 -0.7283
  106SLPC  H16R10679   0.828   0.714   4.368 -2.0609 -0.8801  0.0911
  106SLPC  H16S10680   0.898   0.856   4.468  0.4577 -1.1235 -1.6728
  106SLPC  C21710681   0.814   0.907   4.275 -0.4907  0.3444 -0.3611
  106SLPC  H17R10682   0.812   1.011   4.316  0.1652  1.2568 -2.5128
  106SLPC  H17S10683   0.727   0.882   4.212 -0.7467 -1.0771  0.5171
  106SLPC  C21810684   0.946   0.897   4.197  0.2886 -0.3428 -0.2670
  106SLPC  H18R10685   0.949   0.954   4.101 -0.9239 -0.1794 -0.2233
  106SLPC  H18S10686   0.966   0.795   4.159  2.1689 -0.0342 -0.1998
  106SLPC  H18T10687   1.032   0.943   4.250 -1.3010  2.0614  0.4252
  106SLPC   C3310688   0.550   0.267   5.534 -0.0466 -0.3749 -0.3658
  106SLPC   H3X10689   0.470   0.332   5.575 -0.2565 -2.0166  1.9796
  106SLPC   H3Y10690   0.506   0.201   5.456 -0.6598 -0.2911 -0.0907
  106SLPC   C3410691   0.668   0.359   5.490  0.1677  0.3298  0.4495
  106SLPC   H4X10692   0.753   0.289   5.478  0.7587  0.8882  1.3047
  106SLPC   H4Y10693   0.695   0.419   5.579 -0.7584 -0.0939  1.0365
  106SLPC   C3510694   0.618   0.446   5.372 -0.0481 -0.1915 -0.2886
  106SLPC   H5X10695   0.689   0.521   5.332  0.0868  2.1493  3.7900
  106SLPC   H5Y10696   0.525   0.497   5.406 -0.4156 -0.8246 -0.3254
  106SLPC   C3610697   0.584   0.359   5.240  0.1884  0.0423 -0.0523
  106SLPC   H6X10698   0.493   0.300   5.264  1.7373 -2.4260  0.1171
  106SLPC   H6Y10699   0.677   0.299   5.230  3.0894  4.4135 -2.8485
  106SLPC   C3710700   0.560   0.443   5.114  0.5156 -0.1793  0.3728
  106SLPC   H7X10701   0.654   0.503   5.115  2.4255 -2.8060  4.0750
  106SLPC   H7Y10702   0.476   0.511   5.140  0.3605 -0.2151 -0.0255
  106SLPC   C3810703   0.540   0.353   4.992 -0.1994  0.0144 -0.4248
  106SLPC   H8X10704   0.462   0.285   5.032  0.4437  0.3083  1.4140
  106SLPC   H8Y10705   0.633   0.300   4.965  1.0020  1.6528  0.2922
  106SLPC   C3910706   0.494   0.440   4.873  0.2343  1.1230  0.1976
  106SLPC   H9X10707   0.577   0.506   4.837 -0.5686  1.9009 -0.2700
  106SLPC   H9Y10708   0.410   0.505   4.905 -1.5097 -0.5137 -0.9132
  106SLPC  C31010709   0.449   0.343   4.761 -0.2691 -0.1915  0.3424
  106SLPC  H10X10710   0.383   0.263   4.800 -0.6401  0.7178  1.6517
  106SLPC  H10Y10711   0.543   0.289   4.737 -0.1002 -0.3942  1.3913
  106SLPC  C31110712   0.390   0.408   4.632 -0.2354 -0.4322  0.2318
  106SLPC  H11X10713   0.477   0.424   4.564  1.7858  1.4593  3.0269
  106SLPC  H11Y10714   0.334   0.498   4.664 -0.2263  0.0224 -1.0030
  106SLPC  C31210715   0.290   0.319   4.560  0.1584  0.2379  0.2411
  106SLPC  H12X10716   0.210   0.289   4.631 -0.7540  1.2080 -0.3462
  106SLPC  H12Y10717   0.342   0.231   4.517 -2.7126 -0.8080 -1.3465
  106SLPC  C31310718   0.224   0.386   4.441 -0.4487  0.2165  0.1036
  106SLPC  H13X10719   0.307   0.433   4.383 -1.4843  1.3441 -0.4975
  106SLPC  H13Y10720   0.153   0.468   4.463 -0.7130  0.1343 -0.4200
  106SLPC  C31410721   0.141   0.285   4.354 -0.1184  0.3601  0.5636
  106SLPC  H14X10722   0.062   0.250   4.423  2.0586 -1.7812  2.1511
  106SLPC  H14Y10723   0.189   0.188   4.331 -0.6820  0.3345 -0.5478
  106SLPC  C31510724   0.085   0.352   4.228  0.0457  0.1218  0.1078
  106SLPC  H15X10725   0.173   0.401   4.182 -1.2967  0.5661 -2.1146
  106SLPC  H15Y10726   0.011   0.431   4.252 -0.8731 -0.7869  0.3362
  106SLPC  C31610727   0.023   0.257   4.131  0.0431 -0.2829  0.1243
  106SLPC  H16X10728   0.104   0.199   4.082 -1.9673 -1.5565 -1.9485
  106SLPC  H16Y10729  -0.014   0.316   4.044 -0.4860  1.5814  1.5366
  106SLPC  C31710730  -0.087   0.175   4.181  0.1796  0.1709  0.2629
  106SLPC  H17X10731  -0.164   0.244   4.224  1.1969  0.9142  0.9299
  106SLPC  H17Y10732  -0.047   0.105   4.257 -2.5112 -0.1122  1.5629
  106SLPC  C31810733  -0.157   0.093   4.070 -0.0497  0.0978 -0.2314
  106SLPC  H18X10734  -0.253   0.052   4.109  0.9663 -0.8247  1.4289
  106SLPC  H18Y10735  -0.095   0.010   4.030  0.2642 -0.0387  0.5253
  106SLPC  H18Z10736  -0.184   0.155   3.982  0.8950 -1.8638 -1.9771
  107SLPC     N10737   4.959   4.155   1.743 -0.1614 -0.2082 -0.1445
  107SLPC   C1310738   4.822   4.094   1.732 -0.1526 -0.2228  0.5052
  107SLPC  H13A10739   4.780   4.087   1.831 -0.7838  0.6455  0.3192
  107SLPC  H13B10740   4.742   4.154   1.690  0.5944  0.4765  0.0492
  107SLPC  H13C10741   4.822   4.002   1.677  0.5927  0.3061 -0.4198
  107SLPC   C1410742   5.001   4.165   1.596  0.3928  0.6222 -0.0729
  107SLPC  H14A10743   5.097   4.215   1.590  0.5007  0.8225  2.3501
  107SLPC  H14B10744   4.993   4.074   1.539 -0.6576 -0.8052  2.1986
  107SLPC  H14C10745   4.930   4.221   1.538  0.0428 -1.4791 -1.7697
  107SLPC   C1510746   5.052   4.051   1.808 -0.1773  0.6514  0.6447
  107SLPC  H15A10747   5.011   4.025   1.904 -1.0184 -0.1757  0.0732
  107SLPC  H15B10748   5.033   3.961   1.753 -1.0617  0.4655  1.2314
  107SLPC  H15C10749   5.152   4.092   1.819  0.1749  1.1389 -3.0890
  107SLPC   C1210750   4.969   4.284   1.814 -0.1030  0.2468 -0.2651
  107SLPC  H12A10751   4.915   4.361   1.762  1.8183  1.6088 -0.3553
  107SLPC  H12B10752   5.075   4.306   1.818 -0.1850  0.4249  1.8876
  107SLPC   C1110753   4.931   4.282   1.964  0.0329  0.7126 -0.4972
  107SLPC  H11A10754   4.834   4.227   1.970  0.0863  0.7463  1.2285
  107SLPC  H11B10755   4.915   4.384   2.004  1.3703  0.8491 -0.2611
  107SLPC     P10756   5.149   4.264   2.111 -0.4421 -0.3474  0.1621
  107SLPC   O1310757   5.239   4.273   1.991  0.3320  0.1741  0.4905
  107SLPC   O1410758   5.131   4.379   2.201 -0.0488  0.0990  0.5988
  107SLPC   O1210759   5.010   4.204   2.059 -0.5666  0.2867 -0.2705
  107SLPC   O1110760   5.203   4.148   2.210  0.2225 -0.7239 -0.4090
  107SLPC    C110761   5.163   4.014   2.182 -0.8900  0.5115  0.2341
  107SLPC    HA10762   5.069   3.991   2.127  0.4968 -3.8267 -0.7088
  107SLPC    HB10763   5.248   3.970   2.126  0.2756  0.7730  1.7362
  107SLPC    C210764   5.152   3.933   2.306  0.3608 -0.0322  0.2649
  107SLPC    HS10765   5.049   3.950   2.343  0.1727 -1.9486  0.7365
  107SLPC   O2110766   5.245   3.971   2.410 -0.2149 -0.3320  0.1322
  107SLPC   C2110767   5.198   3.981   2.536 -0.5972 -0.1237  0.5824
  107SLPC   O2210768   5.094   3.937   2.573  0.5465 -0.2676  0.1872
  107SLPC   C2210769   5.301   4.079   2.604  0.8197  0.4197 -0.0716
  107SLPC   H2R10770   5.390   4.013   2.615  0.4010 -0.4936 -1.7879
  107SLPC   H2S10771   5.323   4.157   2.528 -0.3922  2.0702  1.1956
  107SLPC    C310772   5.165   3.778   2.273  0.3986  0.3618 -0.1403
  107SLPC    HX10773   5.273   3.772   2.248  0.5137  0.1779  0.3873
  107SLPC    HY10774   5.104   3.750   2.184 -1.2741  0.7249  0.8437
  107SLPC   O3110775   5.135   3.696   2.390 -0.4768 -0.3962 -0.1025
  107SLPC   C3110776   5.011   3.665   2.412  0.1100  0.3020  0.2173
  107SLPC   O3210777   4.915   3.713   2.348  0.1561 -0.3793 -0.1663
  107SLPC   C3210778   4.996   3.571   2.524 -0.1143 -0.0105  0.0654
  107SLPC   H2X10779   5.097   3.536   2.556  0.7513 -0.1015 -2.5023
  107SLPC   H2Y10780   4.925   3.495   2.486 -1.2406  0.2791  1.5087
  107SLPC   C2310781   5.248   4.143   2.734  0.1509 -0.2097 -0.2156
  107SLPC   H3R10782   5.217   4.068   2.810  2.8921  0.1723  1.4316
  107SLPC   H3S10783   5.159   4.206   2.715 -0.9405 -1.1860  1.3306
  107SLPC   C2410784   5.352   4.229   2.812 -0.1811 -0.1565  0.3863
  107SLPC   H4R10785   5.418   4.282   2.740  2.5739  0.1484  2.9405
  107SLPC   H4S10786   5.424   4.160   2.862  0.5000  0.7255  0.6473
  107SLPC   C2510787   5.287   4.324   2.906 -0.0100 -0.7531 -0.6125
  107SLPC   H5R10788   5.223   4.273   2.981  2.0229  0.7115  2.2799
  107SLPC   H5S10789   5.200   4.370   2.852 -1.7886 -1.6914  1.3022
  107SLPC   C2610790   5.373   4.441   2.958 -0.2645 -0.3710  0.1818
  107SLPC   H6R10791   5.419   4.496   2.873 -0.2207  1.2111  1.1920
  107SLPC   H6S10792   5.459   4.394   3.011  0.8317  1.2982 -0.0558
  107SLPC   C2710793   5.303   4.535   3.044 -0.1059 -0.5487 -0.4315
  107SLPC   H7R10794   5.249   4.486   3.128 -1.1160 -0.4185 -0.9916
  107SLPC   H7S10795   5.227   4.598   2.994 -0.4357  1.6132  2.4724
  107SLPC   C2810796   5.396   4.628   3.120 -0.2298 -0.2786  0.0237
  107SLPC   H8R10797   5.449   4.676   3.036 -0.7852  0.0115 -0.1654
  107SLPC   H8S10798   5.473   4.579   3.185 -0.8105 -1.2358  0.0149
  107SLPC   C2910799   5.321   4.725   3.208  0.5803 -0.0526 -0.6557
  107SLPC   H9R10800   5.282   4.798   3.136 -0.5194 -0.0834 -0.1086
  107SLPC  C21010801   5.293   4.728   3.338  1.1711 -0.2411 -0.5891
  107SLPC  H10R10802   5.217   4.794   3.382  2.4064 -0.7046  2.5042
  107SLPC  C21110803   5.344   4.630   3.436 -0.6150 -0.2644 -0.2551
  107SLPC  H11R10804   5.376   4.531   3.397 -0.7920 -0.4339  0.0377
  107SLPC  H11S10805   5.253   4.605   3.493  0.0804 -0.0773  0.9667
  107SLPC  C21210806   5.447   4.677   3.536 -0.3391  0.2208  0.4798
  107SLPC  H12R10807   5.490   4.775   3.510  0.4411 -0.1430  0.3893
  107SLPC  C21310808   5.458   4.625   3.664  0.1126 -0.5005  0.3844
  107SLPC  H13R10809   5.525   4.674   3.736  0.1376  0.5142 -0.3090
  107SLPC  C21410810   5.384   4.509   3.723 -0.3008 -0.0516  0.2865
  107SLPC  H14R10811   5.441   4.419   3.692 -0.0354  0.0701  0.4151
  107SLPC  H14S10812   5.288   4.489   3.671 -0.2145 -1.6965  0.7277
  107SLPC  C21510813   5.384   4.527   3.869 -0.1021 -0.2477 -0.4454
  107SLPC  H15R10814   5.324   4.617   3.894  0.1537 -0.7042  2.0986
  107SLPC  H15S10815   5.485   4.548   3.909 -0.2055  0.0797 -0.3541
  107SLPC  C21610816   5.336   4.401   3.939  0.3919  0.5399 -0.2969
  107SLPC  H16R10817   5.395   4.317   3.897 -1.8329 -0.6114 -1.3144
  107SLPC  H16S10818   5.229   4.385   3.913 -0.0098  0.2717  1.4423
  107SLPC  C21710819   5.360   4.401   4.091  0.1735 -0.3516  0.1028
  107SLPC  H17R10820   5.325   4.489   4.148  0.3096 -0.1558 -0.1153
  107SLPC  H17S10821   5.471   4.398   4.088  0.1833  0.1873 -0.1226
  107SLPC  C21810822   5.313   4.273   4.156  0.4984  0.8470  0.2306
  107SLPC  H18R10823   5.202   4.268   4.155  0.5728 -2.6099 -0.5571
  107SLPC  H18S10824   5.342   4.274   4.264 -0.1331  1.3020  0.4056
  107SLPC  H18T10825   5.356   4.192   4.094  0.1156 -2.5618  4.0156
  107SLPC   C3310826   4.935   3.644   2.653 -1.2141 -0.2280  0.3121
  107SLPC   H3X10827   4.843   3.686   2.607  0.1425  0.9079 -1.5152
  107SLPC   H3Y10828   5.001   3.726   2.690 -1.0161 -0.1623 -0.1759
  107SLPC   C3410829   4.897   3.542   2.762 -0.2849 -0.0867 -0.1360
  107SLPC   H4X10830   4.851   3.607   2.840  2.5353  0.4178  1.2632
  107SLPC   H4Y10831   4.991   3.494   2.798  0.7600  1.2007 -1.0863
  107SLPC   C3510832   4.798   3.433   2.716 -0.4387 -1.1405 -0.0658
  107SLPC   H5X10833   4.854   3.361   2.653  0.4466 -1.5275  1.1356
  107SLPC   H5Y10834   4.711   3.471   2.658 -1.7052  0.0360  2.4588
  107SLPC   C3610835   4.752   3.351   2.839  0.7864  0.1854 -0.4711
  107SLPC   H6X10836   4.836   3.297   2.888 -0.2904 -1.2198 -0.0745
  107SLPC   H6Y10837   4.688   3.271   2.797  2.2417 -0.7463 -0.9901
  107SLPC   C3710838   4.663   3.428   2.938  0.5686 -0.6879 -0.5375
  107SLPC   H7X10839   4.617   3.510   2.878  1.0152 -0.7466 -0.9664
  107SLPC   H7Y10840   4.733   3.475   3.010  0.8460 -1.1121 -0.5288
  107SLPC   C3810841   4.554   3.348   3.015  0.3125 -0.1842 -0.1688
  107SLPC   H8X10842   4.477   3.312   2.943 -1.8606  0.0395  1.9398
  107SLPC   H8Y10843   4.497   3.428   3.067 -0.9867 -1.4400  0.4056
  107SLPC   C3910844   4.632   3.248   3.098 -0.1069 -0.0497 -0.6270
  107SLPC   H9X10845   4.713   3.303   3.151  1.7822 -0.6930 -2.6850
  107SLPC   H9Y10846   4.665   3.169   3.027  1.7325  1.8961 -2.0491
  107SLPC  C31010847   4.546   3.181   3.199 -1.2148  0.3454 -0.2420
  107SLPC  H10X10848   4.494   3.247   3.272 -0.1711  0.8406  0.0774
  107SLPC  H10Y10849   4.599   3.115   3.272 -2.5448  1.0015  1.3992
  107SLPC  C31110850   4.439   3.093   3.122  0.3358  0.4750  0.4414
  107SLPC  H11X10851   4.489   3.012   3.065  1.2346  2.2494 -1.4166
  107SLPC  H11Y10852   4.373   3.153   3.056 -0.9269 -1.7869 -0.4711
  107SLPC  C31210853   4.339   3.034   3.224  0.8765  0.0799  0.2942
  107SLPC  H12X10854   4.267   3.114   3.248 -0.3302 -1.0070  0.4069
  107SLPC  H12Y10855   4.384   2.998   3.318 -2.4547 -0.1714  1.9320
  107SLPC  C31310856   4.250   2.918   3.172  0.4342 -0.5458 -0.4535
  107SLPC  H13X10857   4.202   2.972   3.088  1.6415  0.7428 -0.3443
  107SLPC  H13Y10858   4.183   2.887   3.255  2.4876 -0.5833  1.2837
  107SLPC  C31410859   4.330   2.786   3.148  1.1691 -0.5218 -1.2613
  107SLPC  H14X10860   4.415   2.806   3.079  0.7372 -0.4661 -1.7882
  107SLPC  H14Y10861   4.256   2.719   3.099  1.6177 -3.8253  2.1475
  107SLPC  C31510862   4.390   2.732   3.283 -0.8635  0.7564  0.7156
  107SLPC  H15X10863   4.458   2.809   3.326  0.3350  0.6794 -0.9402
  107SLPC  H15Y10864   4.456   2.650   3.247  1.6671  1.8073  2.6558
  107SLPC  C31610865   4.290   2.689   3.383  0.3711 -0.3811 -0.0977
  107SLPC  H16X10866   4.253   2.591   3.347  2.4690 -0.7157 -1.5134
  107SLPC  H16Y10867   4.208   2.761   3.405  1.3376  0.3793  1.1923
  107SLPC  C31710868   4.359   2.647   3.514 -0.6170 -0.3050 -0.3915
  107SLPC  H17X10869   4.390   2.744   3.559  0.8274  1.4506 -4.6287
  107SLPC  H17Y10870   4.443   2.581   3.485 -0.1721  0.2609 -0.3968
  107SLPC  C31810871   4.279   2.559   3.613  0.6438 -0.2674 -0.1481
  107SLPC  H18X10872   4.191   2.611   3.656  1.7619  1.7490 -0.1863
  107SLPC  H18Y10873   4.342   2.520   3.696 -0.6392 -1.2077  0.4157
  107SLPC  H18Z10874   4.247   2.469   3.555  1.1148 -1.4437  1.3426
  108SLPC     N10875   3.716   5.552   1.774  0.2154  0.1943 -0.0467
  108SLPC   C1310876   3.771   5.664   1.844 -0.0062  0.8993  0.5115
  108SLPC  H13A10877   3.874   5.682   1.816  0.1650  1.3286  1.3526
  108SLPC  H13B10878   3.719   5.753   1.813  0.8154  0.8435 -1.0987
  108SLPC  H13C10879   3.765   5.646   1.951  2.2337  0.4007  0.6043
  108SLPC   C1410880   3.786   5.425   1.791 -0.0549  0.0991  0.0182
  108SLPC  H14A10881   3.723   5.344   1.756 -3.1649  1.2800  2.4244
  108SLPC  H14B10882   3.881   5.421   1.739  0.1733 -2.8702  0.4772
  108SLPC  H14C10883   3.803   5.402   1.895  3.1998  3.0210  0.3330
  108SLPC   C1510884   3.693   5.584   1.628  0.0157 -0.3324  0.8548
  108SLPC  H15A10885   3.651   5.503   1.570 -2.5353  0.9865  0.7203
  108SLPC  H15B10886   3.620   5.663   1.622  0.6950  0.2611  0.2010
  108SLPC  H15C10887   3.783   5.622   1.583 -1.0607 -0.5604 -1.6666
  108SLPC   C1210888   3.577   5.519   1.835 -0.4400 -0.4082 -0.4287
  108SLPC  H12A10889   3.535   5.432   1.787 -2.0397  0.9362 -1.6105
  108SLPC  H12B10890   3.505   5.597   1.815  1.2639  1.1121 -0.8859
  108SLPC   C1110891   3.563   5.520   1.990  0.5114 -0.1422  0.4622
  108SLPC  H11A10892   3.457   5.509   2.020  0.6626 -1.2882  0.6190
  108SLPC  H11B10893   3.591   5.618   2.033  0.3928 -1.2738  3.3298
  108SLPC     P10894   3.611   5.276   2.044 -0.3478  0.5368  0.1634
  108SLPC   O1310895   3.495   5.254   1.952  0.0817 -0.2118 -0.1052
  108SLPC   O1410896   3.733   5.204   2.006 -0.4411  0.1289  0.1320
  108SLPC   O1210897   3.646   5.429   2.053  0.4009  0.2769 -0.8259
  108SLPC   O1110898   3.568   5.241   2.194  0.2050  0.8033  0.0212
  108SLPC    C110899   3.578   5.337   2.297 -0.3396  1.0536  0.1517
  108SLPC    HA10900   3.685   5.354   2.323 -0.3293 -0.8907  1.6262
  108SLPC    HB10901   3.532   5.436   2.276 -1.5596 -0.2343 -4.0789
  108SLPC    C210902   3.505   5.289   2.428 -0.3242 -0.8127 -0.4466
  108SLPC    HS10903   3.531   5.348   2.518 -0.0523 -1.6410  0.0295
  108SLPC   O2110904   3.541   5.154   2.462 -0.5821 -0.0809 -0.1701
  108SLPC   C2110905   3.671   5.135   2.492 -0.1861  0.5549 -0.0192
  108SLPC   O2210906   3.760   5.220   2.502  0.1989  0.5127  0.1417
  108SLPC   C2210907   3.698   4.992   2.535  0.6520  0.6129 -0.1845
  108SLPC   H2R10908   3.623   4.974   2.616  0.5396  1.5834 -0.0587
  108SLPC   H2S10909   3.675   4.921   2.453  1.8616  0.7203 -0.6273
  108SLPC    C310910   3.353   5.296   2.400 -0.2852  0.4654  0.0675
  108SLPC    HX10911   3.343   5.209   2.332  1.5135 -1.5748  2.2296
  108SLPC    HY10912   3.329   5.389   2.345  1.0987 -0.2243 -1.8219
  108SLPC   O3110913   3.274   5.277   2.519  0.0187 -0.3725 -0.8722
  108SLPC   C3110914   3.147   5.318   2.497 -0.4343 -0.0159  0.8612
  108SLPC   O3210915   3.105   5.345   2.385  0.5534 -0.3509  0.2501
  108SLPC   C3210916   3.067   5.319   2.626  0.7552  0.1526 -0.1492
  108SLPC   H2X10917   3.008   5.225   2.626  1.5537 -0.3762  1.7632
  108SLPC   H2Y10918   2.995   5.404   2.615  0.2978  0.0643  1.9080
  108SLPC   C2310919   3.841   4.959   2.578  0.4818  0.2565 -0.3605
  108SLPC   H3R10920   3.911   4.985   2.496  1.2977 -1.4142 -0.2397
  108SLPC   H3S10921   3.849   4.848   2.574 -1.0158  0.1447 -1.2460
  108SLPC   C2410922   3.898   5.021   2.711  0.0220  0.3212 -0.7603
  108SLPC   H4R10923   3.823   5.012   2.793 -0.3755  1.3431 -1.0008
  108SLPC   H4S10924   3.913   5.131   2.710 -1.3119  0.6059  1.9721
  108SLPC   C2510925   4.024   4.944   2.759 -0.0574  0.3772 -0.1574
  108SLPC   H5R10926   4.107   4.993   2.704 -0.4077  2.2650  0.9009
  108SLPC   H5S10927   4.031   4.840   2.723 -0.7603  0.3446 -0.2144
  108SLPC   C2610928   4.055   4.953   2.910  0.1940  0.2129  0.3088
  108SLPC   H6R10929   3.994   5.038   2.948 -0.0776 -0.3100  1.0488
  108SLPC   H6S10930   4.164   4.973   2.918  0.5886 -0.5907 -2.1493
  108SLPC   C2710931   4.025   4.821   2.990  0.5972  0.6887  0.1391
  108SLPC   H7R10932   4.090   4.734   2.968 -1.0255 -0.7483  0.7690
  108SLPC   H7S10933   3.922   4.789   2.964 -0.3317  0.8452  3.2862
  108SLPC   C2810934   4.017   4.823   3.146  0.2433  0.7017  0.0299
  108SLPC   H8R10935   4.118   4.859   3.176 -0.1795  1.3806  0.6479
  108SLPC   H8S10936   4.006   4.713   3.163  1.3244  0.7380  1.0742
  108SLPC   C2910937   3.915   4.908   3.200  0.6488 -0.4601  0.4325
  108SLPC   H9R10938   3.874   4.980   3.127 -0.7164 -1.3655  0.2598
  108SLPC  C21010939   3.857   4.899   3.318  0.0845 -0.5819  0.0748
  108SLPC  H10R10940   3.779   4.968   3.354  2.4445  1.3820  1.8054
  108SLPC  C21110941   3.893   4.790   3.414  0.0464  0.0900 -0.3201
  108SLPC  H11R10942   3.999   4.760   3.400 -0.3385 -2.2937  1.1085
  108SLPC  H11S10943   3.835   4.696   3.401 -0.6731  0.6361 -1.1104
  108SLPC  C21210944   3.880   4.841   3.557  0.2170  0.3643  0.3018
  108SLPC  H12R10945   3.940   4.929   3.585  2.0597 -0.7620  0.0275
  108SLPC  C21310946   3.797   4.800   3.649  0.2444  0.1480  0.2507
  108SLPC  H13R10947   3.786   4.856   3.743 -0.3838  0.6758 -0.1328
  108SLPC  C21410948   3.701   4.687   3.644  0.1393  0.1774 -0.5725
  108SLPC  H14R10949   3.703   4.623   3.735  2.9425  0.3466 -0.4266
  108SLPC  H14S10950   3.709   4.620   3.556  0.1955 -1.1781  0.4232
  108SLPC  C21510951   3.555   4.743   3.632 -0.0047  0.0174  0.2286
  108SLPC  H15R10952   3.500   4.658   3.588 -0.4056  0.6006 -0.4240
  108SLPC  H15S10953   3.542   4.837   3.573 -2.1857 -0.4157 -0.0528
  108SLPC  C21610954   3.486   4.779   3.768  0.1915 -0.0597 -0.0113
  108SLPC  H16R10955   3.516   4.878   3.809  2.4684 -1.7009  2.6768
  108SLPC  H16S10956   3.520   4.706   3.845 -1.3562 -0.8336 -0.0173
  108SLPC  C21710957   3.333   4.766   3.772 -0.3309  0.1724  0.8434
  108SLPC  H17R10958   3.293   4.673   3.727 -1.9323  1.7395 -1.1804
  108SLPC  H17S10959   3.300   4.844   3.701  2.0119  0.6160  0.1650
  108SLPC  C21810960   3.266   4.785   3.909  0.3405 -0.1727  1.3068
  108SLPC  H18R10961   3.311   4.718   3.985 -0.5325 -2.2370  0.0879
  108SLPC  H18S10962   3.160   4.752   3.909  1.0701 -2.7460  1.9706
  108SLPC  H18T10963   3.262   4.895   3.925 -0.5913 -0.0201  0.1483
  108SLPC   C3310964   3.155   5.346   2.758  0.0697 -0.0629  0.2905
  108SLPC   H3X10965   3.225   5.422   2.717 -0.0767 -0.3994 -0.6225
  108SLPC   H3Y10966   3.206   5.250   2.782 -1.3325 -0.7621  0.5671
  108SLPC   C3410967   3.076   5.393   2.881  0.6529  0.3954  0.5873
  108SLPC   H4X10968   3.083   5.316   2.961  2.0663 -0.3665 -0.2306
  108SLPC   H4Y10969   2.968   5.412   2.863  0.7305  0.8575  0.6096
  108SLPC   C3510970   3.147   5.518   2.951  0.1782 -0.1796  0.4975
  108SLPC   H5X10971   3.122   5.613   2.900  0.0929 -1.7787 -2.6931
  108SLPC   H5Y10972   3.257   5.510   2.940  0.2972  2.6513 -1.0780
  108SLPC   C3610973   3.106   5.514   3.103  0.7149  0.9100  0.6200
  108SLPC   H6X10974   3.147   5.422   3.149 -2.7397 -0.5923  1.0145
  108SLPC   H6Y10975   2.997   5.506   3.123  0.6654 -1.1136 -0.2422
  108SLPC   C3710976   3.167   5.633   3.187  0.8963 -0.4162 -0.1005
  108SLPC   H7X10977   3.087   5.710   3.183  0.5601 -0.3661  3.7262
  108SLPC   H7Y10978   3.267   5.663   3.151  1.9864  0.3172  3.2227
  108SLPC   C3810979   3.186   5.592   3.336  0.0225  0.3994 -0.1125
  108SLPC   H8X10980   3.240   5.676   3.383  1.2227 -0.9064  0.9376
  108SLPC   H8Y10981   3.247   5.500   3.324  0.0666  0.6397 -2.0217
  108SLPC   C3910982   3.060   5.564   3.419  0.7731  0.2524 -0.3323
  108SLPC   H9X10983   3.040   5.457   3.395  1.8049  0.0369 -0.2795
  108SLPC   H9Y10984   2.975   5.614   3.369  1.2951 -0.9924 -2.6229
  108SLPC  C31010985   3.080   5.580   3.573  0.2485 -0.2284  0.0907
  108SLPC  H10X10986   3.158   5.509   3.606  0.4079  0.6642  1.7365
  108SLPC  H10Y10987   2.991   5.535   3.623  0.1502  0.5504  0.6414
  108SLPC  C31110988   3.083   5.720   3.623 -0.3616 -0.2719 -0.7663
  108SLPC  H11X10989   2.983   5.769   3.617 -0.6507 -0.2665  2.4463
  108SLPC  H11Y10990   3.155   5.791   3.576 -0.6054  0.8359  0.4653
  108SLPC  C31210991   3.124   5.717   3.775 -0.3665  0.2373 -0.1223
  108SLPC  H12X10992   3.232   5.689   3.778  0.9978  4.7457  2.3870
  108SLPC  H12Y10993   3.053   5.646   3.821 -1.2396 -1.0583 -3.2394
  108SLPC  C31310994   3.106   5.855   3.845  0.1945 -0.6643  0.4453
  108SLPC  H13X10995   3.154   5.857   3.945  1.1791  0.1150 -0.0291
  108SLPC  H13Y10996   2.998   5.875   3.858  0.2044 -0.8588  0.8374
  108SLPC  C31410997   3.179   5.976   3.776 -0.6542  0.1253  0.2038
  108SLPC  H14X10998   3.154   5.994   3.669  3.6021 -0.0241 -0.9862
  108SLPC  H14Y10999   3.288   5.962   3.790 -0.1719  3.5077  0.5820
  108SLPC  C31511000   3.162   6.111   3.849 -0.3915  0.1792  0.1774
  108SLPC  H15X11001   3.054   6.136   3.860 -0.7702 -0.3459 -1.8790
  108SLPC  H15Y11002   3.215   6.197   3.802  0.9981 -0.9532 -0.4247
  108SLPC  C31611003   3.218   6.106   3.993  0.0947  0.7270  0.4005
  108SLPC  H16X11004   3.323   6.071   3.997  0.1684  0.8158 -0.5730
  108SLPC  H16Y11005   3.165   6.024   4.046 -0.0097  0.5757  0.0677
  108SLPC  C31711006   3.219   6.239   4.068 -0.2199  0.3546  0.3399
  108SLPC  H17X11007   3.120   6.288   4.056 -0.1004  0.7038  0.7822
  108SLPC  H17Y11008   3.290   6.315   4.029  0.9177 -0.5018  0.6675
  108SLPC  C31811009   3.250   6.220   4.213  0.3512  0.2714  0.4010
  108SLPC  H18X11010   3.255   6.320   4.260  1.1152  1.0282 -1.1967
  108SLPC  H18Y11011   3.333   6.150   4.238 -0.1027 -0.3796  0.1043
  108SLPC  H18Z11012   3.155   6.178   4.251 -0.2882  1.2172 -0.1279
  109SLPC     N11013   1.728   2.827   2.047  0.0434  0.1441  0.1533
  109SLPC   C1311014   1.682   2.730   1.943  0.1261 -0.8886 -0.4929
  109SLPC  H13A11015   1.622   2.651   1.986  0.1955 -0.9290 -0.4705
  109SLPC  H13B11016   1.635   2.786   1.862 -3.0030 -1.8103  0.5279
  109SLPC  H13C11017   1.776   2.699   1.900  1.0054 -0.2327  0.8842
  109SLPC   C1411018   1.806   2.930   1.966 -0.3738  0.0750 -0.7578
  109SLPC  H14A11019   1.826   3.017   2.027  1.8518 -0.0963 -1.1468
  109SLPC  H14B11020   1.904   2.901   1.930 -0.8066  1.0768 -2.9361
  109SLPC  H14C11021   1.753   2.973   1.882  2.7681 -1.1898 -3.6443
  109SLPC   C1511022   1.809   2.755   2.140  0.0118  0.2971  0.3173
  109SLPC  H15A11023   1.756   2.685   2.202  1.3688 -2.5963 -1.5408
  109SLPC  H15B11024   1.893   2.709   2.090  0.5001  0.2292  1.1868
  109SLPC  H15C11025   1.861   2.821   2.208  0.5452  0.4098 -0.1920
  109SLPC   C1211026   1.619   2.910   2.105 -0.2781 -0.3202  0.3378
  109SLPC  H12A11027   1.556   2.836   2.152 -0.8535  0.1868  0.3906
  109SLPC  H12B11028   1.561   2.954   2.026  1.1364  1.0821  0.0226
  109SLPC   C1111029   1.665   3.020   2.205 -0.1316  0.0353 -0.5004
  109SLPC  H11A11030   1.739   2.965   2.267 -0.5251 -0.4369 -0.4437
  109SLPC  H11B11031   1.574   3.054   2.259 -0.2218 -0.1875 -0.5125
  109SLPC     P11032   1.824   3.223   2.236 -0.3291  0.3177 -0.3179
  109SLPC   O1311033   1.951   3.150   2.255  0.2206  0.2181  0.6990
  109SLPC   O1411034   1.840   3.361   2.190  0.4130 -0.1533 -0.6795
  109SLPC   O1211035   1.731   3.136   2.143 -0.5722 -0.5127  0.0873
  109SLPC   O1111036   1.738   3.238   2.369 -0.4071  0.4948  0.1860
  109SLPC    C111037   1.646   3.340   2.402  0.1225  0.0645  0.1228
  109SLPC    HA11038   1.636   3.417   2.322 -2.7037 -1.4062 -1.0878
  109SLPC    HB11039   1.544   3.298   2.390  0.6670 -0.9876 -0.9680
  109SLPC    C211040   1.656   3.390   2.546  0.4207 -0.3285 -0.1629
  109SLPC    HS11041   1.555   3.408   2.588  0.9486  0.1238  0.9538
  109SLPC   O2111042   1.739   3.508   2.541 -0.1993  0.0346  0.5432
  109SLPC   C2111043   1.679   3.615   2.495  0.5666 -0.0475 -0.3368
  109SLPC   O2211044   1.559   3.616   2.467  0.2575 -0.4456  0.4054
  109SLPC   C2211045   1.783   3.724   2.482  0.4650 -0.3785  0.1975
  109SLPC   H2R11046   1.880   3.673   2.469  0.4435 -0.0213 -1.6203
  109SLPC   H2S11047   1.762   3.792   2.397 -3.4432  0.4657  1.6342
  109SLPC    C311048   1.707   3.285   2.642 -0.0893  0.1258  0.1690
  109SLPC    HX11049   1.817   3.277   2.628 -0.3009 -0.4127 -1.3553
  109SLPC    HY11050   1.650   3.192   2.623 -2.1865  0.6974  2.9307
  109SLPC   O3111051   1.679   3.323   2.774 -0.3684  0.0515  0.3056
  109SLPC   C3111052   1.578   3.264   2.840 -0.3374  0.6041 -0.3747
  109SLPC   O3211053   1.500   3.180   2.801 -0.2419 -0.1658 -0.1540
  109SLPC   C3211054   1.599   3.305   2.990 -0.2019  0.4897 -0.5328
  109SLPC   H2X11055   1.531   3.393   2.989 -1.3591 -0.3746 -1.4278
  109SLPC   H2Y11056   1.706   3.329   3.009  0.5417 -2.0297 -1.1382
  109SLPC   C2311057   1.793   3.803   2.618  0.8156  0.1293  0.0738
  109SLPC   H3R11058   1.886   3.864   2.614 -0.1413  1.6171 -0.2487
  109SLPC   H3S11059   1.783   3.735   2.705  1.8591  0.1066  0.1924
  109SLPC   C2411060   1.679   3.901   2.636 -0.3525  0.1935  0.0263
  109SLPC   H4R11061   1.582   3.847   2.640 -0.7600  0.9640  0.8954
  109SLPC   H4S11062   1.668   3.969   2.549  0.1702  1.5294  0.9776
  109SLPC   C2511063   1.700   3.982   2.762  0.6640 -0.5888  0.5607
  109SLPC   H5R11064   1.797   4.036   2.763  1.3203 -1.7363  1.3776
  109SLPC   H5S11065   1.688   3.910   2.846  0.0709  0.1341  1.1098
  109SLPC   C2611066   1.591   4.098   2.764 -0.0342 -0.0438  0.1184
  109SLPC   H6R11067   1.492   4.049   2.776 -0.7724  1.6837  1.4901
  109SLPC   H6S11068   1.596   4.155   2.669 -1.4462  1.8480  1.1219
  109SLPC   C2711069   1.607   4.183   2.890  0.1703 -0.5402 -0.1392
  109SLPC   H7R11070   1.533   4.266   2.878  0.0521 -0.6410 -0.1033
  109SLPC   H7S11071   1.713   4.217   2.890  0.0245  0.2804  3.5032
  109SLPC   C2811072   1.570   4.109   3.023 -0.5341  0.6303 -0.6886
  109SLPC   H8R11073   1.619   4.009   3.023 -2.0126 -0.1180 -0.0564
  109SLPC   H8S11074   1.460   4.093   3.021 -0.3258 -1.3570  0.6123
  109SLPC   C2911075   1.602   4.199   3.142 -0.4023  0.0802  0.2027
  109SLPC   H9R11076   1.557   4.299   3.138 -2.0174 -0.6640 -2.0179
  109SLPC  C21011077   1.671   4.163   3.250 -0.4381  0.3104 -0.4632
  109SLPC  H10R11078   1.683   4.237   3.330 -4.6319  1.1558 -0.3817
  109SLPC  C21111079   1.736   4.037   3.285  0.2698  1.1901 -0.6181
  109SLPC  H11R11080   1.761   3.998   3.184 -2.5546  2.5296 -1.9474
  109SLPC  H11S11081   1.658   3.969   3.324  2.1639  0.7148  2.7953
  109SLPC  C21211082   1.858   4.044   3.374 -0.5149  0.2226  0.7240
  109SLPC  H12R11083   1.946   4.081   3.321  1.2807  0.8372  3.8631
  109SLPC  C21311084   1.871   3.996   3.499 -0.0066 -0.1872 -0.3245
  109SLPC  H13R11085   1.969   4.018   3.545  1.1429 -1.8108 -1.8753
  109SLPC  C21411086   1.768   3.938   3.589  0.2382  0.6139 -0.0681
  109SLPC  H14R11087   1.754   3.828   3.584 -1.5601  0.8642 -1.9838
  109SLPC  H14S11088   1.663   3.963   3.562  0.8415  2.2270 -1.0285
  109SLPC  C21511089   1.783   3.999   3.731 -0.7888 -0.2980  0.3428
  109SLPC  H15R11090   1.703   3.969   3.802 -1.1575  2.0345  1.0107
  109SLPC  H15S11091   1.775   4.109   3.715  1.7469 -0.2108 -0.7872
  109SLPC  C21611092   1.914   3.960   3.805 -0.1252 -1.3326 -0.0422
  109SLPC  H16R11093   1.925   4.022   3.896  1.9372  0.6186 -1.5153
  109SLPC  H16S11094   1.999   4.000   3.746 -0.7775  0.0301 -0.0960
  109SLPC  C21711095   1.936   3.809   3.825 -0.1900  0.0210  0.3009
  109SLPC  H17R11096   1.914   3.764   3.726 -2.0312  2.6677 -0.5951
  109SLPC  H17S11097   1.864   3.777   3.904 -0.0240 -1.6721 -0.1968
  109SLPC  C21811098   2.074   3.764   3.874 -0.2208  0.4220 -0.1472
  109SLPC  H18R11099   2.079   3.653   3.868 -1.1111  0.4157 -1.1632
  109SLPC  H18S11100   2.100   3.798   3.976 -2.8740 -0.0370  0.7440
  109SLPC  H18T11101   2.144   3.808   3.799  0.0915 -0.8457 -0.6237
  109SLPC   C3311102   1.549   3.203   3.093  0.7414  0.4179  0.4994
  109SLPC   H3X11103   1.622   3.120   3.107  1.5389  0.9696 -0.2856
  109SLPC   H3Y11104   1.454   3.155   3.061  1.7775 -2.1953  1.0640
  109SLPC   C3411105   1.521   3.269   3.229  0.0497 -0.4250  0.0336
  109SLPC   H4X11106   1.438   3.341   3.212  0.2839  0.1725  1.2617
  109SLPC   H4Y11107   1.619   3.311   3.262  1.3569 -1.6480 -2.0698
  109SLPC   C3511108   1.475   3.166   3.340 -0.5733 -0.7596  0.0061
  109SLPC   H5X11109   1.558   3.096   3.365  0.8013  0.7341 -0.2399
  109SLPC   H5Y11110   1.391   3.111   3.292  0.4912 -1.9468 -0.5624
  109SLPC   C3611111   1.429   3.222   3.474  0.3258 -0.2707  0.1941
  109SLPC   H6X11112   1.393   3.140   3.540  1.4707 -1.4804 -0.6294
  109SLPC   H6Y11113   1.347   3.292   3.447 -0.1004 -1.3473 -1.4990
  109SLPC   C3711114   1.530   3.315   3.552  0.6553  0.2213  0.4408
  109SLPC   H7X11115   1.544   3.399   3.481 -0.4701 -0.5186 -0.7044
  109SLPC   H7Y11116   1.627   3.263   3.564  1.2571  1.0042 -0.8091
  109SLPC   C3811117   1.481   3.359   3.685 -0.5985 -0.1025  0.5247
  109SLPC   H8X11118   1.455   3.273   3.750 -0.3892  1.6302  2.9923
  109SLPC   H8Y11119   1.388   3.417   3.669 -0.0979  0.3992 -0.7527
  109SLPC   C3911120   1.582   3.451   3.757 -0.6030 -0.0818  0.3953
  109SLPC   H9X11121   1.584   3.543   3.695  0.7595 -0.8695 -0.7908
  109SLPC   H9Y11122   1.683   3.405   3.752 -0.7886 -0.4337 -0.2021
  109SLPC  C31011123   1.562   3.486   3.905  0.4377 -0.0482 -0.0229
  109SLPC  H10X11124   1.650   3.529   3.956  0.4109  1.2969 -1.0463
  109SLPC  H10Y11125   1.532   3.389   3.950  0.9359 -1.0631 -1.7890
  109SLPC  C31111126   1.454   3.581   3.939 -0.0285  0.1191  1.1768
  109SLPC  H11X11127   1.362   3.520   3.931  0.0990 -0.2350  2.2759
  109SLPC  H11Y11128   1.472   3.669   3.873  2.2505 -0.9315  0.2816
  109SLPC  C31211129   1.471   3.651   4.075 -0.6755  0.1507  0.2441
  109SLPC  H12X11130   1.581   3.668   4.073 -0.8837  1.5781 -0.7737
  109SLPC  H12Y11131   1.452   3.579   4.158 -1.6413  0.0680 -0.0413
  109SLPC  C31311132   1.385   3.776   4.092  0.1631  0.1100 -0.0553
  109SLPC  H13X11133   1.440   3.851   4.031  0.1629 -1.1932 -1.7392
  109SLPC  H13Y11134   1.380   3.802   4.200 -2.8443 -1.4642  0.2960
  109SLPC  C31411135   1.238   3.775   4.052  0.3326 -0.0694  0.5097
  109SLPC  H14X11136   1.221   3.767   3.942 -3.2206  2.0893  0.7576
  109SLPC  H14Y11137   1.194   3.873   4.079 -1.8803 -0.4868 -1.3294
  109SLPC  C31511138   1.155   3.672   4.133 -0.4549  0.0386  0.0262
  109SLPC  H15X11139   1.170   3.690   4.242  0.1826 -0.8906  0.1037
  109SLPC  H15Y11140   1.206   3.574   4.119  0.6228  0.4928  0.5875
  109SLPC  C31611141   1.007   3.665   4.104 -0.4038 -0.6485 -0.4790
  109SLPC  H16X11142   0.979   3.657   3.996 -0.7365 -2.1351 -0.3180
  109SLPC  H16Y11143   0.952   3.756   4.137 -1.8801 -1.1390 -1.4434
  109SLPC  C31711144   0.939   3.543   4.166 -0.2120 -0.3791 -0.7125
  109SLPC  H17X11145   0.949   3.547   4.277 -3.0239  0.2933 -0.3819
  109SLPC  H17Y11146   0.991   3.455   4.124  0.0093 -1.1970  1.1707
  109SLPC  C31811147   0.790   3.540   4.128 -0.8338  0.2811 -0.1841
  109SLPC  H18X11148   0.723   3.479   4.193  0.6367 -1.6023 -0.3599
  109SLPC  H18Y11149   0.771   3.501   4.025 -2.4350  0.8116 -0.1176
  109SLPC  H18Z11150   0.760   3.647   4.128 -1.9413 -0.0018  0.6588
  110SLPC     N11151   6.651   4.381   2.244 -0.0708 -0.1510 -0.4663
  110SLPC   C1311152   6.572   4.329   2.355 -0.2238  0.2284 -0.1346
  110SLPC  H13A11153   6.490   4.393   2.384 -0.3327 -1.1348  3.0523
  110SLPC  H13B11154   6.537   4.227   2.347 -1.0912  0.4347  0.7201
  110SLPC  H13C11155   6.635   4.327   2.443  0.5049 -0.2834 -0.6592
  110SLPC   C1411156   6.760   4.470   2.296 -0.6654 -0.8919 -0.5059
  110SLPC  H14A11157   6.829   4.504   2.220 -0.1999  1.0408  0.7186
  110SLPC  H14B11158   6.709   4.553   2.342  2.1661  0.8352 -0.2453
  110SLPC  H14C11159   6.819   4.418   2.371 -0.6852  1.9751  1.6431
  110SLPC   C1511160   6.566   4.459   2.154  0.4786  0.4831 -0.6520
  110SLPC  H15A11161   6.478   4.404   2.125 -1.3978  1.9622  1.8135
  110SLPC  H15B11162   6.527   4.549   2.200  1.7777  1.2254 -0.9352
  110SLPC  H15C11163   6.615   4.500   2.067  0.4683 -2.1604 -2.0033
  110SLPC   C1211164   6.715   4.262   2.164 -0.7065 -0.5478 -0.1961
  110SLPC  H12A11165   6.761   4.196   2.236 -1.0615 -0.0212  0.5214
  110SLPC  H12B11166   6.780   4.312   2.094 -1.7129  1.6665  0.3553
  110SLPC   C1111167   6.622   4.170   2.080 -0.4084  0.2636  0.0358
  110SLPC  H11A11168   6.687   4.104   2.019  0.7194 -0.5203  1.9909
  110SLPC  H11B11169   6.568   4.230   2.003 -1.5410 -0.7063  0.0585
  110SLPC     P11170   6.579   3.980   2.243  0.2212  0.3905  0.0776
  110SLPC   O1311171   6.527   3.863   2.168 -0.7611  0.0951  0.0699
  110SLPC   O1411172   6.724   3.993   2.266 -0.2462  0.3283 -0.1806
  110SLPC   O1211173   6.526   4.103   2.163 -0.2118 -0.2118  0.3997
  110SLPC   O1111174   6.509   3.996   2.382  0.7197 -0.4810  0.4068
  110SLPC    C111175   6.395   3.928   2.429  0.2668 -0.4592  0.1974
  110SLPC    HA11176   6.306   3.989   2.404  0.3884 -0.4928 -0.3180
  110SLPC    HB11177   6.379   3.827   2.386 -3.3553  1.4591 -3.8135
  110SLPC    C211178   6.402   3.908   2.583 -0.1205 -0.8721  0.7175
  110SLPC    HS11179   6.319   3.839   2.609 -1.3569  0.3024  0.0524
  110SLPC   O2111180   6.385   4.032   2.650  0.0058  0.2493 -0.0090
  110SLPC   C2111181   6.261   4.081   2.649 -0.3464  0.7320  0.4013
  110SLPC   O2211182   6.166   4.021   2.601 -0.1393  0.5939 -0.1844
  110SLPC   C2211183   6.262   4.220   2.706 -0.2146 -0.6100 -0.9954
  110SLPC   H2R11184   6.362   4.233   2.753 -1.2625 -2.9057  2.2384
  110SLPC   H2S11185   6.256   4.288   2.619  3.7450 -0.4462 -1.3493
  110SLPC    C311186   6.534   3.841   2.627  0.1274 -0.2364  0.6545
  110SLPC    HX11187   6.603   3.919   2.590 -1.4430  0.5941 -0.6507
  110SLPC    HY11188   6.545   3.747   2.568 -1.7205  0.1366 -0.3755
  110SLPC   O3111189   6.541   3.809   2.769  1.0206  0.0893  0.4817
  110SLPC   C3111190   6.565   3.903   2.853 -0.0768  0.3101 -0.0436
  110SLPC   O3211191   6.597   4.018   2.830 -0.4711 -0.0263 -0.1307
  110SLPC   C3211192   6.538   3.849   2.996  0.4176  0.2439  0.1576
  110SLPC   H2X11193   6.534   3.934   3.067 -0.9778  0.4284 -0.1165
  110SLPC   H2Y11194   6.620   3.777   3.017  1.0522  0.6502 -0.8358
  110SLPC   C2311195   6.159   4.243   2.813 -0.2648  0.0011 -0.1639
  110SLPC   H3R11196   6.057   4.203   2.793 -0.9457  1.3865  0.3892
  110SLPC   H3S11197   6.147   4.352   2.828  1.1274  0.0517  0.7105
  110SLPC   C2411198   6.207   4.189   2.948  0.6343 -0.1433 -0.8310
  110SLPC   H4R11199   6.305   4.237   2.973  0.2421 -0.5065  1.7609
  110SLPC   H4S11200   6.224   4.081   2.931 -2.8853 -1.0785  0.7378
  110SLPC   C2511201   6.091   4.198   3.056 -0.6107  0.6414 -0.0274
  110SLPC   H5R11202   5.996   4.160   3.013 -0.0440  1.3584 -2.0189
  110SLPC   H5S11203   6.078   4.305   3.080 -2.4235  0.4877 -0.2078
  110SLPC   C2611204   6.137   4.121   3.181 -0.2427 -0.0127 -0.8923
  110SLPC   H6R11205   6.189   4.027   3.154 -1.8473 -1.0771 -0.4464
  110SLPC   H6S11206   6.056   4.096   3.253 -1.2276 -0.8496 -2.2660
  110SLPC   C2711207   6.236   4.208   3.265  0.0163 -0.4380  0.1760
  110SLPC   H7R11208   6.157   4.269   3.314 -1.0672 -0.6321 -1.2639
  110SLPC   H7S11209   6.294   4.276   3.199  0.0980 -2.0043 -1.4443
  110SLPC   C2811210   6.323   4.121   3.358  0.4417  0.1518  0.3920
  110SLPC   H8R11211   6.400   4.181   3.410 -0.6709  0.9623  1.1304
  110SLPC   H8S11212   6.375   4.052   3.288  1.0836  0.7024  0.3122
  110SLPC   C2911213   6.249   4.031   3.452 -0.3463 -0.7754  0.0474
  110SLPC   H9R11214   6.174   3.962   3.411 -1.7053 -1.4031  3.2597
  110SLPC  C21011215   6.255   4.046   3.586  0.9332 -0.0055  0.1048
  110SLPC  H10R11216   6.203   3.967   3.643  0.6160 -0.2079 -0.4578
  110SLPC  C21111217   6.325   4.154   3.665 -0.2271  0.4721 -0.3715
  110SLPC  H11R11218   6.387   4.229   3.613 -0.3403  0.7745 -0.0757
  110SLPC  H11S11219   6.394   4.108   3.739 -2.6301 -0.4285  1.4686
  110SLPC  C21211220   6.220   4.230   3.742  0.3514  0.2188  0.1020
  110SLPC  H12R11221   6.172   4.312   3.687  0.4227  0.9583  1.1193
  110SLPC  C21311222   6.196   4.213   3.871  0.0813 -0.2001  0.2824
  110SLPC  H13R11223   6.127   4.282   3.920  0.4560  0.2199  0.2266
  110SLPC  C21411224   6.265   4.121   3.966  0.5811  0.2056  0.2589
  110SLPC  H14R11225   6.297   4.175   4.058  0.7282 -3.1362  2.3303
  110SLPC  H14S11226   6.347   4.066   3.916 -0.3413 -1.1832  0.2145
  110SLPC  C21511227   6.155   4.029   4.021 -0.5025  0.2150  0.2433
  110SLPC  H15R11228   6.116   3.979   3.930 -0.0853 -0.8043  0.6050
  110SLPC  H15S11229   6.071   4.085   4.068 -0.0766 -1.3211  3.1017
  110SLPC  C21611230   6.191   3.915   4.126 -0.8937  0.1815 -0.0417
  110SLPC  H16R11231   6.102   3.851   4.144 -0.5057 -0.3529  0.0263
  110SLPC  H16S11232   6.230   3.965   4.217 -0.2695 -1.5478  0.6932
  110SLPC  C21711233   6.308   3.830   4.071  0.7109 -0.3910  0.2614
  110SLPC  H17R11234   6.398   3.880   4.031  0.2756 -1.2887 -1.9795
  110SLPC  H17S11235   6.270   3.773   3.984 -0.8285 -0.2447  0.7973
  110SLPC  C21811236   6.348   3.720   4.164 -0.1696  0.6167 -0.3169
  110SLPC  H18R11237   6.271   3.645   4.192  0.5499 -0.3956 -0.9574
  110SLPC  H18S11238   6.397   3.751   4.259  2.0064  2.6774 -1.9820
  110SLPC  H18T11239   6.426   3.666   4.106 -0.6379  0.2986 -0.6537
  110SLPC   C3311240   6.408   3.769   3.012  0.3083 -0.6359  0.0988
  110SLPC   H3X11241   6.409   3.674   2.954  3.8137 -0.3954 -0.4245
  110SLPC   H3Y11242   6.321   3.833   2.984  0.0216 -0.9991  0.1366
  110SLPC   C3411243   6.382   3.728   3.157  0.2470  0.3109 -0.8628
  110SLPC   H4X11244   6.367   3.825   3.209 -0.4628  0.2354 -0.9212
  110SLPC   H4Y11245   6.468   3.680   3.208  0.8469  3.1550  1.0653
  110SLPC   C3511246   6.256   3.637   3.166  0.0911  0.3270 -0.1767
  110SLPC   H5X11247   6.288   3.536   3.132  3.2084  1.1078  0.0915
  110SLPC   H5Y11248   6.176   3.662   3.094  1.3508  0.3349 -1.6220
  110SLPC   C3611249   6.198   3.636   3.310 -1.2220  0.1780 -0.2064
  110SLPC   H6X11250   6.101   3.586   3.330 -1.0270 -0.0813  0.0933
  110SLPC   H6Y11251   6.182   3.741   3.344  0.8438  0.6901 -0.6827
  110SLPC   C3711252   6.296   3.569   3.412  0.1008 -0.4290  0.4517
  110SLPC   H7X11253   6.284   3.605   3.516  2.3506 -0.8153  0.8985
  110SLPC   H7Y11254   6.395   3.613   3.385 -0.8163  0.0815 -2.4591
  110SLPC   C3811255   6.304   3.418   3.399  0.9408  0.3144 -0.7905
  110SLPC   H8X11256   6.293   3.377   3.296 -1.1197 -1.3316  0.0047
  110SLPC   H8Y11257   6.211   3.386   3.450  1.3064 -1.6168 -1.2471
  110SLPC   C3911258   6.421   3.339   3.464  0.2396 -0.4325 -0.6673
  110SLPC   H9X11259   6.427   3.367   3.572 -0.0741  0.2734 -0.8243
  110SLPC   H9Y11260   6.512   3.379   3.416 -0.7246  2.5271 -0.2334
  110SLPC  C31011261   6.428   3.184   3.437  0.0223  0.3102 -0.0555
  110SLPC  H10X11262   6.458   3.158   3.334  2.0018 -1.8579  0.9749
  110SLPC  H10Y11263   6.323   3.148   3.448 -0.2238  0.6542 -1.1678
  110SLPC  C31111264   6.518   3.116   3.537 -0.0805  0.0427  0.1137
  110SLPC  H11X11265   6.499   3.121   3.646  1.2383  0.0498  0.3612
  110SLPC  H11Y11266   6.623   3.150   3.524  0.6326 -2.5777 -1.9771
  110SLPC  C31211267   6.527   2.963   3.502 -0.0704 -0.1864 -1.2657
  110SLPC  H12X11268   6.630   2.929   3.523 -0.2195  0.0505 -0.0629
  110SLPC  H12Y11269   6.523   2.951   3.392  0.7426 -1.0430 -1.2101
  110SLPC  C31311270   6.414   2.884   3.565 -0.7607 -0.2750  0.6328
  110SLPC  H13X11271   6.319   2.912   3.514  0.4548  4.2226  0.4079
  110SLPC  H13Y11272   6.393   2.914   3.670 -0.0008  0.9174  0.4632
  110SLPC  C31411273   6.437   2.737   3.558  0.1515  0.3307 -0.1042
  110SLPC  H14X11274   6.542   2.718   3.589  1.1078  0.8444 -2.7696
  110SLPC  H14Y11275   6.431   2.689   3.458  0.7192  0.1554 -0.0579
  110SLPC  C31511276   6.343   2.661   3.644  0.2380 -0.7563  0.1947
  110SLPC  H15X11277   6.249   2.645   3.586 -0.9729  1.1843  1.4821
  110SLPC  H15Y11278   6.305   2.708   3.737 -0.7268 -1.4182  0.1493
  110SLPC  C31611279   6.391   2.518   3.670 -0.0966  0.0787 -0.3112
  110SLPC  H16X11280   6.470   2.511   3.748 -0.6475  0.8941  0.3387
  110SLPC  H16Y11281   6.434   2.476   3.577  1.8026 -0.8515  0.9317
  110SLPC  C31711282   6.270   2.442   3.735  0.5161  0.2319 -0.3927
  110SLPC  H17X11283   6.294   2.335   3.716  1.1167  0.6037 -1.8414
  110SLPC  H17Y11284   6.172   2.465   3.687  0.1177  0.2218  0.3906
  110SLPC  C31811285   6.247   2.470   3.883  0.6634  0.1499  0.0649
  110SLPC  H18X11286   6.326   2.432   3.951  1.4748  0.3114 -0.7596
  110SLPC  H18Y11287   6.157   2.411   3.912  0.9878 -0.3732  0.0127
  110SLPC  H18Z11288   6.229   2.578   3.903  1.7468  0.2797  0.4395
  111SLPC     N11289   4.179   1.365   2.128  0.0561  0.0709  0.6024
  111SLPC   C1311290   4.306   1.410   2.083  0.0055  0.0908  0.4347
  111SLPC  H13A11291   4.376   1.436   2.161  0.8947  0.1659 -0.3634
  111SLPC  H13B11292   4.353   1.326   2.034  1.1934  1.2533 -0.5257
  111SLPC  H13C11293   4.304   1.484   2.004  0.9477  0.6243  0.8934
  111SLPC   C1411294   4.103   1.321   1.998 -0.3892  1.1543 -0.0202
  111SLPC  H14A11295   4.139   1.231   1.950 -3.8215  0.7551 -2.1468
  111SLPC  H14B11296   4.001   1.300   2.023  0.0070  2.7975  3.6893
  111SLPC  H14C11297   4.111   1.394   1.919  0.4402 -0.3053 -1.3597
  111SLPC   C1511298   4.107   1.473   2.203 -0.1021  0.4425 -0.3288
  111SLPC  H15A11299   4.001   1.450   2.200  0.0888 -0.4111 -0.8007
  111SLPC  H15B11300   4.144   1.484   2.304  1.9419 -1.3204 -0.8033
  111SLPC  H15C11301   4.127   1.568   2.156  1.4007  1.3011  1.8906
  111SLPC   C1211302   4.198   1.246   2.227 -0.5994 -1.1309 -0.0284
  111SLPC  H12A11303   4.250   1.282   2.315  2.2768 -0.8361 -1.6945
  111SLPC  H12B11304   4.280   1.185   2.191  1.6436 -0.1477  3.0484
  111SLPC   C1111305   4.070   1.161   2.268  0.4116 -0.1524  0.5175
  111SLPC  H11A11306   4.007   1.235   2.322  0.3349 -0.7952  1.3206
  111SLPC  H11B11307   4.090   1.094   2.354 -0.7708 -1.6520 -0.3312
  111SLPC     P11308   4.060   0.964   2.100  0.1173 -0.5220 -0.3601
  111SLPC   O1311309   4.032   0.962   1.954 -0.1655  0.1045  0.0390
  111SLPC   O1411310   4.198   0.944   2.145  0.4074 -0.2231  0.3002
  111SLPC   O1211311   4.002   1.100   2.156  0.3238 -0.2259 -0.2362
  111SLPC   O1111312   3.962   0.853   2.161 -1.1073 -0.2890  0.2942
  111SLPC    C111313   3.831   0.857   2.203 -0.1765  0.8184 -0.6679
  111SLPC    HA11314   3.774   0.929   2.142 -0.4830  0.0728 -1.2757
  111SLPC    HB11315   3.781   0.759   2.185  1.3031 -0.3103  0.9893
  111SLPC    C211316   3.829   0.877   2.358  0.0006  0.7695  0.9352
  111SLPC    HS11317   3.894   0.964   2.381 -1.1411  2.1408 -0.7680
  111SLPC   O2111318   3.883   0.752   2.402  0.0600  0.1332 -0.2056
  111SLPC   C2111319   4.006   0.754   2.447  0.0619  0.3399  0.0159
  111SLPC   O2211320   4.067   0.851   2.491 -0.2697  0.0130 -0.0236
  111SLPC   C2211321   4.062   0.619   2.421  0.6284  0.2680 -0.0698
  111SLPC   H2R11322   3.980   0.550   2.389  0.6290  0.5752 -0.7502
  111SLPC   H2S11323   4.137   0.617   2.339  0.9824  2.3439  0.1535
  111SLPC    C311324   3.693   0.909   2.414 -0.0113 -0.2429  0.1594
  111SLPC    HX11325   3.616   0.838   2.377 -0.8501  1.3166 -1.2719
  111SLPC    HY11326   3.672   1.008   2.368  1.7128  0.9633  1.8129
  111SLPC   O3111327   3.693   0.915   2.559  0.1928  0.2009 -0.1653
  111SLPC   C3111328   3.760   1.011   2.615 -0.2861 -0.5190 -0.7797
  111SLPC   O3211329   3.812   1.104   2.558  0.5818 -0.1290  0.3505
  111SLPC   C3211330   3.748   0.991   2.768  0.1700 -0.5908  0.1497
  111SLPC   H2X11331   3.854   1.001   2.800 -0.6693  2.7347  2.4306
  111SLPC   H2Y11332   3.699   0.896   2.798  0.9857 -1.1805 -0.3402
  111SLPC   C2311333   4.133   0.577   2.556 -0.0294  0.1013  0.3783
  111SLPC   H3R11334   4.228   0.627   2.584 -0.4369  0.9139  0.3446
  111SLPC   H3S11335   4.160   0.475   2.522 -1.8370 -0.2375 -0.1573
  111SLPC   C2411336   4.036   0.563   2.675 -0.0325  0.2438  0.0199
  111SLPC   H4R11337   4.075   0.478   2.735  1.0689  1.4886  1.1233
  111SLPC   H4S11338   3.943   0.524   2.630 -0.5897 -1.2940  2.3206
  111SLPC   C2511339   4.023   0.683   2.769  0.1086  0.8332  0.2030
  111SLPC   H5R11340   4.004   0.770   2.704  1.0209 -0.5695 -2.0552
  111SLPC   H5S11341   4.119   0.710   2.818  0.1761 -0.0499  0.5850
  111SLPC   C2611342   3.906   0.666   2.868 -0.3379 -0.2413 -0.3659
  111SLPC   H6R11343   3.904   0.567   2.917 -0.5822  0.2393  0.6259
  111SLPC   H6S11344   3.809   0.683   2.816  0.5842  2.4063 -1.3901
  111SLPC   C2711345   3.924   0.762   2.988 -0.3978  0.3305 -0.0063
  111SLPC   H7R11346   3.956   0.863   2.957  1.2294 -0.7006 -1.9577
  111SLPC   H7S11347   4.015   0.720   3.036 -1.0662  1.5326  2.4850
  111SLPC   C2811348   3.808   0.760   3.091  0.4179 -0.0942 -0.2471
  111SLPC   H8R11349   3.782   0.655   3.115  0.0342  0.2986  1.1110
  111SLPC   H8S11350   3.721   0.797   3.033  0.7964  1.9478  0.4207
  111SLPC   C2911351   3.834   0.848   3.210  0.5564 -0.1326  0.1624
  111SLPC   H9R11352   3.868   0.947   3.176 -0.6299  0.1168 -0.3310
  111SLPC  C21011353   3.817   0.818   3.341 -0.7643  0.1939 -0.5273
  111SLPC  H10R11354   3.834   0.891   3.421  0.1999 -2.0460  1.4599
  111SLPC  C21111355   3.777   0.681   3.378 -0.4852  0.0225 -0.0826
  111SLPC  H11R11356   3.700   0.634   3.314 -0.7757 -0.7646  0.8216
  111SLPC  H11S11357   3.723   0.694   3.474  0.1886  2.2482  0.0555
  111SLPC  C21211358   3.899   0.586   3.394  0.5321 -0.1883  1.2448
  111SLPC  H12R11359   3.971   0.570   3.312 -0.2068  1.0079  0.3281
  111SLPC  C21311360   3.931   0.551   3.522 -0.2668  0.6978  0.1750
  111SLPC  H13R11361   4.025   0.495   3.533  0.2349  1.4466 -0.2371
  111SLPC  C21411362   3.867   0.587   3.649 -0.2818 -0.8139  0.0217
  111SLPC  H14R11363   3.915   0.512   3.716 -0.8569  0.1653  1.5977
  111SLPC  H14S11364   3.758   0.567   3.646 -0.4875  0.3668 -1.1795
  111SLPC  C21511365   3.908   0.725   3.707  0.0552  0.3826  0.2777
  111SLPC  H15R11366   3.865   0.804   3.642 -1.3497 -2.9081 -3.1815
  111SLPC  H15S11367   4.018   0.729   3.700 -0.0274  0.3642 -1.3992
  111SLPC  C21611368   3.875   0.737   3.861 -0.1083  0.1424 -0.8985
  111SLPC  H16R11369   3.919   0.835   3.890 -0.6417  0.4952 -1.2671
  111SLPC  H16S11370   3.928   0.662   3.925  2.3724  2.1698 -0.4329
  111SLPC  C21711371   3.717   0.741   3.895 -0.3901  0.2699  0.0445
  111SLPC  H17R11372   3.712   0.773   4.001 -1.5392  2.6250 -0.6495
  111SLPC  H17S11373   3.667   0.642   3.894 -0.5665  0.3554 -0.6081
  111SLPC  C21811374   3.635   0.847   3.816  0.0515 -0.2383  0.1475
  111SLPC  H18R11375   3.684   0.946   3.827  0.7991 -0.2040 -2.6800
  111SLPC  H18S11376   3.533   0.847   3.859 -0.1190  3.6931  0.1462
  111SLPC  H18T11377   3.624   0.816   3.710 -1.3006 -1.0091  0.4895
  111SLPC   C3311378   3.691   1.121   2.828 -0.9359  0.7947  0.2327
  111SLPC   H3X11379   3.584   1.128   2.799 -1.9459  1.8338  3.7516
  111SLPC   H3Y11380   3.740   1.210   2.783 -1.4288  0.6044 -0.7123
  111SLPC   C3411381   3.709   1.134   2.978  0.8893  0.5158  0.2697
  111SLPC   H4X11382   3.814   1.106   3.004 -0.1953 -2.8229  1.4945
  111SLPC   H4Y11383   3.630   1.075   3.028  0.9684 -0.2129 -0.4417
  111SLPC   C3511384   3.700   1.278   3.025 -0.9191  0.6003  0.0066
  111SLPC   H5X11385   3.592   1.301   3.017 -0.7326  1.0545 -1.4122
  111SLPC   H5Y11386   3.751   1.347   2.954 -1.0590  0.0074 -0.6851
  111SLPC   C3611387   3.756   1.290   3.169  0.3226  0.3962 -0.2245
  111SLPC   H6X11388   3.773   1.397   3.193 -1.7138  0.6190  0.4580
  111SLPC   H6Y11389   3.849   1.229   3.171 -0.0666 -0.1855  1.2099
  111SLPC   C3711390   3.668   1.236   3.277  0.1832  0.3109  0.7663
  111SLPC   H7X11391   3.658   1.126   3.283 -3.4196  0.5732  2.0966
  111SLPC   H7Y11392   3.566   1.279   3.266 -0.7159 -1.9963 -0.5132
  111SLPC   C3811393   3.711   1.289   3.412  0.2367  0.2231 -0.1560
  111SLPC   H8X11394   3.715   1.400   3.413  0.4139  0.2153  0.5664
  111SLPC   H8Y11395   3.806   1.248   3.453 -0.9850  0.9706  3.8525
  111SLPC   C3911396   3.609   1.254   3.524 -0.4457  0.5145 -0.1325
  111SLPC   H9X11397   3.540   1.171   3.501 -0.8304  0.5815  0.7335
  111SLPC   H9Y11398   3.546   1.345   3.538  1.1001  1.4462  1.3159
  111SLPC  C31011399   3.680   1.216   3.662  0.7397 -0.4776  0.5697
  111SLPC  H10X11400   3.705   1.108   3.657 -1.5372 -1.1173 -5.1851
  111SLPC  H10Y11401   3.597   1.226   3.735  1.7784  0.2302  1.6939
  111SLPC  C31111402   3.792   1.312   3.706  0.1888  0.4064 -0.1906
  111SLPC  H11X11403   3.755   1.413   3.679 -0.8575  0.4694  1.3322
  111SLPC  H11Y11404   3.881   1.281   3.648 -0.0728  0.0785 -0.4205
  111SLPC  C31211405   3.831   1.325   3.855 -0.1352  0.3126 -0.1807
  111SLPC  H12X11406   3.942   1.315   3.862 -0.3408 -3.2146  0.0344
  111SLPC  H12Y11407   3.780   1.234   3.893 -0.1791 -0.3743 -1.8088
  111SLPC  C31311408   3.776   1.453   3.924 -0.8980  0.4525  0.3691
  111SLPC  H13X11409   3.670   1.462   3.893 -0.3013  0.3913 -1.8382
  111SLPC  H13Y11410   3.830   1.537   3.877  0.5823 -1.1305 -0.8868
  111SLPC  C31411411   3.792   1.471   4.080 -0.3555 -0.5182  0.4506
  111SLPC  H14X11412   3.732   1.400   4.141 -0.8818 -1.6470 -1.3211
  111SLPC  H14Y11413   3.764   1.577   4.102  0.5532  0.2285 -1.6900
  111SLPC  C31511414   3.943   1.453   4.132  0.5396  0.1930  0.1867
  111SLPC  H15X11415   4.003   1.529   4.076  0.8791 -1.0435 -1.1947
  111SLPC  H15Y11416   3.971   1.350   4.104 -2.0429 -0.6863  0.5739
  111SLPC  C31611417   3.955   1.451   4.281  0.5463 -0.2687  0.1141
  111SLPC  H16X11418   3.898   1.537   4.323 -2.0346 -2.9888  2.7629
  111SLPC  H16Y11419   4.061   1.470   4.309  0.2925  0.3845  0.6678
  111SLPC  C31711420   3.910   1.320   4.351  0.2686  0.2067  0.1667
  111SLPC  H17X11421   3.967   1.237   4.304 -0.8896 -0.6833  0.2806
  111SLPC  H17Y11422   3.806   1.304   4.315  0.1987 -1.5316  1.0511
  111SLPC  C31811423   3.922   1.332   4.506  0.1492 -0.3110  0.4189
  111SLPC  H18X11424   3.880   1.237   4.545 -1.0817  0.0495  0.0118
  111SLPC  H18Y11425   3.866   1.422   4.540  0.8021  0.4803 -0.5348
  111SLPC  H18Z11426   4.025   1.340   4.547 -1.1632 -0.4953  4.0900
  112SLPC     N11427   6.719   5.113   1.743  0.3050  0.3333 -0.4291
  112SLPC   C1311428   6.823   5.204   1.677  0.3529 -0.2264  0.0813
  112SLPC  H13A11429   6.842   5.158   1.581  1.2037  2.6288 -1.2344
  112SLPC  H13B11430   6.792   5.306   1.661  0.4244 -0.3531 -0.9004
  112SLPC  H13C11431   6.913   5.212   1.736  2.1855  0.7295 -2.6368
  112SLPC   C1411432   6.623   5.056   1.644 -0.1879  0.0820  0.6891
  112SLPC  H14A11433   6.549   4.988   1.683  1.4352 -1.6866  0.8545
  112SLPC  H14B11434   6.591   5.134   1.576  1.0566  1.1133  1.2252
  112SLPC  H14C11435   6.672   4.991   1.572 -0.2087  1.5221 -0.6983
  112SLPC   C1511436   6.641   5.195   1.842  1.0437 -0.1329 -0.0659
  112SLPC  H15A11437   6.616   5.289   1.796 -1.4289 -1.4552 -1.6333
  112SLPC  H15B11438   6.553   5.153   1.890  1.9645  2.4049  4.4811
  112SLPC  H15C11439   6.699   5.220   1.930  0.0967 -2.8690  1.4808
  112SLPC   C1211440   6.785   4.993   1.812  0.2829 -0.3695  0.2125
  112SLPC  H12A11441   6.834   4.943   1.729 -0.2877 -1.0197  0.2593
  112SLPC  H12B11442   6.716   4.917   1.844 -0.5367 -1.5549 -3.7335
  112SLPC   C1111443   6.878   5.024   1.931 -0.4781 -0.3048 -0.0165
  112SLPC  H11A11444   6.820   5.077   2.010 -0.1528  1.4275 -0.9115
  112SLPC  H11B11445   6.953   5.099   1.901 -0.5023 -0.2535  0.0507
  112SLPC     P11446   6.839   4.802   2.057 -0.2694 -0.5468  0.2321
  112SLPC   O1311447   6.741   4.736   1.969 -0.4523  0.1704  0.2649
  112SLPC   O1411448   6.909   4.709   2.147 -0.0713  0.0284  0.3968
  112SLPC   O1211449   6.937   4.902   1.978 -0.6509  0.0202  0.1233
  112SLPC   O1111450   6.756   4.899   2.148 -0.0744 -0.3171  0.2299
  112SLPC    C111451   6.826   4.971   2.253  0.4798 -0.2669 -0.2450
  112SLPC    HA11452   6.937   4.970   2.242  0.4376  0.4054 -0.7834
  112SLPC    HB11453   6.786   5.073   2.241  2.5189  0.7762  1.2644
  112SLPC    C211454   6.797   4.917   2.401  0.7370 -0.4661  0.1874
  112SLPC    HS11455   6.823   4.808   2.401  2.3920 -0.1113 -0.3065
  112SLPC   O2111456   6.663   4.933   2.442  0.1686  0.9062  0.0456
  112SLPC   C2111457   6.572   4.842   2.420 -0.3643 -0.0942  0.5329
  112SLPC   O2211458   6.598   4.733   2.367 -0.3988 -0.1046 -0.1634
  112SLPC   C2211459   6.438   4.879   2.474  0.4570 -0.1413 -0.4576
  112SLPC   H2R11460   6.377   4.905   2.385  0.6860  1.3645 -0.1932
  112SLPC   H2S11461   6.391   4.788   2.519 -0.0135  0.5979  0.5980
  112SLPC    C311462   6.889   4.999   2.503 -0.7551  0.3178 -0.3090
  112SLPC    HX11463   6.885   5.106   2.473  0.6919  0.5087  0.0581
  112SLPC    HY11464   6.991   4.958   2.482 -1.9213 -2.0650 -1.7751
  112SLPC   O3111465   6.848   4.976   2.635  0.2580 -0.3833 -0.1884
  112SLPC   C3111466   6.886   5.072   2.727 -0.2687  0.4579  0.4649
  112SLPC   O3211467   6.951   5.170   2.698 -0.4052 -0.0010 -0.2650
  112SLPC   C3211468   6.840   5.026   2.867  0.6023  0.0909  0.0999
  112SLPC   H2X11469   6.887   4.929   2.895  0.0818 -0.7473 -1.7848
  112SLPC   H2Y11470   6.729   5.014   2.862  0.4980  0.9225  0.2082
  112SLPC   C2311471   6.436   4.996   2.571 -0.3470  0.4787  0.1724
  112SLPC   H3R11472   6.334   5.038   2.582 -1.2848 -0.6977 -3.0629
  112SLPC   H3S11473   6.504   5.077   2.535  0.6612 -0.1304  0.6445
  112SLPC   C2411474   6.470   4.943   2.710  0.0684 -0.0120 -0.5409
  112SLPC   H4R11475   6.575   4.905   2.714 -0.0578 -0.2406  1.2851
  112SLPC   H4S11476   6.416   4.848   2.730  1.6584 -0.6915  0.7128
  112SLPC   C2511477   6.440   5.044   2.814  0.1585 -0.2159 -0.0409
  112SLPC   H5R11478   6.333   5.073   2.808  0.6285  2.1390  1.4239
  112SLPC   H5S11479   6.499   5.139   2.811 -1.7307  1.0042 -0.2979
  112SLPC   C2611480   6.445   4.974   2.951 -0.3490 -0.0798  0.6810
  112SLPC   H6R11481   6.548   4.948   2.981  0.1226  0.9651  0.0351
  112SLPC   H6S11482   6.382   4.882   2.957 -0.1972 -0.1516  1.2448
  112SLPC   C2711483   6.379   5.060   3.064  0.9416 -0.6325 -0.0974
  112SLPC   H7R11484   6.275   5.081   3.032 -0.1036 -4.1606  0.5480
  112SLPC   H7S11485   6.438   5.154   3.073  0.7762 -0.2946 -2.0326
  112SLPC   C2811486   6.383   5.002   3.206 -0.4742  0.4004 -0.4878
  112SLPC   H8R11487   6.486   4.970   3.230 -0.7363 -3.2276 -3.3137
  112SLPC   H8S11488   6.322   4.911   3.188 -1.5387  0.8345  0.6984
  112SLPC   C2911489   6.315   5.089   3.307 -0.2251  0.3797  0.2536
  112SLPC   H9R11490   6.224   5.139   3.271  0.0718  0.3361 -0.5713
  112SLPC  C21011491   6.354   5.107   3.442 -0.2430  0.2071  0.8073
  112SLPC  H10R11492   6.300   5.187   3.495 -0.1122  1.0945 -0.3590
  112SLPC  C21111493   6.471   5.066   3.515 -0.0935 -0.0908  0.4644
  112SLPC  H11R11494   6.543   5.031   3.438 -1.2846 -1.9353  0.1273
  112SLPC  H11S11495   6.448   4.976   3.575  0.2430 -1.1830 -1.0054
  112SLPC  C21211496   6.532   5.184   3.592  0.0218  0.4553  0.0820
  112SLPC  H12R11497   6.554   5.275   3.534 -0.3622  0.5976  0.1547
  112SLPC  C21311498   6.561   5.199   3.719  0.0204  1.1970 -0.2324
  112SLPC  H13R11499   6.610   5.291   3.754  0.3938 -0.0068  2.6933
  112SLPC  C21411500   6.535   5.102   3.824 -0.1200  1.1494 -0.2707
  112SLPC  H14R11501   6.622   5.107   3.893  0.2243 -0.8650 -0.4980
  112SLPC  H14S11502   6.527   4.999   3.783 -1.0304  0.6841  1.0246
  112SLPC  C21511503   6.414   5.130   3.913 -0.2409  0.1639  0.0212
  112SLPC  H15R11504   6.399   5.034   3.967 -0.7750  0.2260 -0.0168
  112SLPC  H15S11505   6.327   5.147   3.846  0.9738  1.0881 -1.3847
  112SLPC  C21611506   6.418   5.251   4.007 -0.6423 -0.3133 -0.3637
  112SLPC  H16R11507   6.322   5.247   4.062  0.2079 -0.3411  1.1607
  112SLPC  H16S11508   6.416   5.347   3.951 -1.6894  0.3186  0.7202
  112SLPC  C21711509   6.543   5.246   4.103  0.3551 -0.2582  0.0994
  112SLPC  H17R11510   6.632   5.258   4.038  0.2065 -0.5338 -0.1539
  112SLPC  H17S11511   6.538   5.143   4.144 -0.0212  0.3749  1.7142
  112SLPC  C21811512   6.543   5.359   4.207  0.1791  0.1699 -0.0058
  112SLPC  H18R11513   6.611   5.334   4.291 -0.0780 -0.2554  0.0792
  112SLPC  H18S11514   6.442   5.364   4.253  0.1443 -1.9162  0.2511
  112SLPC  H18T11515   6.562   5.451   4.148 -2.1465  0.1964 -0.8274
  112SLPC   C3311516   6.861   5.130   2.977  0.1361  0.4399 -0.3972
  112SLPC   H3X11517   6.831   5.232   2.946 -1.4949  1.3125  3.5270
  112SLPC   H3Y11518   6.971   5.124   2.993  0.1994 -2.4114 -1.3364
  112SLPC   C3411519   6.770   5.102   3.099 -0.2413  0.0394 -0.4112
  112SLPC   H4X11520   6.770   4.995   3.127 -0.5316  0.6142  1.9741
  112SLPC   H4Y11521   6.675   5.122   3.045  0.7555  1.7326 -1.6293
  112SLPC   C3511522   6.792   5.185   3.230 -0.2765 -0.2424  0.2102
  112SLPC   H5X11523   6.708   5.175   3.302  0.0588  1.2395  0.8304
  112SLPC   H5Y11524   6.781   5.291   3.199  0.6899 -0.6098 -1.5233
  112SLPC   C3611525   6.922   5.151   3.297 -0.2165  0.6271 -0.3785
  112SLPC   H6X11526   6.998   5.201   3.234  0.7603  1.0418  1.0655
  112SLPC   H6Y11527   6.946   5.042   3.294  1.4888  0.6035  4.4000
  112SLPC   C3711528   6.919   5.199   3.440 -0.3360  0.8059 -0.2026
  112SLPC   H7X11529   6.852   5.139   3.506  0.7183  0.9587  1.0513
  112SLPC   H7Y11530   6.866   5.296   3.445 -0.2864  0.7889  1.1723
  112SLPC   C3811531   7.057   5.214   3.509 -0.3576  0.1601 -0.2215
  112SLPC   H8X11532   7.119   5.284   3.450  0.2106  0.5615  0.8250
  112SLPC   H8Y11533   7.110   5.117   3.515 -1.8647 -0.7069 -0.3902
  112SLPC   C3911534   7.038   5.280   3.647  0.3538  0.1411 -0.5838
  112SLPC   H9X11535   7.006   5.193   3.708 -2.5047  0.5381 -1.3768
  112SLPC   H9Y11536   6.956   5.354   3.643 -0.2344 -0.3626  1.0281
  112SLPC  C31011537   7.157   5.332   3.725 -0.8515 -0.1554 -0.0205
  112SLPC  H10X11538   7.125   5.375   3.822  0.2930  1.5766 -0.3731
  112SLPC  H10Y11539   7.205   5.423   3.683  0.9586 -1.9646 -2.1775
  112SLPC  C31111540   7.265   5.226   3.745 -0.3355  0.5368 -0.1880
  112SLPC  H11X11541   7.312   5.183   3.654  0.7097 -0.5164  0.8260
  112SLPC  H11Y11542   7.218   5.137   3.791  1.1418 -0.4079 -0.4292
  112SLPC  C31211543   7.384   5.275   3.835 -0.5560  0.3934 -0.2037
  112SLPC  H12X11544   7.445   5.338   3.766  0.1841  0.0987  0.1744
  112SLPC  H12Y11545   7.448   5.187   3.854  2.0851  2.3688  0.6385
  112SLPC  C31311546   7.342   5.342   3.962 -0.0234  0.2781  0.5100
  112SLPC  H13X11547   7.256   5.411   3.952  0.3815  0.7139 -0.0353
  112SLPC  H13Y11548   7.430   5.391   4.010 -0.8599  1.2013  1.1243
  112SLPC  C31411549   7.306   5.234   4.064 -0.0674 -0.3586  0.2680
  112SLPC  H14X11550   7.242   5.156   4.018  0.7008 -1.4269  0.9823
  112SLPC  H14Y11551   7.250   5.273   4.151  1.4781 -1.6326  1.8967
  112SLPC  C31511552   7.419   5.164   4.128 -0.3171  0.1578  0.8954
  112SLPC  H15X11553   7.489   5.230   4.183  0.1775  1.0796 -0.7899
  112SLPC  H15Y11554   7.488   5.128   4.049 -0.0501  1.1542  0.6658
  112SLPC  C31611555   7.383   5.048   4.218  0.3329 -0.6225 -0.0732
  112SLPC  H16X11556   7.313   5.080   4.298  0.0163 -0.2305 -0.5030
  112SLPC  H16Y11557   7.477   5.011   4.266 -0.4101 -0.6888  1.3926
  112SLPC  C31711558   7.318   4.926   4.147  0.6786 -0.0784 -0.1699
  112SLPC  H17X11559   7.389   4.904   4.064 -0.1677 -0.8416 -0.7042
  112SLPC  H17Y11560   7.217   4.953   4.111 -0.2433 -1.5015  1.1973
  112SLPC  C31811561   7.296   4.799   4.237 -0.4416 -0.4332  0.2139
  112SLPC  H18X11562   7.238   4.842   4.322  0.2922 -0.7260  0.8773
  112SLPC  H18Y11563   7.396   4.768   4.275 -0.5918 -0.8318  0.2910
  112SLPC  H18Z11564   7.245   4.721   4.178  1.2273 -1.6077  0.2291
  113SAPC     N11565   5.291   4.001   6.454  0.1262  0.1563 -0.8745
  113SAPC   C1211566   5.342   3.856   6.427  0.0356  0.2462 -0.4221
  113SAPC  H12A11567   5.447   3.844   6.450 -0.5233 -1.0767  1.7836
  113SAPC  H12B11568   5.342   3.846   6.320  0.4344  0.1440 -0.4144
  113SAPC   C1311569   5.303   4.044   6.598 -0.1925  0.1732  0.5217
  113SAPC  H13A11570   5.249   3.974   6.660  0.1760  1.4379  2.3576
  113SAPC  H13B11571   5.406   4.044   6.631 -0.2799 -0.5422  0.8120
  113SAPC  H13C11572   5.265   4.143   6.620 -0.4224  0.1991  0.0157
  113SAPC   C1411573   5.374   4.084   6.367 -0.6768  0.2802  0.0254
  113SAPC  H14A11574   5.421   4.165   6.421 -0.2913  0.0793 -0.0066
  113SAPC  H14B11575   5.450   4.023   6.322 -0.6340 -0.1352  0.6418
  113SAPC  H14C11576   5.320   4.138   6.291 -0.1845  1.9310  0.7910
  113SAPC   C1511577   5.142   4.020   6.411 -0.4484  0.3134  0.1416
  113SAPC  H15A11578   5.074   3.965   6.475  0.8519  1.0676  2.2777
  113SAPC  H15B11579   5.118   4.124   6.429 -0.1102  0.2715  0.8819
  113SAPC  H15C11580   5.128   3.988   6.309 -2.6699  1.0218  0.1664
  113SAPC   C1111581   5.266   3.735   6.493  0.3202 -0.7478 -0.3391
  113SAPC  H11A11582   5.263   3.744   6.604  0.2993  0.0851 -0.4052
  113SAPC  H11B11583   5.321   3.639   6.480  1.7180 -0.1572  0.8867
  113SAPC     P11584   5.109   3.673   6.297  0.1427 -0.1754 -0.4034
  113SAPC   O1311585   5.179   3.748   6.196 -0.2733 -0.1291  0.6886
  113SAPC   O1411586   5.139   3.526   6.313  0.6004  0.0169  0.4003
  113SAPC   O1211587   5.130   3.726   6.442 -0.5424 -0.2632 -0.5450
  113SAPC   O1111588   4.958   3.697   6.276  0.3340 -0.2762 -0.5571
  113SAPC    C111589   4.876   3.584   6.222  0.3122 -0.1094  0.0774
  113SAPC    HA11590   4.927   3.485   6.225  1.2326  0.1926 -2.7103
  113SAPC    HB11591   4.785   3.566   6.282  1.3809 -0.6324  1.6117
  113SAPC    C211592   4.829   3.601   6.073 -0.0174  0.2077 -0.3649
  113SAPC    HS11593   4.768   3.517   6.033 -2.7419  1.7635  0.3022
  113SAPC   O2111594   4.944   3.610   5.992  0.0507 -0.2776  0.3210
  113SAPC   C2111595   5.014   3.492   5.970  0.8585  0.1197  0.6519
  113SAPC   O2211596   4.972   3.385   6.008  0.6149  0.3159  0.3168
  113SAPC   C2211597   5.128   3.518   5.868  0.0673  0.0437  0.8430
  113SAPC   H2R11598   5.096   3.571   5.776  0.9287 -0.4062  0.2673
  113SAPC   H2S11599   5.202   3.579   5.925 -1.4532  1.8862  0.9603
  113SAPC    C311600   4.746   3.724   6.071  0.4803 -0.2117  0.1699
  113SAPC    HX11601   4.798   3.802   6.129  0.2002 -0.4464  0.7439
  113SAPC    HY11602   4.651   3.700   6.123  0.7933  0.8888  1.2861
  113SAPC   O3111603   4.727   3.753   5.926  0.4576 -0.0651  0.1309
  113SAPC   C3111604   4.693   3.887   5.905 -0.3462  0.3694 -0.3602
  113SAPC   O3211605   4.702   3.976   5.982  0.2300  0.0135 -0.4086
  113SAPC   C3211606   4.603   3.891   5.779 -0.0473  0.2275 -0.2451
  113SAPC   H2X11607   4.497   3.869   5.800  0.3625 -2.0049 -0.3234
  113SAPC   H2Y11608   4.644   3.815   5.709 -0.1767  0.4967 -0.6154
  113SAPC   C2311609   5.195   3.384   5.822  0.8393  0.6088 -0.1665
  113SAPC   H3R11610   5.140   3.321   5.749  2.2281 -1.4599  0.4715
  113SAPC   H3S11611   5.214   3.313   5.905  0.9237 -1.5661 -1.9550
  113SAPC   C2411612   5.336   3.421   5.764 -0.0802  0.0658  0.0984
  113SAPC   H4R11613   5.378   3.326   5.725  0.6348  0.6261 -0.5068
  113SAPC   H4S11614   5.395   3.454   5.852 -2.1816  2.3497  0.7684
  113SAPC   C2511615   5.345   3.524   5.658 -0.8257 -0.2761  0.0912
  113SAPC   H5R11616   5.344   3.625   5.700 -0.4849 -0.4896  0.6164
  113SAPC   C2611617   5.327   3.511   5.525  0.0078 -0.8521  0.2810
  113SAPC   H6R11618   5.341   3.605   5.469 -0.0450 -0.6217  0.6467
  113SAPC   C2711619   5.292   3.392   5.449  0.2174 -0.0378  0.8071
  113SAPC   H7R11620   5.319   3.300   5.504 -0.8568 -1.1094 -0.3924
  113SAPC   H7S11621   5.354   3.385   5.356  0.1163 -0.8642  0.7993
  113SAPC   C2811622   5.143   3.380   5.418 -0.2104  0.4058 -0.1412
  113SAPC   H8R11623   5.084   3.373   5.510  0.1729 -0.9660  0.0204
  113SAPC   C2911624   5.091   3.361   5.294 -0.8922  0.1744  0.4513
  113SAPC   H9R11625   4.983   3.353   5.276 -0.8899 -0.3513  0.6262
  113SAPC  C21011626   5.178   3.357   5.173 -0.3250 -0.2981  0.0001
  113SAPC  H10R11627   5.277   3.309   5.186  0.5652  1.4301 -0.0361
  113SAPC  H10S11628   5.204   3.463   5.152  2.9405 -0.3122  3.0363
  113SAPC  C21111629   5.112   3.297   5.048 -1.0611 -0.2061  0.0213
  113SAPC  H11R11630   5.116   3.187   5.039 -0.9351 -0.2004  0.0022
  113SAPC  C21211631   5.054   3.356   4.944  0.3265  0.6949  0.4432
  113SAPC  H12R11632   5.004   3.293   4.869  0.1484  0.7168  0.5444
  113SAPC  C21311633   5.024   3.501   4.916  0.2247  0.3672 -0.0075
  113SAPC  H13R11634   5.038   3.570   5.002  2.3968 -0.4772  0.3732
  113SAPC  H13S11635   4.919   3.514   4.882  0.1642  1.8428  0.6702
  113SAPC  C21411636   5.123   3.555   4.804 -0.2534 -0.3563 -1.0232
  113SAPC  H14R11637   5.221   3.504   4.803 -1.1170 -2.5120  2.6485
  113SAPC  C21511638   5.073   3.632   4.712 -0.1467 -0.4491  0.6580
  113SAPC  H15R11639   5.139   3.658   4.628 -1.2103  0.1413 -0.0229
  113SAPC  C21611640   4.930   3.683   4.698 -0.2493  0.0701 -0.5520
  113SAPC  H16R11641   4.914   3.743   4.790  0.0185  0.5173 -0.7914
  113SAPC  H16S11642   4.849   3.608   4.693 -1.7954  1.7416 -1.6474
  113SAPC  C21711643   4.908   3.768   4.573  0.6771 -0.5910 -0.1480
  113SAPC  H17R11644   4.798   3.783   4.568  0.5661 -1.1163  0.6409
  113SAPC  H17S11645   4.944   3.707   4.487 -0.2043 -0.1082 -0.8769
  113SAPC  C21811646   4.983   3.907   4.572 -0.1653  0.2244  0.0365
  113SAPC  H18R11647   5.090   3.877   4.577 -0.1867 -0.6355 -2.6614
  113SAPC  H18S11648   4.951   3.962   4.662  2.2424  2.6172 -0.4688
  113SAPC  C21911649   4.959   3.998   4.456  0.2925  0.2575 -0.2681
  113SAPC  H19R11650   4.930   4.102   4.483 -3.4568 -1.2736  2.4315
  113SAPC  H19S11651   4.870   3.954   4.405 -0.2177  0.5796  0.3332
  113SAPC  C22011652   5.091   4.006   4.365 -0.2916 -0.4428 -1.1130
  113SAPC  H20R11653   5.173   4.045   4.429  0.2891 -1.1948 -1.3882
  113SAPC  H20S11654   5.070   4.065   4.273 -0.7613 -1.6354 -1.7821
  113SAPC  H20T11655   5.132   3.907   4.337  1.8619  0.0758 -0.0259
  113SAPC   C3311656   4.606   4.035   5.721  0.4017 -0.6406  0.0695
  113SAPC   H3X11657   4.706   4.081   5.732  0.5729 -1.2441  1.1606
  113SAPC   H3Y11658   4.543   4.102   5.784  1.8764  2.0839 -1.1307
  113SAPC   C3411659   4.557   4.046   5.579  0.3750 -0.4871  0.0719
  113SAPC   H4X11660   4.453   4.010   5.592 -0.0504  0.5927 -0.2751
  113SAPC   H4Y11661   4.611   3.978   5.510  0.6586  1.3837 -1.6415
  113SAPC   C3511662   4.570   4.189   5.531  0.6401  0.5225  0.4812
  113SAPC   H5X11663   4.677   4.217   5.523  0.3207  1.2804 -1.8560
  113SAPC   H5Y11664   4.522   4.261   5.601  2.4514  0.9049  1.3818
  113SAPC   C3611665   4.502   4.197   5.393  0.3261 -0.6432  0.2276
  113SAPC   H6X11666   4.396   4.163   5.397 -0.7591  2.5726  1.5328
  113SAPC   H6Y11667   4.557   4.131   5.322 -0.9349 -0.2158 -1.1956
  113SAPC   C3711668   4.508   4.335   5.338  0.1525 -0.5967 -0.1975
  113SAPC   H7X11669   4.615   4.361   5.339 -0.0458  0.2474  0.9656
  113SAPC   H7Y11670   4.446   4.401   5.402  0.1674 -1.4101  0.6846
  113SAPC   C3811671   4.454   4.345   5.199  0.4340  0.3992 -0.5308
  113SAPC   H8X11672   4.347   4.315   5.211  0.2235  1.2388 -0.1968
  113SAPC   H8Y11673   4.508   4.272   5.135  1.0776 -0.0036  0.4455
  113SAPC   C3911674   4.451   4.486   5.126 -0.5793 -0.4369  0.1299
  113SAPC   H9X11675   4.556   4.520   5.116  0.0545 -1.8426  1.6518
  113SAPC   H9Y11676   4.376   4.547   5.181 -1.6090 -0.7683 -0.8591
  113SAPC  C31011677   4.377   4.474   4.992  0.5800 -0.0233  0.0352
  113SAPC  H10X11678   4.322   4.566   4.961 -0.8636 -0.6159  0.7430
  113SAPC  H10Y11679   4.308   4.389   5.010  0.9958  0.2904  4.0213
  113SAPC  C31111680   4.472   4.434   4.875  1.1839 -0.4467 -0.2127
  113SAPC  H11X11681   4.534   4.357   4.925 -0.8426 -1.5283  0.7968
  113SAPC  H11Y11682   4.530   4.524   4.847 -1.6002  0.7116 -2.7183
  113SAPC  C31211683   4.399   4.376   4.753  1.0658 -0.1404  0.0289
  113SAPC  H12X11684   4.324   4.451   4.718  1.1311  0.5690  1.3191
  113SAPC  H12Y11685   4.352   4.278   4.775 -0.2165  0.5375  0.4574
  113SAPC  C31311686   4.501   4.380   4.640  0.5199  0.5043  0.8921
  113SAPC  H13X11687   4.588   4.325   4.682  0.3686 -1.1095 -0.8001
  113SAPC  H13Y11688   4.540   4.480   4.610  0.0271  0.2763 -0.5945
  113SAPC  C31411689   4.449   4.324   4.503  0.3718  0.2243 -0.1843
  113SAPC  H14X11690   4.344   4.355   4.480 -0.0551  0.3828  1.8125
  113SAPC  H14Y11691   4.450   4.215   4.525 -2.1910  0.3145  0.6969
  113SAPC  C31511692   4.537   4.343   4.387  0.2068 -0.1396  0.0324
  113SAPC  H15X11693   4.623   4.278   4.414  1.5774  1.0188 -1.3146
  113SAPC  H15Y11694   4.561   4.451   4.376 -0.6399 -0.0859 -1.7137
  113SAPC  C31611695   4.469   4.297   4.259  0.2843  0.3077 -0.3912
  113SAPC  H16X11696   4.381   4.363   4.244 -0.7829 -0.4197  2.1531
  113SAPC  H16Y11697   4.431   4.193   4.266  1.8918 -0.3732 -1.1452
  113SAPC  C31711698   4.562   4.303   4.139 -0.6923 -0.5020 -0.3275
  113SAPC  H17X11699   4.622   4.396   4.133  0.4510 -1.2719 -1.3641
  113SAPC  H17Y11700   4.494   4.304   4.052  2.2955 -0.4374 -2.8419
  113SAPC  C31811701   4.658   4.187   4.139 -0.3602 -0.1214 -0.0991
  113SAPC  H18X11702   4.710   4.176   4.041 -0.6224 -0.7691 -0.1694
  113SAPC  H18Y11703   4.591   4.098   4.136 -2.0559  1.1172 -0.2158
  113SAPC  H18Z11704   4.720   4.180   4.230 -0.0196  0.3776 -0.2908
  114SAPC     N11705   2.863   4.371   6.575  0.9208  0.1330  0.2072
  114SAPC   C1211706   2.797   4.471   6.483  0.0057  0.0745  0.1403
  114SAPC  H12A11707   2.832   4.469   6.381 -1.2372  1.2037 -0.3486
  114SAPC  H12B11708   2.838   4.566   6.513  0.0295  0.4097 -0.8945
  114SAPC   C1311709   2.849   4.237   6.523 -0.2204  0.3745  0.1719
  114SAPC  H13A11710   2.898   4.161   6.582 -2.4318 -1.6782 -0.4481
  114SAPC  H13B11711   2.748   4.199   6.516  0.1237 -0.4051 -0.8087
  114SAPC  H13C11712   2.889   4.232   6.423  1.1100  1.5577  0.6154
  114SAPC   C1411713   3.011   4.401   6.579  0.6733  0.2727  0.5239
  114SAPC  H14A11714   3.067   4.339   6.647  0.4061  0.8684  1.3048
  114SAPC  H14B11715   3.052   4.385   6.481 -1.9368 -0.6284 -0.5129
  114SAPC  H14C11716   3.032   4.501   6.616 -0.4670  0.4521  0.7149
  114SAPC   C1511717   2.809   4.382   6.712 -0.4538  0.1332 -0.3948
  114SAPC  H15A11718   2.856   4.297   6.760 -2.4632 -1.7649 -1.5765
  114SAPC  H15B11719   2.845   4.470   6.763  0.1137 -0.5290  0.3851
  114SAPC  H15C11720   2.701   4.375   6.714 -0.5081  0.7208 -1.1884
  114SAPC   C1111721   2.648   4.484   6.489  0.7524 -0.4568 -0.1181
  114SAPC  H11A11722   2.627   4.568   6.419 -2.6713 -1.9584 -1.0673
  114SAPC  H11B11723   2.610   4.519   6.588  1.7329 -1.5331  0.6779
  114SAPC     P11724   2.452   4.315   6.511  0.2625  0.2541  0.3281
  114SAPC   O1311725   2.442   4.163   6.510 -0.5278  0.3857 -0.2076
  114SAPC   O1411726   2.419   4.381   6.641 -0.4284  0.1634 -0.1939
  114SAPC   O1211727   2.593   4.358   6.448 -0.1064 -0.2990 -0.0609
  114SAPC   O1111728   2.353   4.375   6.404 -0.2284  0.2095  0.2968
  114SAPC    C111729   2.241   4.295   6.361  0.4113  0.3612  0.2882
  114SAPC    HA11730   2.232   4.199   6.416 -1.7400  0.8773  0.9640
  114SAPC    HB11731   2.148   4.349   6.392 -0.8990 -0.3262 -2.1360
  114SAPC    C211732   2.233   4.279   6.203 -0.0871  0.7279 -0.4415
  114SAPC    HS11733   2.314   4.205   6.188 -2.2194 -2.2605  1.7048
  114SAPC   O2111734   2.220   4.412   6.142  0.3364  0.1946  0.0211
  114SAPC   C2111735   2.331   4.432   6.068 -0.1021  0.5914  0.4899
  114SAPC   O2211736   2.420   4.348   6.064  0.0800 -0.0638  0.3826
  114SAPC   C2211737   2.334   4.572   6.001 -0.6051  0.1526  0.9198
  114SAPC   H2R11738   2.234   4.600   5.962 -0.2300  1.7553  1.0298
  114SAPC   H2S11739   2.360   4.651   6.075 -0.2245 -1.2587  2.3591
  114SAPC    C311740   2.106   4.210   6.175  0.0523 -0.0126 -0.4591
  114SAPC    HX11741   2.037   4.279   6.228  4.5876  3.1193  2.0235
  114SAPC    HY11742   2.107   4.114   6.231  1.6441  0.7709  0.9088
  114SAPC   O3111743   2.070   4.192   6.039 -0.5905  0.0796  0.8322
  114SAPC   C3111744   2.009   4.085   6.002 -0.4214 -0.1239 -0.5311
  114SAPC   O3211745   1.982   3.986   6.068  0.2438  0.3049  0.1327
  114SAPC   C3211746   1.965   4.105   5.862 -0.3485  0.5766 -0.5733
  114SAPC   H2X11747   1.860   4.142   5.873 -1.3242 -1.8957 -0.8786
  114SAPC   H2Y11748   1.963   4.005   5.814 -1.2877 -0.5297  1.5991
  114SAPC   C2311749   2.429   4.593   5.878 -0.3274  0.3922  0.0335
  114SAPC   H3R11750   2.407   4.527   5.791 -0.6232 -0.4447  0.7269
  114SAPC   H3S11751   2.535   4.583   5.909 -0.0137  0.6744 -0.9144
  114SAPC   C2411752   2.413   4.741   5.831 -0.2503  0.0324 -0.0414
  114SAPC   H4R11753   2.496   4.769   5.761 -0.4026 -0.1696 -0.3081
  114SAPC   H4S11754   2.407   4.801   5.924  1.2714 -1.8623  1.3678
  114SAPC   C2511755   2.282   4.771   5.755  0.2278  0.6984  0.1281
  114SAPC   H5R11756   2.203   4.785   5.831  1.1139 -2.5056  1.7953
  114SAPC   C2611757   2.250   4.799   5.633 -0.4582  0.0976 -0.1377
  114SAPC   H6R11758   2.145   4.819   5.608 -0.5539  2.3524  1.7222
  114SAPC   C2711759   2.343   4.787   5.508 -0.6162  0.3682 -0.9095
  114SAPC   H7R11760   2.448   4.797   5.545 -0.4270  0.6363 -1.5142
  114SAPC   H7S11761   2.326   4.861   5.428 -1.6499  0.9372 -0.1784
  114SAPC   C2811762   2.337   4.651   5.443  0.0675 -0.2967  0.2720
  114SAPC   H8R11763   2.300   4.571   5.509 -0.5678 -1.4666 -1.4396
  114SAPC   C2911764   2.376   4.611   5.322 -0.3501 -0.8736  0.3036
  114SAPC   H9R11765   2.346   4.514   5.280 -2.0358 -0.2733  0.0605
  114SAPC  C21011766   2.441   4.710   5.225 -0.4142 -0.4332 -0.3068
  114SAPC  H10R11767   2.520   4.655   5.170 -0.3029  1.0639 -1.7322
  114SAPC  H10S11768   2.496   4.798   5.263 -1.5078  1.5682 -3.0364
  114SAPC  C21111769   2.339   4.775   5.132  0.6742 -0.1523  0.0829
  114SAPC  H11R11770   2.235   4.782   5.166  0.3742  0.4414 -0.9203
  114SAPC  C21211771   2.377   4.814   5.012  0.3925  0.3866  0.3758
  114SAPC  H12R11772   2.300   4.851   4.942  0.0923 -0.8457  0.0253
  114SAPC  C21311773   2.521   4.805   4.957  0.7338  0.1913 -0.3909
  114SAPC  H13R11774   2.534   4.744   4.865  1.1028 -0.4163  0.0576
  114SAPC  H13S11775   2.595   4.761   5.027 -0.0049  2.0154  1.6434
  114SAPC  C21411776   2.583   4.948   4.947 -0.4289  0.7809  0.4699
  114SAPC  H14R11777   2.618   4.997   5.039 -2.3787 -2.4713  3.1635
  114SAPC  C21511778   2.596   5.014   4.828  0.3761 -0.2150 -0.8792
  114SAPC  H15R11779   2.624   5.120   4.834  0.4268 -0.2813  0.6482
  114SAPC  C21611780   2.562   4.968   4.693 -0.5205  0.5670  0.3660
  114SAPC  H16R11781   2.475   4.903   4.673  0.6012 -0.7244 -0.4261
  114SAPC  H16S11782   2.639   4.910   4.639 -0.1874  0.4549  0.9562
  114SAPC  C21711783   2.525   5.093   4.604 -0.4620  0.2224 -0.8173
  114SAPC  H17R11784   2.609   5.166   4.612 -0.5891  0.2225  0.8060
  114SAPC  H17S11785   2.432   5.144   4.638  0.9348  1.7132  0.9987
  114SAPC  C21811786   2.495   5.057   4.458 -0.1057 -0.0872 -0.9175
  114SAPC  H18R11787   2.414   4.981   4.462 -0.1012 -0.0412  1.2202
  114SAPC  H18S11788   2.587   5.009   4.418  1.0706 -0.6655  2.2333
  114SAPC  C21911789   2.449   5.181   4.377  0.5030  0.1027 -0.5892
  114SAPC  H19R11790   2.359   5.229   4.421  0.1921 -0.6214 -0.4116
  114SAPC  H19S11791   2.423   5.140   4.277 -0.2849  1.9030 -1.1657
  114SAPC  C22011792   2.557   5.281   4.352 -0.3033 -0.3219 -0.2038
  114SAPC  H20R11793   2.584   5.344   4.440  0.2435  0.3262 -0.8179
  114SAPC  H20S11794   2.528   5.354   4.273 -2.8261  0.5816  1.4323
  114SAPC  H20T11795   2.642   5.228   4.304 -1.0557 -1.1357 -0.6652
  114SAPC   C3311796   2.051   4.201   5.780  0.3717 -0.5173  0.3079
  114SAPC   H3X11797   2.037   4.180   5.672  0.3017 -0.6160  0.3362
  114SAPC   H3Y11798   2.159   4.183   5.798  0.4142 -0.4342  0.1350
  114SAPC   C3411799   2.006   4.348   5.794 -0.1253 -0.1986  0.2488
  114SAPC   H4X11800   2.011   4.369   5.903  0.3783 -0.2591  0.2375
  114SAPC   H4Y11801   1.896   4.360   5.779 -0.2672 -1.0380  0.5596
  114SAPC   C3511802   2.078   4.441   5.702  0.2157 -0.3094  0.1907
  114SAPC   H5X11803   2.185   4.411   5.704  0.1811 -0.4514 -0.1065
  114SAPC   H5Y11804   2.077   4.540   5.753 -0.2882  0.3120 -0.9818
  114SAPC   C3611805   2.017   4.455   5.558  0.2602 -0.5003  0.2387
  114SAPC   H6X11806   2.026   4.561   5.524  2.1436  0.6146  3.7217
  114SAPC   H6Y11807   1.909   4.441   5.575  0.3743  1.0024  2.7062
  114SAPC   C3711808   2.065   4.356   5.452 -0.3725 -0.1183  0.4495
  114SAPC   H7X11809   2.020   4.255   5.462  2.9629 -1.9742 -1.5785
  114SAPC   H7Y11810   2.173   4.344   5.474 -0.0519  1.4758 -0.1133
  114SAPC   C3811811   2.039   4.417   5.311 -0.3817  0.5073 -0.4220
  114SAPC   H8X11812   2.064   4.335   5.240  1.2777  0.9277 -0.3672
  114SAPC   H8Y11813   2.104   4.507   5.313  0.8310 -0.3397  1.5608
  114SAPC   C3911814   1.894   4.446   5.286 -0.4096 -0.7840 -0.4584
  114SAPC   H9X11815   1.884   4.545   5.336  1.8820 -1.4229  1.4551
  114SAPC   H9Y11816   1.825   4.375   5.334 -0.1943 -1.0941 -0.6071
  114SAPC  C31011817   1.855   4.448   5.138 -0.1905 -0.3889 -0.3641
  114SAPC  H10X11818   1.748   4.474   5.126  0.2802  3.5062  2.0016
  114SAPC  H10Y11819   1.888   4.355   5.087  2.0700 -0.2807  0.7595
  114SAPC  C31111820   1.930   4.559   5.066 -0.4284 -0.6402 -0.2018
  114SAPC  H11X11821   2.034   4.530   5.042 -0.7336 -1.0720 -1.0493
  114SAPC  H11Y11822   1.938   4.653   5.126 -0.0993 -0.0026 -1.2177
  114SAPC  C31211823   1.859   4.605   4.938  0.2375 -0.7020 -0.1032
  114SAPC  H12X11824   1.749   4.622   4.945  0.6492  1.7833  2.7643
  114SAPC  H12Y11825   1.870   4.530   4.857 -1.0723  0.7401 -1.7128
  114SAPC  C31311826   1.917   4.727   4.864 -0.0386 -0.2889 -1.0828
  114SAPC  H13X11827   2.028   4.726   4.854  0.4651  0.6469  2.5962
  114SAPC  H13Y11828   1.883   4.808   4.932 -0.2428  0.1664 -1.7273
  114SAPC  C31411829   1.848   4.746   4.729 -0.2061  0.4321  0.1820
  114SAPC  H14X11830   1.862   4.844   4.679 -2.7111  1.0875  0.6409
  114SAPC  H14Y11831   1.738   4.742   4.739 -0.1707 -0.6774  0.2869
  114SAPC  C31511832   1.869   4.636   4.627 -0.6238  0.3459 -0.1239
  114SAPC  H15X11833   1.872   4.532   4.665  1.4147 -0.4553 -2.2316
  114SAPC  H15Y11834   1.965   4.669   4.583 -0.8880 -1.5393 -2.3030
  114SAPC  C31611835   1.763   4.632   4.520  0.3325  0.1231  0.1920
  114SAPC  H16X11836   1.661   4.641   4.563  0.5820  0.1120  0.7925
  114SAPC  H16Y11837   1.764   4.542   4.454 -1.3237  0.2193 -0.0097
  114SAPC  C31711838   1.762   4.750   4.428  0.0791 -0.4191 -0.0078
  114SAPC  H17X11839   1.754   4.841   4.490 -3.0097 -1.1413  0.8301
  114SAPC  H17Y11840   1.662   4.743   4.379 -0.7655  0.5208  1.5212
  114SAPC  C31811841   1.871   4.742   4.327 -0.6733  0.1189 -0.1295
  114SAPC  H18X11842   1.845   4.802   4.237 -1.6293 -1.5322 -1.0189
  114SAPC  H18Y11843   1.887   4.639   4.288  1.6535 -1.2231  3.8628
  114SAPC  H18Z11844   1.965   4.785   4.366 -1.1545  1.6990 -0.6320
  115SAPC     N11845   6.545   0.446   6.414  0.3202  0.1913 -0.0068
  115SAPC   C1211846   6.532   0.551   6.525 -0.1932  0.1172  0.4920
  115SAPC  H12A11847   6.626   0.564   6.576 -0.5582  1.9400  0.7754
  115SAPC  H12B11848   6.466   0.514   6.603  2.6284 -0.0365  2.9609
  115SAPC   C1311849   6.630   0.499   6.298  0.5959  0.2019 -0.0777
  115SAPC  H13A11850   6.582   0.589   6.264  0.3717  1.1714  2.5414
  115SAPC  H13B11851   6.729   0.531   6.328 -0.3860  1.7859  1.7200
  115SAPC  H13C11852   6.638   0.424   6.221  1.1954  0.2076 -0.0256
  115SAPC   C1411853   6.616   0.324   6.467  0.0560 -0.0078 -0.2566
  115SAPC  H14A11854   6.584   0.283   6.561  0.0034 -1.1153 -0.7425
  115SAPC  H14B11855   6.603   0.245   6.395  0.0662 -1.2457  1.0528
  115SAPC  H14C11856   6.718   0.358   6.482 -0.1029  0.9137 -1.1098
  115SAPC   C1511857   6.410   0.406   6.359 -0.2907 -1.3067  0.2600
  115SAPC  H15A11858   6.359   0.489   6.314  0.4163 -0.3777  1.1265
  115SAPC  H15B11859   6.420   0.328   6.285  1.0396  0.7388 -1.8196
  115SAPC  H15C11860   6.342   0.373   6.437 -3.5526 -1.1464 -2.2917
  115SAPC   C1111861   6.468   0.694   6.491  0.0432  0.2893 -0.2515
  115SAPC  H11A11862   6.467   0.758   6.581  0.3951 -0.4668  0.3008
  115SAPC  H11B11863   6.360   0.678   6.472  0.0317 -0.1026  0.1214
  115SAPC     P11864   6.442   0.839   6.277  0.0750  0.0633  0.3071
  115SAPC   O1311865   6.356   0.732   6.219 -0.5792  0.1932 -0.5803
  115SAPC   O1411866   6.377   0.955   6.333  0.3893 -0.4255 -0.1729
  115SAPC   O1211867   6.533   0.767   6.387  0.0345 -0.0566 -0.3133
  115SAPC   O1111868   6.542   0.891   6.160  0.3571  0.2519  0.1405
  115SAPC    C111869   6.687   0.918   6.187  0.0080  0.3323 -0.3422
  115SAPC    HA11870   6.702   0.989   6.271  0.8602 -2.0563  1.6453
  115SAPC    HB11871   6.741   0.824   6.213  0.2301  0.2911 -0.9532
  115SAPC    C211872   6.762   0.960   6.049  0.0986 -0.7616 -0.6925
  115SAPC    HS11873   6.866   0.986   6.078  0.3735 -2.2202 -0.2978
  115SAPC   O2111874   6.701   1.078   5.992 -0.2940  0.0913  0.3515
  115SAPC   C2111875   6.788   1.140   5.906  0.3566 -0.8995  0.6694
  115SAPC   O2211876   6.903   1.121   5.892  0.2748  0.4291  0.0597
  115SAPC   C2211877   6.707   1.264   5.842  0.2006  0.3370  0.0894
  115SAPC   H2R11878   6.716   1.262   5.731  0.4163 -0.6190  0.1128
  115SAPC   H2S11879   6.599   1.237   5.848  0.5178 -1.8845 -2.2580
  115SAPC    C311880   6.767   0.842   5.948 -0.0843  0.7257 -0.2109
  115SAPC    HX11881   6.663   0.807   5.929  1.0138 -1.7484 -2.3487
  115SAPC    HY11882   6.831   0.762   5.990 -0.4751  0.7530  0.4420
  115SAPC   O3111883   6.816   0.885   5.820 -0.6361 -0.1552  0.3752
  115SAPC   C3111884   6.825   0.794   5.722  0.2824  0.6994  0.1528
  115SAPC   O3211885   6.815   0.674   5.738  0.1814  0.2545  0.2728
  115SAPC   C3211886   6.846   0.861   5.588 -0.5298  0.6201  0.8147
  115SAPC   H2X11887   6.941   0.919   5.581  2.0262 -3.1407  1.0331
  115SAPC   H2Y11888   6.755   0.923   5.575 -0.9645 -0.3144 -0.9858
  115SAPC   C2311889   6.746   1.407   5.891 -0.4452 -0.5372 -0.2173
  115SAPC   H3R11890   6.843   1.425   5.839  0.5997 -3.0923  0.6936
  115SAPC   H3S11891   6.771   1.399   5.999  0.3417  1.1360 -0.2407
  115SAPC   C2411892   6.636   1.502   5.859 -0.2023  0.3060 -0.6704
  115SAPC   H4R11893   6.667   1.597   5.908  0.9150  0.4959 -1.6886
  115SAPC   H4S11894   6.548   1.461   5.911 -0.5320  0.7568 -0.8661
  115SAPC   C2511895   6.628   1.521   5.708  0.4022  0.2531  0.8580
  115SAPC   H5R11896   6.720   1.547   5.653  0.8385 -0.6256  1.1422
  115SAPC   C2611897   6.521   1.500   5.636  0.5700 -0.9115  0.4313
  115SAPC   H6R11898   6.525   1.515   5.527 -3.6810 -0.9996  0.1082
  115SAPC   C2711899   6.387   1.453   5.677 -0.4123  0.0145  0.4731
  115SAPC   H7R11900   6.409   1.352   5.720 -0.9340 -2.1486 -3.8242
  115SAPC   H7S11901   6.337   1.430   5.581 -0.0330  0.4944  0.1623
  115SAPC   C2811902   6.302   1.551   5.752 -0.1012 -0.0204 -0.3245
  115SAPC   H8R11903   6.307   1.536   5.861 -0.8497 -0.0946 -0.2984
  115SAPC   C2911904   6.216   1.636   5.696 -0.0709 -0.5907  0.7150
  115SAPC   H9R11905   6.160   1.708   5.759 -0.0682  2.9915 -2.9755
  115SAPC  C21011906   6.189   1.656   5.548 -0.7450  0.2881  0.4063
  115SAPC  H10R11907   6.255   1.586   5.492 -1.6305 -1.7268  1.7596
  115SAPC  H10S11908   6.216   1.758   5.513  1.4439  0.0956  1.4307
  115SAPC  C21111909   6.037   1.614   5.527 -1.0127 -0.2147 -0.3092
  115SAPC  H11R11910   5.973   1.669   5.597  1.4125 -0.5020  2.3233
  115SAPC  C21211911   5.988   1.530   5.436 -0.7484 -0.8340 -0.1052
  115SAPC  H12R11912   5.882   1.503   5.445 -0.9573  0.5114  2.9435
  115SAPC  C21311913   6.065   1.465   5.329 -1.1778  0.1536  0.5730
  115SAPC  H13R11914   6.174   1.487   5.320 -0.7706 -2.1393 -0.9494
  115SAPC  H13S11915   6.017   1.499   5.235  1.0270  1.2399 -0.2376
  115SAPC  C21411916   6.051   1.322   5.334  0.4307  0.6055  0.3155
  115SAPC  H14R11917   6.038   1.276   5.433  1.4202 -1.0952 -0.3076
  115SAPC  C21511918   6.029   1.248   5.221  1.8345  0.0651  0.5651
  115SAPC  H15R11919   5.993   1.144   5.229 -1.3349  1.1087  1.1040
  115SAPC  C21611920   6.022   1.288   5.073  1.0160 -0.0431 -0.2009
  115SAPC  H16R11921   6.044   1.396   5.057  3.1146 -0.6154 -1.6395
  115SAPC  H16S11922   5.923   1.256   5.033  0.2741 -0.6675  2.0078
  115SAPC  C21711923   6.124   1.211   4.987  0.2360  0.5008 -0.1272
  115SAPC  H17R11924   6.092   1.105   4.989  2.2520 -0.1847 -0.9395
  115SAPC  H17S11925   6.230   1.225   5.020  0.4438  1.2717 -1.0629
  115SAPC  C21811926   6.118   1.256   4.836  0.0063  0.6371 -0.3999
  115SAPC  H18R11927   6.154   1.361   4.833 -1.4544  1.1613 -2.7436
  115SAPC  H18S11928   6.009   1.247   4.814 -0.4610 -3.4188  2.5681
  115SAPC  C21911929   6.208   1.173   4.751  0.1356  0.6874  0.6018
  115SAPC  H19R11930   6.176   1.159   4.645 -0.3158  0.9637  0.6985
  115SAPC  H19S11931   6.197   1.069   4.788 -2.4784  0.8179  0.3511
  115SAPC  C22011932   6.359   1.210   4.750 -0.4026  0.2009 -1.3100
  115SAPC  H20R11933   6.416   1.124   4.712  0.2796 -1.1527  2.3336
  115SAPC  H20S11934   6.387   1.243   4.853 -3.1414 -1.1195 -0.0157
  115SAPC  H20T11935   6.370   1.302   4.689 -2.8355  1.6082  0.2015
  115SAPC   C3311936   6.839   0.769   5.465 -0.1860 -0.1863  0.0274
  115SAPC   H3X11937   6.744   0.711   5.474  0.1965 -0.7748  0.3806
  115SAPC   H3Y11938   6.928   0.703   5.456  0.0962  0.1239  0.4987
  115SAPC   C3411939   6.839   0.848   5.336  0.9250  0.5719  0.4085
  115SAPC   H4X11940   6.936   0.897   5.313 -0.0422  1.3011 -2.5857
  115SAPC   H4Y11941   6.776   0.940   5.342  1.5687  1.1002 -0.5727
  115SAPC   C3511942   6.789   0.754   5.220  0.4927  0.8206 -0.2399
  115SAPC   H5X11943   6.697   0.700   5.249 -0.0930  2.5660  1.3564
  115SAPC   H5Y11944   6.870   0.682   5.196  0.6150  0.3374  1.4921
  115SAPC   C3611945   6.752   0.830   5.092  0.4748  0.2176  0.3908
  115SAPC   H6X11946   6.674   0.906   5.114 -0.2654 -0.6029  0.6430
  115SAPC   H6Y11947   6.702   0.760   5.022 -1.7896  0.9727  1.1684
  115SAPC   C3711948   6.875   0.898   5.027 -1.0268 -0.2449  0.1486
  115SAPC   H7X11949   6.911   0.807   4.974  1.0736  0.6994 -0.1185
  115SAPC   H7Y11950   6.951   0.930   5.100 -1.5555  3.2134 -0.6478
  115SAPC   C3811951   6.839   1.023   4.943  0.8560  0.0467  0.6059
  115SAPC   H8X11952   6.931   1.076   4.913  0.5614 -0.6267 -1.7320
  115SAPC   H8Y11953   6.784   1.099   5.002 -0.6994 -0.5542 -0.0054
  115SAPC   C3911954   6.770   0.982   4.815  0.5244  0.3955  0.9485
  115SAPC   H9X11955   6.679   0.929   4.851  0.7537 -1.0501 -0.4863
  115SAPC   H9Y11956   6.827   0.910   4.752 -1.7848  0.7313 -1.7300
  115SAPC  C31011957   6.737   1.093   4.721  0.2581 -0.6996  0.0126
  115SAPC  H10X11958   6.831   1.149   4.702 -0.4465  0.3051 -0.5967
  115SAPC  H10Y11959   6.665   1.168   4.759  2.9175  2.0821  0.0027
  115SAPC  C31111960   6.690   1.033   4.590 -0.4183  0.2247 -0.0843
  115SAPC  H11X11961   6.613   0.960   4.624  1.5569 -0.6479  2.9935
  115SAPC  H11Y11962   6.773   0.978   4.540  1.4178  2.2899  0.5597
  115SAPC  C31211963   6.627   1.127   4.493  0.1707  0.0457 -0.1569
  115SAPC  H12X11964   6.714   1.161   4.432  1.0037 -0.6540  0.6119
  115SAPC  H12Y11965   6.567   1.213   4.530  0.6659  0.2357  0.2277
  115SAPC  C31311966   6.540   1.056   4.390 -0.4431 -0.0093  0.5368
  115SAPC  H13X11967   6.457   1.003   4.440 -0.9861  0.9557  0.6804
  115SAPC  H13Y11968   6.604   0.986   4.332  0.5119  1.1368  0.1586
  115SAPC  C31411969   6.488   1.158   4.288  0.1221 -0.4597  0.2537
  115SAPC  H14X11970   6.464   1.095   4.200 -0.1922 -1.0179  0.7316
  115SAPC  H14Y11971   6.573   1.229   4.278  0.4146 -0.7860  0.3957
  115SAPC  C31511972   6.361   1.231   4.354 -0.3300  0.6137  0.4092
  115SAPC  H15X11973   6.388   1.281   4.450  1.1157  1.3433 -0.3519
  115SAPC  H15Y11974   6.299   1.142   4.377  2.1103 -1.1505  0.5327
  115SAPC  C31611975   6.288   1.335   4.269 -0.5091  1.0175 -0.4590
  115SAPC  H16X11976   6.330   1.435   4.293  1.7688 -0.3239  1.6049
  115SAPC  H16Y11977   6.186   1.327   4.311 -0.2409  1.6042  0.3430
  115SAPC  C31711978   6.294   1.306   4.120  0.1446 -0.2702 -0.5007
  115SAPC  H17X11979   6.237   1.210   4.122 -0.8686  0.3066 -1.0361
  115SAPC  H17Y11980   6.396   1.285   4.080 -0.4274 -0.9014 -1.6867
  115SAPC  C31811981   6.234   1.403   4.015 -0.2256 -0.0135 -0.1272
  115SAPC  H18X11982   6.229   1.508   4.049  0.1892 -0.4854  1.4796
  115SAPC  H18Y11983   6.130   1.368   3.994 -1.0180  1.1948  1.4943
  115SAPC  H18Z11984   6.281   1.383   3.917 -0.7221  1.1768 -0.6284
  116SAPC     N11985   3.440   6.000   6.703  0.0475  0.0776 -0.1426
  116SAPC   C1211986   3.451   6.049   6.559 -0.7559 -0.5171 -0.7316
  116SAPC  H12A11987   3.536   6.116   6.546 -0.7672 -0.0678  1.2276
  116SAPC  H12B11988   3.360   6.103   6.538  0.3639  1.7536 -0.1160
  116SAPC   C1311989   3.310   5.912   6.700 -0.7675 -0.0647  0.5479
  116SAPC  H13A11990   3.310   5.841   6.619 -1.0395  1.0665 -0.4665
  116SAPC  H13B11991   3.312   5.842   6.783 -0.2862 -0.2018  0.4218
  116SAPC  H13C11992   3.219   5.969   6.709 -3.1116 -3.3568 -0.1810
  116SAPC   C1411993   3.556   5.922   6.749  0.0540 -0.8897  0.0656
  116SAPC  H14A11994   3.538   5.865   6.840  2.2219 -0.5796  0.7390
  116SAPC  H14B11995   3.575   5.853   6.668 -0.3157 -1.0884  0.1456
  116SAPC  H14C11996   3.645   5.982   6.758 -1.1463  0.8510  0.8628
  116SAPC   C1511997   3.412   6.112   6.797  0.1229 -0.7614 -0.0342
  116SAPC  H15A11998   3.500   6.175   6.795 -0.0762 -0.5036 -1.4855
  116SAPC  H15B11999   3.326   6.169   6.767  0.8918  0.3220 -0.2320
  116SAPC  H15C12000   3.379   6.095   6.899 -2.6741  2.1196 -0.2943
  116SAPC   C1112001   3.464   5.947   6.451  0.6670 -0.4339  0.1861
  116SAPC  H11A12002   3.453   5.998   6.353  1.3092  0.3487  0.5147
  116SAPC  H11B12003   3.376   5.879   6.448  0.3990 -0.0557 -1.7023
  116SAPC     P12004   3.717   5.923   6.405 -0.5707 -0.4689  0.0465
  116SAPC   O1312005   3.719   6.069   6.410  0.2789 -0.1696 -0.4801
  116SAPC   O1412006   3.824   5.848   6.471 -0.2012  0.1129  0.1774
  116SAPC   O1212007   3.577   5.871   6.465  0.5766  0.3096  0.2284
  116SAPC   O1112008   3.711   5.879   6.249 -0.1952  0.2679 -0.0940
  116SAPC    C112009   3.672   5.746   6.212  0.3023  0.5729 -0.0874
  116SAPC    HA12010   3.755   5.674   6.230 -1.7000 -2.4755 -2.0644
  116SAPC    HB12011   3.578   5.704   6.254 -0.8271  1.0454 -2.0452
  116SAPC    C212012   3.631   5.731   6.067  0.4935  0.1550  0.6042
  116SAPC    HS12013   3.604   5.625   6.052  1.2174 -0.0545  0.7108
  116SAPC   O2112014   3.740   5.768   5.973 -0.3365  0.3389 -0.4722
  116SAPC   C2112015   3.832   5.672   5.966  0.0574  0.7877 -0.4416
  116SAPC   O2212016   3.835   5.571   6.034  0.7574  0.6146  1.2470
  116SAPC   C2212017   3.936   5.710   5.860  0.2928 -0.0964 -0.0464
  116SAPC   H2R12018   3.895   5.700   5.758 -1.4484 -2.2124  0.7949
  116SAPC   H2S12019   3.957   5.818   5.875 -0.6592  0.0938 -0.0206
  116SAPC    C312020   3.509   5.823   6.018 -0.4825 -0.4526 -0.0813
  116SAPC    HX12021   3.537   5.927   6.048 -2.9343  0.4098 -0.5442
  116SAPC    HY12022   3.415   5.788   6.066 -1.0245 -0.6053 -1.2149
  116SAPC   O3112023   3.493   5.819   5.876 -0.0662  0.8397 -0.2087
  116SAPC   C3112024   3.372   5.863   5.839 -0.6280 -0.1823 -0.1020
  116SAPC   O3212025   3.302   5.930   5.908 -0.4928  0.1711  0.4308
  116SAPC   C3212026   3.343   5.828   5.697 -0.3737 -0.4731  0.3647
  116SAPC   H2X12027   3.269   5.895   5.647 -0.1247 -0.7448 -0.3934
  116SAPC   H2Y12028   3.299   5.726   5.701 -1.9917  0.0134 -2.3613
  116SAPC   C2312029   4.062   5.623   5.875 -0.1437 -0.1617  0.3512
  116SAPC   H3R12030   4.034   5.515   5.877 -0.6710 -0.0238  0.7221
  116SAPC   H3S12031   4.113   5.639   5.972  1.7251 -0.8056 -0.4911
  116SAPC   C2412032   4.158   5.654   5.761  0.3834  0.0015 -0.6960
  116SAPC   H4R12033   4.112   5.635   5.662  2.2801  1.1888 -1.8854
  116SAPC   H4S12034   4.246   5.590   5.785  0.7775  1.4783  2.1894
  116SAPC   C2512035   4.205   5.795   5.769  0.0106 -0.2975 -0.7926
  116SAPC   H5R12036   4.258   5.834   5.858 -1.7257 -1.8640  1.0309
  116SAPC   C2612037   4.190   5.889   5.675 -1.0180 -0.0610  0.5385
  116SAPC   H6R12038   4.223   5.991   5.698 -0.7692  0.0059 -0.1102
  116SAPC   C2712039   4.115   5.878   5.539 -0.0555  0.6571  0.0396
  116SAPC   H7R12040   4.067   5.970   5.500 -0.3151 -0.2529 -1.9287
  116SAPC   H7S12041   4.024   5.814   5.548  0.7093 -0.2853  1.6452
  116SAPC   C2812042   4.197   5.810   5.435  0.9761 -0.0390  0.1997
  116SAPC   H8R12043   4.237   5.710   5.456  0.6744 -0.6242 -1.8193
  116SAPC   C2912044   4.226   5.865   5.313 -0.5007 -0.5658 -0.8348
  116SAPC   H9R12045   4.304   5.814   5.255  1.2804 -1.3336  2.0162
  116SAPC  C21012046   4.196   6.003   5.267  0.8382  0.7563  0.8555
  116SAPC  H10R12047   4.276   6.079   5.285  2.1917 -0.3779 -0.1904
  116SAPC  H10S12048   4.104   6.041   5.318 -0.7198  0.4822 -1.6059
  116SAPC  C21112049   4.161   6.010   5.120  0.0677  0.6242 -0.4852
  116SAPC  H11R12050   4.246   6.021   5.051 -0.7881  0.4788 -1.5771
  116SAPC  C21212051   4.043   5.992   5.054 -0.3942  0.3959 -0.9833
  116SAPC  H12R12052   4.040   5.996   4.944  1.0653 -0.2645 -1.0645
  116SAPC  C21312053   3.901   5.974   5.115  0.1317  0.3931  0.3997
  116SAPC  H13R12054   3.903   5.930   5.217  0.5290 -3.9178 -1.2883
  116SAPC  H13S12055   3.852   5.899   5.051  0.0171  0.0966  0.8280
  116SAPC  C21412056   3.834   6.108   5.113 -0.6631  0.2885  0.0008
  116SAPC  H14R12057   3.848   6.174   5.026 -2.1698  3.3807  1.9534
  116SAPC  C21512058   3.766   6.166   5.211  0.0575 -0.3830 -0.0440
  116SAPC  H15R12059   3.729   6.269   5.197 -0.9530 -0.7041  0.2159
  116SAPC  C21612060   3.726   6.113   5.342 -0.1023 -0.1721  0.3242
  116SAPC  H16R12061   3.719   6.002   5.337 -2.3603 -0.0602 -0.0298
  116SAPC  H16S12062   3.621   6.139   5.368  0.0797 -0.7535  1.7372
  116SAPC  C21712063   3.827   6.143   5.454 -0.4443  0.5101 -0.2347
  116SAPC  H17R12064   3.825   6.253   5.472 -1.5265  0.6470 -1.0339
  116SAPC  H17S12065   3.929   6.112   5.426 -0.1518  2.1200 -1.1037
  116SAPC  C21812066   3.782   6.074   5.582 -0.7328 -0.2374 -0.1623
  116SAPC  H18R12067   3.783   5.966   5.557 -0.1212 -0.1669 -0.4595
  116SAPC  H18S12068   3.681   6.112   5.609 -1.4830 -1.8098 -0.6692
  116SAPC  C21912069   3.867   6.096   5.710  0.4160  0.3011 -0.3613
  116SAPC  H19R12070   3.872   6.205   5.731  0.1004  0.3767 -0.6525
  116SAPC  H19S12071   3.972   6.060   5.703  0.0723 -0.7159 -0.4998
  116SAPC  C22012072   3.785   6.027   5.827 -0.4133 -0.2155  0.6443
  116SAPC  H20R12073   3.847   5.999   5.915  1.2962  0.4294 -0.2929
  116SAPC  H20S12074   3.713   5.948   5.795 -1.8475  1.3743 -0.1993
  116SAPC  H20T12075   3.715   6.102   5.868 -0.5307  0.4904 -0.7879
  116SAPC   C3312076   3.458   5.834   5.601 -1.1010 -0.1756 -0.4684
  116SAPC   H3X12077   3.538   5.763   5.630 -0.8707  1.0297  2.1074
  116SAPC   H3Y12078   3.505   5.933   5.621 -0.6511 -0.5249  0.2398
  116SAPC   C3412079   3.439   5.810   5.452 -0.3816 -0.0562 -0.5473
  116SAPC   H4X12080   3.408   5.704   5.452 -0.4163 -0.0680  0.9068
  116SAPC   H4Y12081   3.538   5.821   5.402 -0.3565  1.1918 -0.2626
  116SAPC   C3512082   3.342   5.893   5.374  0.2615  0.1884  0.9424
  116SAPC   H5X12083   3.347   6.001   5.397  0.7629  0.6041 -0.9424
  116SAPC   H5Y12084   3.239   5.863   5.404 -0.0535  0.3639  0.0557
  116SAPC   C3612085   3.353   5.865   5.222 -0.2698  0.9626  0.2565
  116SAPC   H6X12086   3.252   5.889   5.182 -1.1504  0.4276  2.0418
  116SAPC   H6Y12087   3.364   5.754   5.213 -1.1475  0.9857 -1.5114
  116SAPC   C3712088   3.462   5.941   5.152 -0.4660  0.4785  0.6132
  116SAPC   H7X12089   3.564   5.924   5.192 -0.4622 -0.8597  0.0936
  116SAPC   H7Y12090   3.438   6.048   5.170 -1.3162  0.3954  0.0451
  116SAPC   C3812091   3.464   5.905   5.002 -0.5082  0.0556  0.9491
  116SAPC   H8X12092   3.494   5.800   4.984 -1.2814 -0.6708  3.4985
  116SAPC   H8Y12093   3.549   5.965   4.964 -0.7990 -0.1625 -0.0849
  116SAPC   C3912094   3.340   5.960   4.927 -0.7407  0.4495 -0.2413
  116SAPC   H9X12095   3.345   6.069   4.946  1.3981  0.0657  1.8391
  116SAPC   H9Y12096   3.238   5.926   4.955 -2.0206  3.4997 -0.7656
  116SAPC  C31012097   3.359   5.929   4.774 -0.3290 -0.2583  0.1173
  116SAPC  H10X12098   3.371   5.819   4.765  1.6469 -0.0507 -0.0999
  116SAPC  H10Y12099   3.449   5.978   4.733 -0.6463 -1.2176 -1.8281
  116SAPC  C31112100   3.244   5.959   4.689  0.6882 -0.9329  0.6221
  116SAPC  H11X12101   3.226   6.068   4.677 -2.6699 -1.6967 -4.0478
  116SAPC  H11Y12102   3.152   5.924   4.740 -0.9565  0.1590 -1.4328
  116SAPC  C31212103   3.243   5.895   4.547  0.1758 -0.0247 -0.4998
  116SAPC  H12X12104   3.148   5.917   4.494 -0.7705 -1.5991  0.4856
  116SAPC  H12Y12105   3.246   5.785   4.558  0.9244 -0.0820 -1.2428
  116SAPC  C31312106   3.357   5.940   4.460 -0.7133  0.0177  0.5534
  116SAPC  H13X12107   3.454   5.947   4.515 -0.2295  0.5807 -0.3383
  116SAPC  H13Y12108   3.343   6.047   4.435  1.7405  0.1798 -0.4125
  116SAPC  C31412109   3.365   5.864   4.322 -0.1220 -1.2670 -0.2523
  116SAPC  H14X12110   3.462   5.903   4.283 -0.2667  1.3700  1.7138
  116SAPC  H14Y12111   3.284   5.900   4.255 -0.5017  1.2764  1.4157
  116SAPC  C31512112   3.367   5.710   4.335  0.0503  0.6656 -0.6664
  116SAPC  H15X12113   3.261   5.683   4.351 -0.0382  0.0800 -2.1274
  116SAPC  H15Y12114   3.422   5.668   4.422 -1.1311 -0.1129 -0.2715
  116SAPC  C31612115   3.400   5.648   4.206 -0.7131 -0.5380 -0.6549
  116SAPC  H16X12116   3.503   5.680   4.179 -0.8959 -0.0827 -0.8137
  116SAPC  H16Y12117   3.332   5.707   4.141  0.0305  0.7143 -0.3409
  116SAPC  C31712118   3.394   5.492   4.201 -0.0611 -0.3662  0.0080
  116SAPC  H17X12119   3.463   5.461   4.283 -2.4287  1.2519  2.8216
  116SAPC  H17Y12120   3.423   5.449   4.103  0.0992 -0.0613 -0.0785
  116SAPC  C31812121   3.257   5.439   4.240  0.0178 -0.3461 -0.6626
  116SAPC  H18X12122   3.267   5.335   4.202  1.1241 -0.3352 -0.4264
  116SAPC  H18Y12123   3.184   5.505   4.188  0.1173 -1.0459 -1.7106
  116SAPC  H18Z12124   3.233   5.439   4.348  1.4523 -0.5143 -0.3310
  117SAPC     N12125   6.402   3.738   6.206 -0.4658 -0.1276 -0.8197
  117SAPC   C1212126   6.465   3.730   6.070 -0.1298  0.3998  0.2026
  117SAPC  H12A12127   6.401   3.674   6.005  1.8021 -0.4386 -1.0774
  117SAPC  H12B12128   6.560   3.678   6.070 -0.5742 -0.4316 -0.3745
  117SAPC   C1312129   6.378   3.597   6.251 -0.3868 -0.0860  0.0212
  117SAPC  H13A12130   6.469   3.541   6.268  0.6691  1.1613 -1.3217
  117SAPC  H13B12131   6.315   3.591   6.339  0.1326  1.5256  0.5291
  117SAPC  H13C12132   6.319   3.545   6.176  0.9745 -1.4345 -0.1682
  117SAPC   C1412133   6.499   3.797   6.310  0.5595 -0.0639  0.5351
  117SAPC  H14A12134   6.580   3.727   6.321  0.1752 -1.1627 -2.6448
  117SAPC  H14B12135   6.548   3.883   6.267 -1.4611 -0.1986 -2.2760
  117SAPC  H14C12136   6.441   3.808   6.401 -2.0263  0.7789 -1.1027
  117SAPC   C1512137   6.277   3.818   6.211  0.3450 -0.7028  0.7781
  117SAPC  H15A12138   6.214   3.803   6.298 -0.8799  2.8242  0.6547
  117SAPC  H15B12139   6.298   3.924   6.216 -1.0977 -0.3364 -0.3719
  117SAPC  H15C12140   6.230   3.812   6.114 -0.4586 -0.1209  1.1206
  117SAPC   C1112141   6.485   3.867   5.997  0.6245  1.0257  0.5884
  117SAPC  H11A12142   6.387   3.917   5.981 -0.2264 -0.3333  1.3055
  117SAPC  H11B12143   6.526   3.845   5.896 -1.4330  3.2837 -0.8341
  117SAPC     P12144   6.610   4.094   6.070  0.5174 -0.3633  0.0255
  117SAPC   O1312145   6.511   4.172   6.149  0.2605  0.5071  0.2812
  117SAPC   O1412146   6.749   4.119   6.106 -0.0109 -0.0920  0.0776
  117SAPC   O1212147   6.578   3.943   6.073 -0.0925  0.8777  0.0742
  117SAPC   O1112148   6.593   4.120   5.917  0.0110  0.3531 -0.4233
  117SAPC    C112149   6.675   4.221   5.861 -0.0108 -0.2123 -0.0627
  117SAPC    HA12150   6.782   4.199   5.881  1.0259  0.7404 -3.7703
  117SAPC    HB12151   6.676   4.216   5.750  2.7110  1.7014 -0.2198
  117SAPC    C212152   6.624   4.363   5.891  0.0904 -0.0800 -0.2684
  117SAPC    HS12153   6.619   4.371   6.002  3.0554 -0.0787 -0.0779
  117SAPC   O2112154   6.508   4.379   5.816  0.4459  0.1902  0.1630
  117SAPC   C2112155   6.421   4.469   5.870  0.3636  0.0177 -0.2281
  117SAPC   O2212156   6.439   4.536   5.971  0.2213  0.2308 -0.6530
  117SAPC   C2212157   6.302   4.496   5.782  0.0457 -1.2076 -0.9043
  117SAPC   H2R12158   6.256   4.399   5.754 -2.7226 -0.0974 -0.5128
  117SAPC   H2S12159   6.234   4.556   5.846  0.6743 -1.0683 -0.3678
  117SAPC    C312160   6.728   4.468   5.851  0.4906  0.9684  0.2145
  117SAPC    HX12161   6.807   4.489   5.927  1.5140  0.0582 -0.5570
  117SAPC    HY12162   6.672   4.561   5.831  1.0511  1.0895 -0.8035
  117SAPC   O3112163   6.795   4.429   5.737  0.0237  0.2066  0.4108
  117SAPC   C3112164   6.804   4.515   5.630 -0.7261  0.2032 -1.0497
  117SAPC   O3212165   6.763   4.627   5.633  0.3130  0.3342  0.9198
  117SAPC   C3212166   6.881   4.443   5.520  0.0713 -0.7442 -0.2974
  117SAPC   H2X12167   6.837   4.342   5.502  0.0615 -0.7685 -0.1417
  117SAPC   H2Y12168   6.989   4.439   5.546 -0.0400 -1.3350  0.0907
  117SAPC   C2312169   6.336   4.564   5.650  0.0150  0.4646 -0.3121
  117SAPC   H3R12170   6.250   4.539   5.583 -0.2062 -2.0350  0.8003
  117SAPC   H3S12171   6.434   4.528   5.612  1.2954  1.2665  2.0327
  117SAPC   C2412172   6.344   4.716   5.666 -0.6263  0.8714 -0.7719
  117SAPC   H4R12173   6.411   4.743   5.581 -0.9166 -0.3685 -1.4185
  117SAPC   H4S12174   6.397   4.736   5.762  1.2421  0.7496 -1.7193
  117SAPC   C2512175   6.211   4.784   5.671  0.5847  0.5914 -0.7907
  117SAPC   H5R12176   6.139   4.748   5.745  1.4135  0.5845  0.0352
  117SAPC   C2612177   6.176   4.874   5.574 -0.9502 -0.8570  0.3490
  117SAPC   H6R12178   6.089   4.940   5.592 -1.1610 -1.0535  0.0771
  117SAPC   C2712179   6.256   4.922   5.455 -0.8759  0.2995  0.5658
  117SAPC   H7R12180   6.352   4.868   5.448 -0.0248  1.5600  1.9054
  117SAPC   H7S12181   6.295   5.024   5.476  0.9679 -0.3756  0.6171
  117SAPC   C2812182   6.166   4.914   5.334 -0.2409 -0.8199 -1.3037
  117SAPC   H8R12183   6.074   4.973   5.346  0.8568  1.0845 -1.8849
  117SAPC   C2912184   6.195   4.866   5.216  0.5001  0.0770 -0.5334
  117SAPC   H9R12185   6.117   4.884   5.140 -0.9093 -1.2890  0.5369
  117SAPC  C21012186   6.323   4.812   5.163 -0.6508  0.0949  0.6814
  117SAPC  H10R12187   6.405   4.820   5.237  0.8721  1.1067 -1.0366
  117SAPC  H10S12188   6.354   4.881   5.082  0.5204  0.5758  1.5222
  117SAPC  C21112189   6.296   4.676   5.107  0.1039 -0.4871 -0.1824
  117SAPC  H11R12190   6.313   4.599   5.184 -1.3272  1.1279  1.8621
  117SAPC  C21212191   6.264   4.637   4.981  0.7624  0.0148 -0.2834
  117SAPC  H12R12192   6.260   4.531   4.954  0.7286  0.6439 -3.1530
  117SAPC  C21312193   6.234   4.732   4.870  0.0542  0.2323 -0.3927
  117SAPC  H13R12194   6.312   4.704   4.796  1.9037 -1.0218  1.8946
  117SAPC  H13S12195   6.254   4.837   4.899  0.1421  0.2508 -0.5169
  117SAPC  C21412196   6.094   4.724   4.822  0.3677  0.0280  0.2607
  117SAPC  H14R12197   6.017   4.727   4.901 -2.8519 -2.2643 -2.4904
  117SAPC  C21512198   6.050   4.679   4.705  0.4388 -0.1314  0.6482
  117SAPC  H15R12199   5.942   4.685   4.687  0.4413 -1.3169  0.1072
  117SAPC  C21612200   6.140   4.639   4.595 -0.5009  0.7247 -0.1853
  117SAPC  H16R12201   6.225   4.708   4.580 -0.0319  0.7368  2.0996
  117SAPC  H16S12202   6.083   4.654   4.501 -1.1520  1.8943  0.3628
  117SAPC  C21712203   6.207   4.495   4.603  0.2903 -0.9031 -0.1812
  117SAPC  H17R12204   6.123   4.425   4.623 -1.2543  1.0488  0.4753
  117SAPC  H17S12205   6.273   4.498   4.692 -1.0881 -0.9316  0.8707
  117SAPC  C21812206   6.265   4.449   4.476  0.1081 -0.3613 -0.2041
  117SAPC  H18R12207   6.363   4.500   4.463 -0.9684  2.0394  0.5564
  117SAPC  H18S12208   6.205   4.467   4.385  1.6140 -1.6443 -1.5107
  117SAPC  C21912209   6.279   4.291   4.475  0.3778 -0.0450  0.0558
  117SAPC  H19R12210   6.181   4.241   4.459  0.1701  0.5709 -0.6588
  117SAPC  H19S12211   6.335   4.257   4.565  0.0453  2.7149  1.4042
  117SAPC  C22012212   6.367   4.248   4.353 -0.1035  0.6292  0.1695
  117SAPC  H20R12213   6.388   4.139   4.348  3.7669  1.2841 -0.5154
  117SAPC  H20S12214   6.467   4.297   4.355  0.0052  0.3875  1.5098
  117SAPC  H20T12215   6.312   4.267   4.258  0.8187 -0.8631 -0.6957
  117SAPC   C3312216   6.876   4.522   5.384  0.1431 -0.4460  0.6730
  117SAPC   H3X12217   6.943   4.610   5.393 -0.5474  0.4587 -2.1770
  117SAPC   H3Y12218   6.781   4.572   5.356  0.4185  0.2118  0.9017
  117SAPC   C3412219   6.938   4.438   5.270 -0.0408  0.7159  0.5283
  117SAPC   H4X12220   6.863   4.364   5.235 -1.7659  2.6454 -0.0835
  117SAPC   H4Y12221   7.029   4.390   5.311  0.7530  2.3792  0.8142
  117SAPC   C3512222   6.976   4.524   5.153  0.4673  0.5706 -0.2913
  117SAPC   H5X12223   7.062   4.583   5.190 -0.2539  1.0572  0.6588
  117SAPC   H5Y12224   6.893   4.584   5.110 -1.3272 -0.8369  1.0701
  117SAPC   C3612225   7.037   4.439   5.043 -0.4148 -0.4149 -0.7620
  117SAPC   H6X12226   6.963   4.357   5.033 -1.5189  0.2600  1.4475
  117SAPC   H6Y12227   7.135   4.394   5.069 -0.8390 -1.1211 -0.3663
  117SAPC   C3712228   7.035   4.525   4.914 -0.0652  0.3969  0.8959
  117SAPC   H7X12229   7.112   4.603   4.933  0.3094  0.9442 -2.2716
  117SAPC   H7Y12230   6.939   4.581   4.904 -0.2358 -0.1783 -1.3930
  117SAPC   C3812231   7.059   4.444   4.790 -0.5168  0.0202  0.0980
  117SAPC   H8X12232   6.981   4.367   4.776 -2.9309  2.2113  0.6915
  117SAPC   H8Y12233   7.141   4.374   4.818 -1.0722 -1.0117 -0.7983
  117SAPC   C3912234   7.086   4.520   4.662  0.2491 -0.0939 -0.7233
  117SAPC   H9X12235   6.995   4.580   4.640  0.7505  2.0391  2.3420
  117SAPC   H9Y12236   7.108   4.445   4.583  1.0989 -0.6167 -0.0094
  117SAPC  C31012237   7.203   4.622   4.684  0.7225  0.5329  0.0478
  117SAPC  H10X12238   7.276   4.569   4.750  1.2095 -0.9881 -1.6310
  117SAPC  H10Y12239   7.161   4.705   4.744 -0.0493 -0.8924  1.5583
  117SAPC  C31112240   7.253   4.691   4.555  0.5197  0.4911  0.2103
  117SAPC  H11X12241   7.166   4.714   4.490 -1.6517 -2.6618  1.7204
  117SAPC  H11Y12242   7.328   4.631   4.500  2.3871  2.4798  0.4779
  117SAPC  C31212243   7.341   4.807   4.590 -0.2021  0.0885 -0.2348
  117SAPC  H12X12244   7.297   4.875   4.667 -1.3138 -0.1298 -0.6521
  117SAPC  H12Y12245   7.367   4.855   4.493 -1.6507 -1.4166 -1.4183
  117SAPC  C31312246   7.478   4.770   4.669 -0.1072  0.0314 -0.2505
  117SAPC  H13X12247   7.457   4.686   4.739  0.0337  2.0400  2.3618
  117SAPC  H13Y12248   7.520   4.853   4.731  0.9078 -0.6934  0.0585
  117SAPC  C31412249   7.586   4.719   4.571  0.7971  0.0759  0.0649
  117SAPC  H14X12250   7.536   4.645   4.505 -0.5961  0.0874  1.0537
  117SAPC  H14Y12251   7.673   4.680   4.629  0.5414 -2.2439 -1.0156
  117SAPC  C31512252   7.660   4.825   4.485 -0.1028 -0.4154  0.8292
  117SAPC  H15X12253   7.717   4.894   4.551 -4.3639  0.6653  3.8081
  117SAPC  H15Y12254   7.586   4.886   4.429  3.6558  1.5861 -2.4469
  117SAPC  C31612255   7.733   4.766   4.366 -0.6232 -0.0375 -0.0592
  117SAPC  H16X12256   7.651   4.728   4.301 -0.2431  0.3267 -0.7617
  117SAPC  H16Y12257   7.805   4.687   4.398 -1.3457 -1.0080 -0.7764
  117SAPC  C31712258   7.822   4.871   4.303 -0.2810  0.1448  0.4681
  117SAPC  H17X12259   7.896   4.891   4.383 -1.8644  0.4330  1.9108
  117SAPC  H17Y12260   7.763   4.962   4.279  1.6568  1.2700 -0.3131
  117SAPC  C31812261   7.882   4.824   4.172 -0.2375 -0.2901 -0.2303
  117SAPC  H18X12262   7.969   4.892   4.157 -0.2287  0.0010  1.0008
  117SAPC  H18Y12263   7.829   4.848   4.077  0.2777 -0.3545 -0.5392
  117SAPC  H18Z12264   7.895   4.715   4.185  1.5200 -0.0765  0.0004
  118SAPC     N12265   2.286   6.256   6.531 -0.6182 -0.0607 -0.0964
  118SAPC   C1212266   2.213   6.274   6.395 -0.0448  0.3125 -0.5490
  118SAPC  H12A12267   2.107   6.254   6.404  0.3409 -1.0541  1.6124
  118SAPC  H12B12268   2.249   6.203   6.322 -0.2888 -0.7743  0.3653
  118SAPC   C1312269   2.247   6.121   6.588  0.2494 -0.6924 -0.4804
  118SAPC  H13A12270   2.246   6.042   6.515 -1.1644 -1.1535 -0.0017
  118SAPC  H13B12271   2.320   6.108   6.666  0.8085  0.9266 -0.7026
  118SAPC  H13C12272   2.145   6.129   6.622  0.2937  0.4338 -0.5883
  118SAPC   C1412273   2.432   6.241   6.511 -0.0886 -0.6196  0.3317
  118SAPC  H14A12274   2.488   6.210   6.598 -1.3694  0.2188  1.4909
  118SAPC  H14B12275   2.455   6.175   6.429  0.0873  2.2723 -2.1075
  118SAPC  H14C12276   2.472   6.340   6.494  3.2878 -1.5895  1.8058
  118SAPC   C1512277   2.254   6.362   6.627 -0.3116 -0.7066 -0.0646
  118SAPC  H15A12278   2.307   6.347   6.720 -0.2280  3.7828  0.8668
  118SAPC  H15B12279   2.278   6.461   6.589  0.2366 -2.1519 -3.9006
  118SAPC  H15C12280   2.151   6.372   6.656 -0.0605  1.1498  0.3386
  118SAPC   C1112281   2.224   6.419   6.326  0.5284  0.0407 -0.0791
  118SAPC  H11A12282   2.210   6.400   6.218 -0.9659 -1.0020  0.2692
  118SAPC  H11B12283   2.329   6.457   6.333  0.2907  0.5458  0.9251
  118SAPC     P12284   1.973   6.482   6.357 -0.0101  0.4475 -0.2899
  118SAPC   O1312285   1.927   6.379   6.452 -0.0524  0.5525 -0.6985
  118SAPC   O1412286   1.911   6.614   6.375 -0.3358 -0.3652 -0.0322
  118SAPC   O1212287   2.132   6.510   6.380  0.1462  0.4739  0.2007
  118SAPC   O1112288   1.950   6.422   6.207 -0.4957  0.1981  0.3748
  118SAPC    C112289   1.979   6.501   6.091  0.2657 -0.1100 -0.0392
  118SAPC    HA12290   1.928   6.600   6.086  2.8366  1.2663 -2.1584
  118SAPC    HB12291   2.089   6.515   6.082  0.4824  0.4642  2.7814
  118SAPC    C212292   1.922   6.431   5.968 -0.4175  0.0702  0.1276
  118SAPC    HS12293   1.814   6.404   5.971  0.1322 -3.1282 -2.8325
  118SAPC   O2112294   2.004   6.310   5.943  0.9016  0.4246 -0.7625
  118SAPC   C2112295   1.926   6.208   5.902 -0.3773  0.4041 -0.3340
  118SAPC   O2212296   1.804   6.208   5.904 -0.0731  0.4304 -0.3854
  118SAPC   C2212297   2.016   6.092   5.853 -0.4123 -0.0191  0.4322
  118SAPC   H2R12298   2.106   6.081   5.916 -1.6459 -2.6254  1.8994
  118SAPC   H2S12299   1.959   5.998   5.873  1.0900 -1.1433 -0.4211
  118SAPC    C312300   1.932   6.520   5.836 -0.5136  0.3478  0.5337
  118SAPC    HX12301   2.037   6.548   5.812 -0.2121 -0.9291  0.2916
  118SAPC    HY12302   1.881   6.617   5.850 -2.6894 -0.7533  0.6039
  118SAPC   O3112303   1.873   6.442   5.723 -0.6811 -0.2904  0.1824
  118SAPC   C3112304   1.737   6.470   5.713 -0.2141  0.2654 -0.3916
  118SAPC   O3212305   1.677   6.565   5.763 -0.0249  0.0035 -0.1192
  118SAPC   C3212306   1.677   6.351   5.640  0.4910  0.6447  0.4892
  118SAPC   H2X12307   1.615   6.288   5.707 -0.0666  0.1494 -0.4643
  118SAPC   H2Y12308   1.757   6.285   5.601  1.8593  3.6167 -2.2510
  118SAPC   C2312309   2.013   6.083   5.700  0.4284  0.1272  0.3875
  118SAPC   H3R12310   1.907   6.079   5.667  1.1298 -0.3685 -1.9562
  118SAPC   H3S12311   2.047   5.979   5.677  2.3052  0.1407  2.6993
  118SAPC   C2412312   2.094   6.186   5.619  0.3720 -0.8108  0.7523
  118SAPC   H4R12313   2.202   6.183   5.642  0.3632  0.6760  1.0534
  118SAPC   H4S12314   2.055   6.286   5.648 -2.4296 -1.5590 -0.1021
  118SAPC   C2512315   2.093   6.161   5.467  0.6311  0.8630  0.0580
  118SAPC   H5R12316   2.158   6.075   5.444 -0.0716  0.3001  0.1601
  118SAPC   C2612317   2.030   6.216   5.362 -0.3892 -0.3920  0.4335
  118SAPC   H6R12318   2.069   6.179   5.266 -1.4532  1.6167 -0.8458
  118SAPC   C2712319   1.948   6.342   5.371  0.1212 -0.4988  0.9276
  118SAPC   H7R12320   1.946   6.369   5.479 -1.9409 -1.3526  1.1535
  118SAPC   H7S12321   1.841   6.321   5.349  0.4221 -0.3647 -0.8409
  118SAPC   C2812322   2.003   6.461   5.292 -0.1641 -0.4349 -0.0269
  118SAPC   H8R12323   2.028   6.546   5.358  1.0692 -1.3920  0.7642
  118SAPC   C2912324   2.039   6.470   5.168 -0.1734 -0.2924  0.3584
  118SAPC   H9R12325   2.081   6.563   5.124 -1.4931 -0.5014 -1.4767
  118SAPC  C21012326   2.043   6.361   5.062 -0.4901  0.2172  0.1375
  118SAPC  H10R12327   2.072   6.262   5.104 -2.4106 -0.2378  0.4999
  118SAPC  H10S12328   2.122   6.384   4.987  0.8818 -0.0146  1.4725
  118SAPC  C21112329   1.912   6.340   4.987 -0.0232  0.2933  0.9271
  118SAPC  H11R12330   1.819   6.335   5.046  0.3749  0.4277  1.5759
  118SAPC  C21212331   1.900   6.325   4.854  0.2223  0.2745 -0.3331
  118SAPC  H12R12332   1.800   6.310   4.810 -0.5620 -2.3857  2.0737
  118SAPC  C21312333   2.013   6.350   4.756 -0.1118  0.0441  0.4410
  118SAPC  H13R12334   2.071   6.256   4.741  1.0557  0.8899 -0.6834
  118SAPC  H13S12335   2.081   6.427   4.798 -0.8141  0.2482  1.2237
  118SAPC  C21412336   1.959   6.400   4.622 -0.1457 -0.0611  1.0090
  118SAPC  H14R12337   1.879   6.475   4.615  1.3985  1.4991 -1.6283
  118SAPC  C21512338   2.003   6.372   4.498 -0.3694 -0.4962 -0.1499
  118SAPC  H15R12339   1.944   6.405   4.411 -0.3986 -0.0360  0.0420
  118SAPC  C21612340   2.112   6.276   4.462 -0.5118 -0.0949 -0.0064
  118SAPC  H16R12341   2.155   6.241   4.558 -2.2574 -0.4444  0.6828
  118SAPC  H16S12342   2.192   6.335   4.411  0.3287  2.7490  4.0987
  118SAPC  C21712343   2.067   6.152   4.372 -0.5065 -0.1344  0.3924
  118SAPC  H17R12344   1.987   6.094   4.424 -2.4745 -0.0448 -2.3061
  118SAPC  H17S12345   2.145   6.078   4.345 -0.3559  0.5867 -1.2860
  118SAPC  C21812346   1.982   6.186   4.246  1.0993 -0.4854  0.0980
  118SAPC  H18R12347   1.894   6.248   4.277 -0.7217 -0.7233 -3.9381
  118SAPC  H18S12348   1.944   6.091   4.204  1.5224 -1.1558  1.1986
  118SAPC  C21912349   2.067   6.258   4.136 -0.3360  0.7217  0.3501
  118SAPC  H19R12350   2.160   6.200   4.118 -1.5185 -0.6358 -1.7488
  118SAPC  H19S12351   2.095   6.360   4.171  0.7502 -0.3026  2.6974
  118SAPC  C22012352   2.003   6.263   3.995 -0.7204 -0.0832  0.5297
  118SAPC  H20R12353   1.894   6.275   4.015 -0.8910  3.4735 -1.6762
  118SAPC  H20S12354   2.022   6.171   3.935 -0.2465 -0.6295  1.4874
  118SAPC  H20T12355   2.040   6.349   3.936  0.6428 -1.2307 -0.3471
  118SAPC   C3312356   1.591   6.399   5.515 -0.4795 -0.5690  0.2421
  118SAPC   H3X12357   1.645   6.479   5.461  0.7510  0.7888  3.2619
  118SAPC   H3Y12358   1.499   6.446   5.556 -0.1013 -1.3044  2.0705
  118SAPC   C3412359   1.564   6.283   5.413  0.9686  0.3733  0.0560
  118SAPC   H4X12360   1.520   6.197   5.468 -1.5430  1.4996 -0.0606
  118SAPC   H4Y12361   1.652   6.241   5.360  1.0805 -0.3949  0.8094
  118SAPC   C3512362   1.466   6.335   5.311  0.0030  0.7192  0.6259
  118SAPC   H5X12363   1.409   6.424   5.345 -2.2748 -1.0420  1.7621
  118SAPC   H5Y12364   1.397   6.255   5.276 -0.7102  1.6910 -0.2284
  118SAPC   C3612365   1.551   6.376   5.194 -0.0447  0.1596 -0.3827
  118SAPC   H6X12366   1.603   6.286   5.155  0.9792  0.1691  0.8980
  118SAPC   H6Y12367   1.633   6.443   5.227  0.2569 -0.2489 -0.2868
  118SAPC   C3712368   1.469   6.441   5.079  0.1928  0.9510  0.5160
  118SAPC   H7X12369   1.430   6.540   5.110 -2.0804  1.2814 -2.8819
  118SAPC   H7Y12370   1.379   6.379   5.062 -0.7514  2.2444  0.6334
  118SAPC   C3812371   1.558   6.453   4.951 -0.0363  0.4005  0.7841
  118SAPC   H8X12372   1.594   6.349   4.934  1.5661  0.7178  1.9594
  118SAPC   H8Y12373   1.652   6.509   4.972  0.9171 -0.6532 -0.4770
  118SAPC   C3912374   1.499   6.513   4.826 -0.8539 -0.0739 -0.4994
  118SAPC   H9X12375   1.581   6.526   4.752 -0.4843 -0.9137 -0.2453
  118SAPC   H9Y12376   1.468   6.617   4.852  0.2754 -0.3804  2.5595
  118SAPC  C31012377   1.385   6.431   4.777  0.3840  0.3232  0.2787
  118SAPC  H10X12378   1.290   6.464   4.824  0.8315  0.9197  0.7882
  118SAPC  H10Y12379   1.394   6.325   4.809 -1.6422  0.3743  1.1525
  118SAPC  C31112380   1.363   6.429   4.621 -0.6788  0.3784  0.1250
  118SAPC  H11X12381   1.279   6.357   4.614 -1.0842  0.8502  0.0626
  118SAPC  H11Y12382   1.454   6.385   4.574  0.9686  1.6541  1.9742
  118SAPC  C31212383   1.347   6.562   4.549  1.1278  0.0283 -0.1578
  118SAPC  H12X12384   1.336   6.535   4.442 -0.7082 -1.0393  0.2497
  118SAPC  H12Y12385   1.444   6.616   4.557  1.1140  0.1397 -0.6934
  118SAPC  C31312386   1.236   6.652   4.606 -0.3742 -0.3433 -0.7225
  118SAPC  H13X12387   1.268   6.757   4.589 -0.8034 -0.2273 -0.8185
  118SAPC  H13Y12388   1.238   6.647   4.717  0.9667  0.7625 -0.6571
  118SAPC  C31412389   1.099   6.621   4.543  0.5663  0.5273 -0.5182
  118SAPC  H14X12390   1.076   6.515   4.567  3.3612  0.5302  3.0672
  118SAPC  H14Y12391   1.112   6.619   4.433  0.0442 -1.6446 -0.5820
  118SAPC  C31512392   0.985   6.713   4.583  0.3888  0.3607  0.2450
  118SAPC  H15X12393   1.012   6.814   4.546 -0.9752  1.0949  1.1592
  118SAPC  H15Y12394   0.980   6.721   4.694  0.0395 -0.1048  0.2646
  118SAPC  C31612395   0.850   6.661   4.530 -0.0883 -0.2510 -0.5189
  118SAPC  H16X12396   0.764   6.709   4.581  1.2387  0.5128  1.0692
  118SAPC  H16Y12397   0.843   6.553   4.555  0.9096  0.1363  1.6530
  118SAPC  C31712398   0.818   6.684   4.377  0.0779 -0.6120 -0.0269
  118SAPC  H17X12399   0.908   6.671   4.314 -0.6534  0.7463 -1.4140
  118SAPC  H17Y12400   0.792   6.790   4.356 -0.4645 -1.0043 -1.4125
  118SAPC  C31812401   0.698   6.611   4.324 -0.4151 -0.6910 -0.0903
  118SAPC  H18X12402   0.648   6.671   4.246 -1.8793  0.1258  1.4180
  118SAPC  H18Y12403   0.623   6.575   4.398 -0.8073  1.0278  0.3884
  118SAPC  H18Z12404   0.742   6.522   4.274 -0.4426 -1.0762  0.5643
  119SAPC     N12405   2.824   3.928   2.031 -0.0666 -0.3422 -0.0637
  119SAPC   C1212406   2.834   3.882   2.179 -0.3982 -0.3553  0.5135
  119SAPC  H12A12407   2.841   3.980   2.224 -2.1943  1.2420 -2.3853
  119SAPC  H12B12408   2.924   3.824   2.189  0.7387  1.4194  0.9865
  119SAPC   C1312409   2.749   3.816   1.957 -0.3196 -0.4655 -0.4276
  119SAPC  H13A12410   2.655   3.796   2.006 -0.4220  0.4823 -0.2256
  119SAPC  H13B12411   2.740   3.838   1.852 -1.8728 -1.0125 -0.4309
  119SAPC  H13C12412   2.804   3.725   1.979  0.8321  0.2333 -0.3495
  119SAPC   C1412413   2.740   4.051   2.021  0.7285  0.1158  0.0539
  119SAPC  H14A12414   2.649   4.038   2.078  0.9944  2.4919  1.1809
  119SAPC  H14B12415   2.793   4.140   2.054  1.1003  0.1622 -0.6480
  119SAPC  H14C12416   2.708   4.066   1.919 -1.3057 -0.7985  0.5021
  119SAPC   C1512417   2.958   3.946   1.962  0.0095 -0.2884 -0.0684
  119SAPC  H15A12418   3.009   3.855   1.934 -0.7370 -0.5074 -0.7630
  119SAPC  H15B12419   2.945   4.010   1.875  0.9592 -2.8381 -2.2289
  119SAPC  H15C12420   3.021   4.001   2.031 -0.8743  1.1742 -0.3776
  119SAPC   C1112421   2.721   3.802   2.251  0.9889  0.2568  0.3060
  119SAPC  H11A12422   2.759   3.778   2.353  0.6723 -0.9422  0.1536
  119SAPC  H11B12423   2.714   3.705   2.198 -2.0283  1.6353 -2.1382
  119SAPC     P12424   2.566   3.991   2.337  0.0056  0.1258  0.1457
  119SAPC   O1312425   2.693   4.060   2.351  0.3696  0.1311 -0.2104
  119SAPC   O1412426   2.451   4.072   2.297  0.0465 -0.0814  0.3808
  119SAPC   O1212427   2.591   3.870   2.246 -0.0695  0.7811 -0.3501
  119SAPC   O1112428   2.535   3.930   2.477 -1.3529  0.3863  0.0351
  119SAPC    C112429   2.487   3.797   2.500  0.5721 -0.2197 -0.0567
  119SAPC    HA12430   2.516   3.725   2.420  1.1119  0.5397 -0.5592
  119SAPC    HB12431   2.523   3.765   2.600  0.0556  1.1603  0.5895
  119SAPC    C212432   2.325   3.805   2.509 -0.8330  0.7851 -0.2045
  119SAPC    HS12433   2.300   3.813   2.401 -0.0909  1.9380 -0.3035
  119SAPC   O2112434   2.287   3.920   2.589 -0.2106 -0.0144 -0.9334
  119SAPC   C2112435   2.169   3.975   2.561 -0.6581  0.7003 -0.5046
  119SAPC   O2212436   2.087   3.917   2.492  0.0107 -0.2176  0.1487
  119SAPC   C2212437   2.149   4.102   2.631  0.3197  0.6473  0.4758
  119SAPC   H2R12438   2.126   4.083   2.738 -1.9460 -0.7210 -0.1897
  119SAPC   H2S12439   2.238   4.166   2.612  0.5740  0.2067  0.1705
  119SAPC    C312440   2.268   3.670   2.561  0.0611 -0.5218  0.4458
  119SAPC    HX12441   2.275   3.602   2.474 -2.6624  0.7309 -0.8979
  119SAPC    HY12442   2.162   3.702   2.574  0.0272 -1.0139  1.4435
  119SAPC   O3112443   2.332   3.625   2.681  0.4072 -0.5271  0.3603
  119SAPC   C3112444   2.304   3.498   2.709 -0.0434  1.1125 -0.3782
  119SAPC   O3212445   2.232   3.428   2.641 -0.0790  0.2384 -0.2156
  119SAPC   C3212446   2.385   3.461   2.834  0.1354  0.0710  0.4644
  119SAPC   H2X12447   2.375   3.555   2.893  1.5246  1.2697 -1.1175
  119SAPC   H2Y12448   2.494   3.453   2.819 -0.0269  0.7975 -1.3092
  119SAPC   C2312449   2.020   4.167   2.559 -0.1717  0.1084  0.0219
  119SAPC   H3R12450   1.936   4.094   2.559  2.3378 -2.9885 -0.5950
  119SAPC   H3S12451   2.039   4.205   2.456 -0.7555  0.6155  0.0942
  119SAPC   C2412452   1.974   4.283   2.650  1.8234  0.0773  0.5874
  119SAPC   H4R12453   1.973   4.247   2.756  1.1895  1.6374  1.1369
  119SAPC   H4S12454   1.869   4.306   2.623  2.2133  1.2890  0.0487
  119SAPC   C2512455   2.044   4.407   2.622  0.4264 -0.0334  0.3307
  119SAPC   H5R12456   2.031   4.461   2.526 -3.1682 -1.1792  0.0275
  119SAPC   C2612457   2.121   4.467   2.711 -0.4603  0.0905  0.2942
  119SAPC   H6R12458   2.171   4.561   2.685 -2.9215  1.2982 -0.3761
  119SAPC   C2712459   2.161   4.417   2.844 -1.2132  0.2776  0.5187
  119SAPC   H7R12460   2.263   4.458   2.860 -0.9535  0.9863 -2.3845
  119SAPC   H7S12461   2.202   4.315   2.825  1.5925  1.1883  1.1810
  119SAPC   C2812462   2.072   4.434   2.962  0.1905  0.5072 -0.1063
  119SAPC   H8R12463   2.035   4.535   2.987  1.6953  1.3912 -1.2370
  119SAPC   C2912464   2.039   4.332   3.047 -0.0402 -0.1152 -0.1888
  119SAPC   H9R12465   1.978   4.354   3.136  0.9489  0.6918  0.3097
  119SAPC  C21012466   2.085   4.196   3.041 -0.2431  0.1435  0.5268
  119SAPC  H10R12467   2.122   4.179   3.144 -1.7978  0.7113  1.2108
  119SAPC  H10S12468   2.167   4.172   2.970  0.8068 -0.7589  1.9997
  119SAPC  C21112469   1.974   4.101   3.012  0.1724  0.0939  0.4345
  119SAPC  H11R12470   1.871   4.136   3.025 -0.6935 -2.1134 -0.0259
  119SAPC  C21212471   1.986   3.968   2.990 -0.3323  0.4635 -0.3591
  119SAPC  H12R12472   1.890   3.922   2.962 -0.1374  0.5904 -1.2418
  119SAPC  C21312473   2.111   3.889   2.997 -0.4728  0.1129 -0.1391
  119SAPC  H13R12474   2.134   3.868   3.103 -2.8504 -0.5262  0.3120
  119SAPC  H13S12475   2.201   3.935   2.950  0.9851 -1.5262  0.9462
  119SAPC  C21412476   2.091   3.765   2.913  0.6483 -0.2931 -0.6804
  119SAPC  H14R12477   2.145   3.770   2.817 -0.0573 -0.5158 -1.1064
  119SAPC  C21512478   2.008   3.662   2.935  0.5922 -0.1071 -0.3366
  119SAPC  H15R12479   2.003   3.577   2.865 -0.2396  0.5155 -1.0506
  119SAPC  C21612480   1.927   3.639   3.056  0.0603  0.5347 -0.5950
  119SAPC  H16R12481   1.825   3.603   3.034 -0.2678  1.9489 -1.4615
  119SAPC  H16S12482   1.920   3.737   3.109  2.1578 -0.2880  1.3820
  119SAPC  C21712483   2.010   3.549   3.150  0.3699  0.1145 -0.5275
  119SAPC  H17R12484   2.111   3.589   3.171 -0.0158 -0.0660  2.0334
  119SAPC  H17S12485   2.009   3.442   3.119 -1.3737 -0.2537  0.6466
  119SAPC  C21812486   1.938   3.538   3.288  0.4903  0.4610 -0.1106
  119SAPC  H18R12487   1.853   3.465   3.289  0.4909  0.4630  0.8787
  119SAPC  H18S12488   1.889   3.638   3.293  1.7821  1.1826 -1.2600
  119SAPC  C21912489   2.030   3.503   3.407 -0.0413 -0.1877 -0.2578
  119SAPC  H19R12490   2.125   3.561   3.413 -0.6762  0.7125  1.8835
  119SAPC  H19S12491   2.057   3.396   3.394  0.0731 -0.0984 -0.7879
  119SAPC  C22012492   1.962   3.513   3.539 -0.8963 -0.0181 -0.2414
  119SAPC  H20R12493   1.927   3.616   3.558 -0.1569  0.6982 -2.4662
  119SAPC  H20S12494   2.029   3.480   3.622 -1.8027 -2.1448 -0.2850
  119SAPC  H20T12495   1.865   3.459   3.545 -0.8119 -0.1155  0.3055
  119SAPC   C3312496   2.341   3.332   2.913 -0.3907 -0.8553 -0.1163
  119SAPC   H3X12497   2.365   3.248   2.844  1.3056 -2.0415  1.8026
  119SAPC   H3Y12498   2.230   3.329   2.909 -0.5805  1.2001  2.0106
  119SAPC   C3412499   2.412   3.314   3.049  0.1142 -0.1073 -0.1369
  119SAPC   H4X12500   2.519   3.343   3.046  0.9574 -2.8992 -0.2913
  119SAPC   H4Y12501   2.400   3.208   3.079 -0.7164 -0.6139 -2.1175
  119SAPC   C3512502   2.340   3.406   3.156 -0.4505 -0.3547 -0.2221
  119SAPC   H5X12503   2.239   3.365   3.179 -0.3492  0.0770  1.1136
  119SAPC   H5Y12504   2.326   3.506   3.109 -0.1873 -1.0080 -1.7135
  119SAPC   C3612505   2.410   3.430   3.292 -0.2052  0.1220  0.4519
  119SAPC   H6X12506   2.351   3.502   3.352 -0.6199 -2.2408  3.1170
  119SAPC   H6Y12507   2.507   3.480   3.273 -0.2744 -0.1016 -0.5580
  119SAPC   C3712508   2.444   3.302   3.374  0.6905  0.0667  0.1482
  119SAPC   H7X12509   2.526   3.241   3.330  1.6377 -1.2525  3.4331
  119SAPC   H7Y12510   2.352   3.240   3.377  0.4989  0.3976  1.7378
  119SAPC   C3812511   2.470   3.337   3.522 -0.1192  0.2799 -0.8495
  119SAPC   H8X12512   2.507   3.241   3.564  1.7750  1.1933 -0.2825
  119SAPC   H8Y12513   2.375   3.368   3.569 -1.4716 -2.0024 -1.8843
  119SAPC   C3912514   2.577   3.440   3.539 -0.6615 -0.2772  0.3722
  119SAPC   H9X12515   2.536   3.526   3.483 -3.4733 -2.2861 -0.8863
  119SAPC   H9Y12516   2.674   3.404   3.498 -2.0115 -2.5210 -1.0845
  119SAPC  C31012517   2.594   3.472   3.687 -0.6053  0.7759  0.9579
  119SAPC  H10X12518   2.605   3.372   3.735 -0.9198  0.5548  0.5823
  119SAPC  H10Y12519   2.500   3.513   3.730 -0.8963 -0.1435  1.2291
  119SAPC  C31112520   2.709   3.561   3.722 -0.2302 -0.5988 -0.1797
  119SAPC  H11X12521   2.717   3.648   3.655  1.2940  0.4187  1.2572
  119SAPC  H11Y12522   2.809   3.512   3.718 -0.3136 -1.1514  2.4771
  119SAPC  C31212523   2.699   3.602   3.869  0.3268  0.6076 -0.1977
  119SAPC  H12X12524   2.599   3.646   3.888 -0.2085  0.2297 -1.9430
  119SAPC  H12Y12525   2.772   3.681   3.896 -1.1956  1.7234  0.7819
  119SAPC  C31312526   2.710   3.478   3.963 -0.6361 -0.5104 -0.5506
  119SAPC  H13X12527   2.786   3.404   3.929 -0.9427 -0.9980 -0.1977
  119SAPC  H13Y12528   2.616   3.418   3.959 -1.8883  1.3647 -0.7260
  119SAPC  C31412529   2.739   3.515   4.106 -0.2039 -0.2701 -0.1067
  119SAPC  H14X12530   2.665   3.592   4.136 -0.1071  0.3253 -1.3078
  119SAPC  H14Y12531   2.842   3.553   4.119 -0.7231  0.0829  4.7185
  119SAPC  C31512532   2.717   3.417   4.214 -0.4930 -0.2023 -0.1297
  119SAPC  H15X12533   2.772   3.453   4.303 -1.8426  0.5982  0.4131
  119SAPC  H15Y12534   2.764   3.322   4.179 -0.9868  0.3019 -2.3041
  119SAPC  C31612535   2.566   3.384   4.248  0.8314 -0.3479  0.2589
  119SAPC  H16X12536   2.563   3.289   4.306 -1.1952  0.6440  1.9247
  119SAPC  H16Y12537   2.514   3.364   4.152  0.8107 -2.1001  0.6116
  119SAPC  C31712538   2.498   3.484   4.339 -0.2856  0.4630  0.2180
  119SAPC  H17X12539   2.475   3.579   4.287 -2.3868 -0.5594 -0.8250
  119SAPC  H17Y12540   2.566   3.498   4.426  0.2898 -0.7147 -0.0213
  119SAPC  C31812541   2.357   3.433   4.379 -0.0426 -0.1356 -0.1843
  119SAPC  H18X12542   2.291   3.424   4.290  0.9193 -0.6039 -0.8703
  119SAPC  H18Y12543   2.300   3.502   4.445 -0.3989  0.7844 -1.4092
  119SAPC  H18Z12544   2.370   3.334   4.428  1.9967  0.7847  1.2918
  120SAPC     N12545   5.329   5.210   1.909 -0.0889 -0.1990 -0.3016
  120SAPC   C1212546   5.226   5.203   2.023 -0.2128 -0.1484 -0.0193
  120SAPC  H12A12547   5.126   5.217   1.986  0.4288  1.1055 -1.4112
  120SAPC  H12B12548   5.247   5.284   2.092  1.3791  0.0557 -0.6911
  120SAPC   C1312549   5.293   5.106   1.808 -1.1054  0.1500 -0.0556
  120SAPC  H13A12550   5.374   5.087   1.738 -1.9781 -2.6331 -0.4336
  120SAPC  H13B12551   5.285   5.016   1.868  1.6140  0.6538  1.1995
  120SAPC  H13C12552   5.209   5.142   1.751 -0.9058 -1.7590 -1.6898
  120SAPC   C1412553   5.321   5.344   1.845  0.5338 -0.0621  0.1857
  120SAPC  H14A12554   5.225   5.368   1.803  0.4367  0.0608  0.4726
  120SAPC  H14B12555   5.334   5.425   1.916 -1.5061 -1.0171  1.7609
  120SAPC  H14C12556   5.400   5.352   1.772  2.3204 -3.0692  1.5698
  120SAPC   C1512557   5.468   5.180   1.959  0.0631 -0.3116  0.2846
  120SAPC  H15A12558   5.491   5.259   2.028 -0.7615  1.0264 -0.9093
  120SAPC  H15B12559   5.474   5.080   1.998  0.0601  0.3012  1.9131
  120SAPC  H15C12560   5.536   5.188   1.875 -0.1877  0.2476  0.1275
  120SAPC   C1112561   5.227   5.070   2.102  0.3338  0.4143 -0.2655
  120SAPC  H11A12562   5.189   5.089   2.204  0.0216  0.4554 -0.3885
  120SAPC  H11B12563   5.330   5.032   2.119 -0.7390 -2.4862  0.3346
  120SAPC     P12564   4.985   4.984   2.056  0.1552  0.0879  0.0696
  120SAPC   O1312565   4.923   5.121   2.048  0.6399 -0.0597  0.1715
  120SAPC   O1412566   4.925   4.885   1.963 -0.5274 -0.6407  0.0465
  120SAPC   O1212567   5.136   4.982   2.032 -0.6321  0.6352  0.8010
  120SAPC   O1112568   4.975   4.932   2.200  0.6621 -0.0324 -0.2371
  120SAPC    C112569   4.942   4.794   2.225 -0.6867 -0.4249  0.5384
  120SAPC    HA12570   4.976   4.728   2.142  1.5866  2.6152 -1.1342
  120SAPC    HB12571   4.983   4.763   2.323  0.2707 -0.3411  0.1736
  120SAPC    C212572   4.795   4.771   2.241  0.7029 -0.1376  0.5263
  120SAPC    HS12573   4.747   4.800   2.145  2.5671  1.6070  0.0479
  120SAPC   O2112574   4.756   4.854   2.350  0.7977 -0.0520 -0.1542
  120SAPC   C2112575   4.632   4.878   2.381  1.2792 -0.5121  0.1299
  120SAPC   O2212576   4.532   4.852   2.309 -0.1465 -0.3431  0.0673
  120SAPC   C2212577   4.633   4.968   2.505  0.2409  0.2443  0.7691
  120SAPC   H2R12578   4.718   4.934   2.569 -0.0231  1.1988  1.6611
  120SAPC   H2S12579   4.667   5.064   2.460 -0.4717 -0.3403 -1.1157
  120SAPC    C312580   4.763   4.614   2.263  0.2163  0.3201  0.0673
  120SAPC    HX12581   4.780   4.561   2.168 -1.7584  0.1628 -0.2440
  120SAPC    HY12582   4.655   4.623   2.291  0.0730  1.7979 -0.8530
  120SAPC   O3112583   4.835   4.555   2.371 -0.0190 -0.1793 -0.0289
  120SAPC   C3112584   4.842   4.420   2.380  0.2049 -0.3583 -0.2034
  120SAPC   O3212585   4.768   4.346   2.315  0.1511  0.0402  0.0873
  120SAPC   C3212586   4.952   4.383   2.483  0.0149  0.5862  0.1704
  120SAPC   H2X12587   5.043   4.423   2.435 -0.9604  1.2955 -1.1283
  120SAPC   H2Y12588   4.964   4.272   2.485 -0.5422  0.5268  0.5404
  120SAPC   C2312589   4.495   4.972   2.573  0.2942  0.1149  0.1510
  120SAPC   H3R12590   4.423   4.979   2.489 -1.1501 -1.9346  1.1113
  120SAPC   H3S12591   4.488   5.052   2.649 -0.3673 -0.6248  0.8982
  120SAPC   C2412592   4.466   4.842   2.662  0.5381  0.2689  0.4711
  120SAPC   H4R12593   4.447   4.773   2.577  3.5922 -0.4324  0.2280
  120SAPC   H4S12594   4.370   4.854   2.717  0.1088 -0.2506 -0.1469
  120SAPC   C2512595   4.574   4.780   2.749 -0.3374 -0.4767 -0.3713
  120SAPC   H5R12596   4.662   4.746   2.692 -0.3630 -0.3325 -0.4991
  120SAPC   C2612597   4.566   4.754   2.879  0.1196 -0.5951  0.0997
  120SAPC   H6R12598   4.649   4.710   2.936 -0.9395 -0.1690  2.0734
  120SAPC   C2712599   4.451   4.784   2.972  0.2423  0.5635  0.2644
  120SAPC   H7R12600   4.386   4.866   2.935  1.2954 -0.3044 -3.9853
  120SAPC   H7S12601   4.501   4.829   3.060  3.4432  1.7728 -2.0157
  120SAPC   C2812602   4.364   4.660   3.006 -0.3799  0.7222 -0.2222
  120SAPC   H8R12603   4.291   4.642   2.925 -1.2107  1.5374  0.3268
  120SAPC   C2912604   4.347   4.590   3.117 -0.9666 -0.7315 -0.2651
  120SAPC   H9R12605   4.285   4.499   3.114  1.3656 -2.3913 -1.5043
  120SAPC  C21012606   4.409   4.614   3.252  0.5421  0.3827  0.8019
  120SAPC  H10R12607   4.329   4.650   3.322  0.0955  3.3829 -1.0629
  120SAPC  H10S12608   4.477   4.700   3.231  0.4481 -0.5266 -4.5717
  120SAPC  C21112609   4.484   4.492   3.289 -0.1830 -0.3122  0.2996
  120SAPC  H11R12610   4.524   4.438   3.202 -1.5547 -0.2400 -0.4059
  120SAPC  C21212611   4.499   4.431   3.410  0.1971  0.0733 -0.4684
  120SAPC  H12R12612   4.559   4.339   3.420  0.3697  0.3705  1.6307
  120SAPC  C21312613   4.436   4.482   3.536 -0.7414  0.5716 -0.0415
  120SAPC  H13R12614   4.419   4.390   3.596  2.7068 -0.1833 -0.0057
  120SAPC  H13S12615   4.335   4.520   3.512 -0.8164  1.1092  1.0500
  120SAPC  C21412616   4.511   4.588   3.610 -0.0210  0.4365  0.0986
  120SAPC  H14R12617   4.572   4.651   3.544  1.1325  1.9942  2.4713
  120SAPC  C21512618   4.506   4.612   3.741 -0.0726  0.6995  0.0300
  120SAPC  H15R12619   4.564   4.693   3.789  0.5903  1.0919 -1.3731
  120SAPC  C21612620   4.430   4.533   3.844  1.2173 -0.1704 -0.2439
  120SAPC  H16R12621   4.475   4.536   3.945  0.3171  1.6715  0.1368
  120SAPC  H16S12622   4.410   4.432   3.802 -0.6297  0.9998 -2.3874
  120SAPC  C21712623   4.292   4.595   3.851 -0.4982 -0.0149  0.0466
  120SAPC  H17R12624   4.246   4.588   3.751 -2.2748 -1.1148  0.8957
  120SAPC  H17S12625   4.295   4.706   3.859 -0.0350  0.1870 -2.2333
  120SAPC  C21812626   4.204   4.544   3.969  0.0552 -0.4160 -0.5607
  120SAPC  H18R12627   4.253   4.553   4.068 -2.1558 -1.2415  0.6896
  120SAPC  H18S12628   4.197   4.433   3.968 -0.0727 -0.4123 -1.5927
  120SAPC  C21912629   4.065   4.620   3.965  0.0772 -0.4615 -0.8809
  120SAPC  H19R12630   4.013   4.632   3.868 -1.5132  0.7718  0.0791
  120SAPC  H19S12631   4.090   4.727   3.979 -1.1730 -0.2753  0.0385
  120SAPC  C22012632   3.964   4.574   4.072 -0.1441  0.5656  0.0033
  120SAPC  H20R12633   3.857   4.571   4.042 -0.4994 -1.0618  1.2715
  120SAPC  H20S12634   3.972   4.619   4.173  0.0169 -1.7460  1.0948
  120SAPC  H20T12635   3.978   4.464   4.081 -1.9407  0.2234 -0.9298
  120SAPC   C3312636   4.931   4.434   2.627  0.2120 -0.3706  0.0912
  120SAPC   H3X12637   4.928   4.545   2.627 -0.5191 -0.3859  0.1490
  120SAPC   H3Y12638   5.021   4.423   2.691  0.5525 -0.5421 -0.4021
  120SAPC   C3412639   4.805   4.363   2.684  0.4156  0.2280 -0.6426
  120SAPC   H4X12640   4.819   4.253   2.675  0.6430  0.3347 -1.6503
  120SAPC   H4Y12641   4.708   4.384   2.634 -0.1430 -1.0557 -0.1498
  120SAPC   C3512642   4.777   4.391   2.839 -0.5115  0.2199 -0.2910
  120SAPC   H5X12643   4.671   4.370   2.867 -0.0275 -0.3990  1.1982
  120SAPC   H5Y12644   4.781   4.502   2.847  0.1725  0.3564 -2.1550
  120SAPC   C3612645   4.866   4.322   2.949  0.1741  0.3576  0.3069
  120SAPC   H6X12646   4.977   4.329   2.947  0.1026  2.0559  0.5318
  120SAPC   H6Y12647   4.841   4.215   2.935  1.8348 -0.5609  3.4083
  120SAPC   C3712648   4.825   4.372   3.083 -0.2349  0.1115 -0.1918
  120SAPC   H7X12649   4.715   4.364   3.098 -0.5656  2.8810 -0.5964
  120SAPC   H7Y12650   4.837   4.483   3.088 -1.0104  0.1986 -0.2269
  120SAPC   C3812651   4.898   4.301   3.199  0.0983  0.4056 -0.7446
  120SAPC   H8X12652   5.008   4.313   3.191  0.1159  0.1873 -0.8445
  120SAPC   H8Y12653   4.877   4.192   3.192 -1.7232  0.6383  0.2934
  120SAPC   C3912654   4.856   4.349   3.340 -0.6834  0.1739 -0.0044
  120SAPC   H9X12655   4.751   4.315   3.353 -0.4213  0.3902  3.5951
  120SAPC   H9Y12656   4.861   4.458   3.358  0.4668 -0.3391  3.5488
  120SAPC  C31012657   4.953   4.289   3.445  0.3933  0.1102 -0.9852
  120SAPC  H10X12658   5.039   4.356   3.464  0.2079  0.1108 -0.1047
  120SAPC  H10Y12659   4.988   4.191   3.406  1.2573 -0.0884  0.2613
  120SAPC  C31112660   4.873   4.278   3.572 -0.5817 -0.2870 -0.0694
  120SAPC  H11X12661   4.825   4.374   3.599  1.8167  0.7298  0.8896
  120SAPC  H11Y12662   4.944   4.253   3.654  0.4219  0.5541 -0.6440
  120SAPC  C31212663   4.774   4.164   3.564  0.4672  0.2591  0.0784
  120SAPC  H12X12664   4.826   4.066   3.573 -0.5036 -0.2160  0.6584
  120SAPC  H12Y12665   4.718   4.151   3.469 -1.3298  0.5474  1.0597
  120SAPC  C31312666   4.678   4.182   3.682  0.3248 -0.5021  0.2378
  120SAPC  H13X12667   4.620   4.277   3.690  1.9320  0.5145  0.1883
  120SAPC  H13Y12668   4.746   4.166   3.769  0.7633 -1.3849 -0.2516
  120SAPC  C31412669   4.570   4.070   3.672  0.1035  0.3703  0.3272
  120SAPC  H14X12670   4.604   3.964   3.668  0.2873  0.3748  1.4564
  120SAPC  H14Y12671   4.504   4.076   3.583 -1.5859 -0.0737  1.4962
  120SAPC  C31512672   4.474   4.070   3.800 -0.2418  0.1844 -0.2273
  120SAPC  H15X12673   4.425   4.170   3.793 -0.6887  0.1005  1.2963
  120SAPC  H15Y12674   4.529   4.062   3.896 -0.9873 -0.5135  0.1504
  120SAPC  C31612675   4.358   3.969   3.791  0.4417  0.5350  0.3581
  120SAPC  H16X12676   4.300   3.986   3.698 -1.7482  2.5190  1.9561
  120SAPC  H16Y12677   4.289   3.989   3.876  1.9818  2.7173  1.1932
  120SAPC  C31712678   4.403   3.820   3.811  0.4539 -0.1317  0.9536
  120SAPC  H17X12679   4.462   3.787   3.722  0.1909 -0.5132  0.9202
  120SAPC  H17Y12680   4.314   3.754   3.816  0.2873 -0.1939 -1.6742
  120SAPC  C31812681   4.491   3.804   3.933  0.4247  0.5294 -0.1929
  120SAPC  H18X12682   4.510   3.694   3.939 -0.3257  0.4619  1.3845
  120SAPC  H18Y12683   4.427   3.826   4.021 -0.3087 -2.5373  0.1765
  120SAPC  H18Z12684   4.579   3.872   3.933 -1.1217  2.5881 -0.4761
  121SAPC     N12685   1.133   2.216   1.650 -0.5974  0.5243 -0.1104
  121SAPC   C1212686   1.078   2.128   1.769 -0.2741  0.5245  0.5715
  121SAPC  H12A12687   0.996   2.184   1.812  0.2692  0.3817  1.8015
  121SAPC  H12B12688   1.148   2.127   1.850 -0.7153  0.8918  0.9683
  121SAPC   C1312689   1.032   2.239   1.546 -0.3072 -1.3765 -0.7264
  121SAPC  H13A12690   0.997   2.146   1.506  2.3439 -2.1753 -1.3957
  121SAPC  H13B12691   0.948   2.285   1.596  0.0805 -0.6188 -0.7460
  121SAPC  H13C12692   1.064   2.310   1.470 -0.8871  0.6902  0.8493
  121SAPC   C1412693   1.177   2.344   1.716 -0.3691 -0.2614  0.0143
  121SAPC  H14A12694   1.089   2.398   1.750  1.4520  1.8989  1.5967
  121SAPC  H14B12695   1.246   2.332   1.798  0.7587 -1.7375 -1.1140
  121SAPC  H14C12696   1.219   2.418   1.649 -1.0603  0.4981  0.3940
  121SAPC   C1512697   1.251   2.142   1.591  0.1643 -0.2897  0.8280
  121SAPC  H15A12698   1.222   2.040   1.572 -0.6568  0.2136 -0.7359
  121SAPC  H15B12699   1.296   2.188   1.505 -0.7711 -0.2204  0.3579
  121SAPC  H15C12700   1.332   2.147   1.663  1.1242  3.3466 -0.2890
  121SAPC   C1112701   1.048   1.985   1.733  0.8825  0.0796  0.0388
  121SAPC  H11A12702   1.013   1.936   1.827 -0.2175 -2.0833 -1.4204
  121SAPC  H11B12703   1.138   1.927   1.706  0.8169 -0.0639  0.1263
  121SAPC     P12704   0.799   1.956   1.667 -0.1436 -0.2923 -0.4640
  121SAPC   O1312705   0.746   2.094   1.692 -0.2362  0.8622  0.1328
  121SAPC   O1412706   0.732   1.878   1.560 -0.0289  0.1204 -0.2068
  121SAPC   O1212707   0.947   1.982   1.627  0.3429 -0.5512  0.4344
  121SAPC   O1112708   0.797   1.870   1.797 -0.1918  0.3282  0.1799
  121SAPC    C112709   0.683   1.801   1.846  0.3427  0.5108 -0.2041
  121SAPC    HA12710   0.613   1.872   1.894  1.8600  0.2932  2.5757
  121SAPC    HB12711   0.626   1.746   1.768  2.0464 -0.5564 -0.7567
  121SAPC    C212712   0.726   1.701   1.959 -0.2494 -1.0021  0.7323
  121SAPC    HS12713   0.646   1.624   1.960  0.4433 -1.7948 -1.1011
  121SAPC   O2112714   0.767   1.769   2.085  0.2885  0.3083 -0.2014
  121SAPC   C2112715   0.665   1.784   2.166  0.0378 -0.5545  0.6840
  121SAPC   O2212716   0.549   1.758   2.137 -0.4341  0.3586  0.6325
  121SAPC   C2212717   0.716   1.834   2.301  0.0676 -0.2515  0.0062
  121SAPC   H2R12718   0.771   1.746   2.340 -0.3479 -1.5977 -2.2766
  121SAPC   H2S12719   0.781   1.923   2.283 -0.5514 -0.1904 -2.3631
  121SAPC    C312720   0.846   1.620   1.902 -0.2081 -0.3300 -0.1172
  121SAPC    HX12721   0.920   1.702   1.896 -0.7521  0.2610  0.8225
  121SAPC    HY12722   0.808   1.577   1.807  0.2689 -1.8207  0.3379
  121SAPC   O3112723   0.891   1.527   2.003  0.0045  0.1083 -0.3336
  121SAPC   C3112724   0.825   1.416   2.016 -0.1013 -0.0405 -0.7472
  121SAPC   O3212725   0.734   1.377   1.942  0.6344 -0.3363  0.0313
  121SAPC   C3212726   0.883   1.337   2.130  0.2548 -0.0361 -0.9399
  121SAPC   H2X12727   0.973   1.393   2.163 -0.9726  1.8833 -0.6686
  121SAPC   H2Y12728   0.916   1.242   2.084  1.6204 -0.8075  1.4898
  121SAPC   C2312729   0.590   1.874   2.379 -0.7768 -0.4647  0.2889
  121SAPC   H3R12730   0.496   1.814   2.373 -1.4855  0.7145 -1.0402
  121SAPC   H3S12731   0.568   1.972   2.331 -0.7717  0.4324  2.0313
  121SAPC   C2412732   0.624   1.908   2.529  0.0902 -0.3855 -0.6205
  121SAPC   H4R12733   0.540   1.949   2.589 -0.8467 -2.9101 -0.0586
  121SAPC   H4S12734   0.706   1.983   2.527 -0.4707  0.2415 -0.3248
  121SAPC   C2512735   0.670   1.784   2.598 -0.0207  0.6573  0.2769
  121SAPC   H5R12736   0.773   1.752   2.580  0.4139  2.4475 -0.6494
  121SAPC   C2612737   0.601   1.719   2.694  0.0446 -0.6354  1.1779
  121SAPC   H6R12738   0.656   1.639   2.746  1.8884  0.1329  0.5118
  121SAPC   C2712739   0.464   1.761   2.753 -0.9357  0.0198  0.4088
  121SAPC   H7R12740   0.467   1.868   2.781  1.6016  0.8791 -2.5847
  121SAPC   H7S12741   0.457   1.713   2.853  0.9436 -4.0459 -1.1738
  121SAPC   C2812742   0.336   1.728   2.686  0.0441 -0.2687  0.7646
  121SAPC   H8R12743   0.356   1.675   2.592 -0.7075  0.3794  0.2217
  121SAPC   C2912744   0.219   1.793   2.702  0.3154  0.2308  0.1529
  121SAPC   H9R12745   0.131   1.768   2.641  0.4902 -0.8867  0.3295
  121SAPC  C21012746   0.191   1.904   2.802  0.4763  0.3072  0.6479
  121SAPC  H10R12747   0.258   1.905   2.891  2.5332  1.0319 -0.8210
  121SAPC  H10S12748   0.090   1.895   2.846  1.4251  3.2880  3.8640
  121SAPC  C21112749   0.193   2.034   2.738  1.2579  0.4076  0.3420
  121SAPC  H11R12750   0.170   2.047   2.631  1.2331 -0.9829  0.1601
  121SAPC  C21212751   0.206   2.149   2.809 -0.4439 -0.0480 -0.6346
  121SAPC  H12R12752   0.203   2.248   2.762 -1.3438  0.2069 -0.0707
  121SAPC  C21312753   0.223   2.149   2.961  0.2738 -0.9967 -0.2195
  121SAPC  H13R12754   0.245   2.253   2.991  0.5270 -1.3744  0.9801
  121SAPC  H13S12755   0.316   2.098   2.995  1.3114  0.5814 -0.5765
  121SAPC  C21412756   0.108   2.103   3.049  0.4914 -0.1739 -0.4411
  121SAPC  H14R12757   0.034   2.041   2.995  0.3192  1.3605 -2.0748
  121SAPC  C21512758   0.080   2.133   3.180  0.4266  0.4595  0.3450
  121SAPC  H15R12759  -0.003   2.084   3.233 -0.4310 -0.3859 -1.6957
  121SAPC  C21612760   0.160   2.227   3.264 -0.5157  0.4654  0.1649
  121SAPC  H16R12761   0.136   2.328   3.226 -1.0969 -0.2952 -1.5424
  121SAPC  H16S12762   0.270   2.210   3.270 -0.7834 -1.4332  0.3718
  121SAPC  C21712763   0.118   2.237   3.411 -0.3104  0.6646  0.5043
  121SAPC  H17R12764   0.008   2.243   3.422 -0.7318 -2.1602 -1.0150
  121SAPC  H17S12765   0.164   2.331   3.448 -2.6253  2.8500 -1.7899
  121SAPC  C21812766   0.177   2.119   3.490 -0.0074 -0.7052  0.1734
  121SAPC  H18R12767   0.287   2.114   3.475  0.1258  1.2970  0.1948
  121SAPC  H18S12768   0.135   2.022   3.459  0.2469 -0.1966 -1.8635
  121SAPC  C21912769   0.147   2.132   3.638  0.5881  0.5044 -0.7310
  121SAPC  H19R12770   0.211   2.210   3.686  0.4275 -0.2899  0.8331
  121SAPC  H19S12771   0.181   2.036   3.681  0.5113  0.2092 -1.3186
  121SAPC  C22012772  -0.001   2.168   3.656 -0.3773  0.5017  0.0905
  121SAPC  H20R12773  -0.034   2.268   3.621 -2.0217  0.8291  2.3274
  121SAPC  H20S12774  -0.025   2.156   3.764 -2.6121  0.3947 -0.3730
  121SAPC  H20T12775  -0.057   2.087   3.605 -2.1132  0.2363  2.2724
  121SAPC   C3312776   0.781   1.294   2.240 -0.2493  0.2476  0.2699
  121SAPC   H3X12777   0.807   1.194   2.280 -1.3544  0.2698  1.0767
  121SAPC   H3Y12778   0.684   1.270   2.190  0.0267  0.8966 -0.6113
  121SAPC   C3412779   0.752   1.398   2.340  0.3519  0.4990 -0.9479
  121SAPC   H4X12780   0.677   1.468   2.297 -2.0880 -1.0162  0.6040
  121SAPC   H4Y12781   0.851   1.441   2.368  0.1472  1.4092 -1.5690
  121SAPC   C3512782   0.688   1.344   2.472 -0.1304  0.6233  0.4108
  121SAPC   H5X12783   0.689   1.420   2.553 -0.9434 -1.7821  2.8233
  121SAPC   H5Y12784   0.757   1.260   2.495  1.2629  1.5338 -0.2867
  121SAPC   C3612785   0.543   1.294   2.450 -0.3771  0.2080 -0.4267
  121SAPC   H6X12786   0.546   1.230   2.359  1.4767  0.5505 -0.6409
  121SAPC   H6Y12787   0.476   1.381   2.434 -1.7336 -0.8742 -0.8167
  121SAPC   C3712788   0.492   1.207   2.562 -0.1527  0.1567 -0.7711
  121SAPC   H7X12789   0.559   1.119   2.572 -1.5798 -0.6989  3.0936
  121SAPC   H7Y12790   0.395   1.165   2.530 -0.4138  0.8574 -0.9190
  121SAPC   C3812791   0.470   1.267   2.706  0.5452 -0.9990 -0.1070
  121SAPC   H8X12792   0.374   1.224   2.742 -0.3030  1.0250  0.1601
  121SAPC   H8Y12793   0.460   1.377   2.698 -0.9973 -1.0509  0.8957
  121SAPC   C3912794   0.590   1.229   2.799 -0.0812 -0.4267 -0.6491
  121SAPC   H9X12795   0.682   1.271   2.754  0.6743 -1.4802 -0.1473
  121SAPC   H9Y12796   0.600   1.118   2.792 -0.8447 -0.5127 -0.4356
  121SAPC  C31012797   0.571   1.282   2.937  0.0056 -0.1553 -0.0007
  121SAPC  H10X12798   0.536   1.387   2.925 -0.3725 -0.4416 -1.6396
  121SAPC  H10Y12799   0.671   1.283   2.985  0.5533  3.7323 -0.9084
  121SAPC  C31112800   0.488   1.192   3.017 -0.1061  0.4446 -0.0823
  121SAPC  H11X12801   0.544   1.099   3.037 -0.5189  0.8416  3.4063
  121SAPC  H11Y12802   0.388   1.177   2.970 -0.0717  0.3247 -0.1173
  121SAPC  C31212803   0.461   1.253   3.157 -0.1194 -0.0878 -0.7249
  121SAPC  H12X12804   0.447   1.363   3.157 -0.1889 -0.0968 -0.8174
  121SAPC  H12Y12805   0.554   1.245   3.218 -0.6406 -0.8703 -0.0074
  121SAPC  C31312806   0.341   1.183   3.218 -0.0327 -0.4943 -0.2938
  121SAPC  H13X12807   0.372   1.076   3.228  2.3151  0.1174 -0.3191
  121SAPC  H13Y12808   0.251   1.196   3.155 -0.0179 -0.9010 -0.4026
  121SAPC  C31412809   0.316   1.224   3.359 -0.7635 -0.2392 -0.3820
  121SAPC  H14X12810   0.280   1.329   3.353 -0.0543 -0.0413 -1.4570
  121SAPC  H14Y12811   0.407   1.212   3.422 -0.1452  0.1734 -1.1789
  121SAPC  C31512812   0.211   1.142   3.438  0.0707 -0.1099 -0.8155
  121SAPC  H15X12813   0.231   1.033   3.428 -1.1823 -0.2844 -1.7968
  121SAPC  H15Y12814   0.108   1.156   3.398  0.1172  0.3684 -0.7656
  121SAPC  C31612815   0.201   1.176   3.593  0.0009 -0.3252 -0.3163
  121SAPC  H16X12816   0.163   1.280   3.600  2.3223  0.4836  1.3254
  121SAPC  H16Y12817   0.303   1.187   3.636  0.8528 -3.0044 -1.4245
  121SAPC  C31712818   0.107   1.088   3.668 -1.0551 -0.4999  0.4254
  121SAPC  H17X12819   0.154   0.988   3.668  0.9793  0.4071 -0.3618
  121SAPC  H17Y12820   0.005   1.081   3.623 -1.7125 -1.5295  1.9761
  121SAPC  C31812821   0.082   1.144   3.810  0.6520 -0.7812  0.3697
  121SAPC  H18X12822   0.167   1.157   3.880  0.7445 -1.4232  0.3795
  121SAPC  H18Y12823   0.022   1.062   3.856  1.7595 -1.5455  0.4847
  121SAPC  H18Z12824   0.030   1.239   3.787  2.2370 -0.5482 -2.7009
  122SAPC     N12825   2.916   5.736   1.668  0.4802 -0.5576  0.1978
  122SAPC   C1212826   3.057   5.783   1.631  0.5299 -0.2804 -0.5602
  122SAPC  H12A12827   3.053   5.828   1.533 -1.6448 -1.5979 -1.1576
  122SAPC  H12B12828   3.103   5.686   1.616  1.8015  0.0877  0.7571
  122SAPC   C1312829   2.825   5.845   1.711  0.2185 -0.0398 -0.5639
  122SAPC  H13A12830   2.731   5.808   1.750  0.5945 -1.7290 -1.2054
  122SAPC  H13B12831   2.866   5.910   1.788 -1.3956  0.6969 -0.2618
  122SAPC  H13C12832   2.794   5.905   1.627 -2.7329  0.7728  0.9739
  122SAPC   C1412833   2.861   5.679   1.545  0.6860 -0.6777  0.1848
  122SAPC  H14A12834   2.910   5.595   1.497 -0.9674 -1.0608 -0.9435
  122SAPC  H14B12835   2.765   5.635   1.573 -0.2404  2.2940  2.1540
  122SAPC  H14C12836   2.852   5.750   1.465  1.2662  0.7939  1.3902
  122SAPC   C1512837   2.923   5.636   1.780  0.0779  0.4103 -0.4103
  122SAPC  H15A12838   2.945   5.536   1.747  0.4695  0.6958 -1.0487
  122SAPC  H15B12839   2.997   5.667   1.853 -1.3261  0.1322  1.1902
  122SAPC  H15C12840   2.832   5.629   1.837  0.2796 -1.7525 -0.2780
  122SAPC   C1112841   3.117   5.876   1.735 -0.5012  0.2212  0.5950
  122SAPC  H11A12842   3.044   5.957   1.756 -0.8949  0.0138  0.0486
  122SAPC  H11B12843   3.205   5.931   1.695 -1.9184  1.4891 -0.9306
  122SAPC     P12844   3.280   5.723   1.883 -0.2081  0.1955 -0.0261
  122SAPC   O1312845   3.245   5.577   1.888 -0.3486  0.3447  0.5739
  122SAPC   O1412846   3.384   5.768   1.784  0.9046  0.3134  0.0099
  122SAPC   O1212847   3.152   5.810   1.855 -0.0562 -0.1959 -0.5214
  122SAPC   O1112848   3.335   5.762   2.028  0.3304 -0.1059  0.2368
  122SAPC    C112849   3.339   5.896   2.065 -1.1156 -0.1509 -0.0626
  122SAPC    HA12850   3.330   5.964   1.977  0.2905  0.6654  0.3985
  122SAPC    HB12851   3.265   5.929   2.140 -1.9618  0.0985 -0.9801
  122SAPC    C212852   3.478   5.938   2.117  1.0206 -0.2051 -0.5851
  122SAPC    HS12853   3.552   5.899   2.043 -1.6766 -2.9748 -2.0776
  122SAPC   O2112854   3.491   5.869   2.246  0.2893 -0.0409  0.1035
  122SAPC   C2112855   3.607   5.829   2.283 -0.0715 -0.1386  0.2492
  122SAPC   O2212856   3.713   5.854   2.225 -0.0329  0.7460 -0.3097
  122SAPC   C2212857   3.588   5.748   2.411 -0.2647 -0.3876  0.3888
  122SAPC   H2R12858   3.566   5.826   2.488 -0.3996 -1.0300  1.0122
  122SAPC   H2S12859   3.497   5.685   2.404  0.9463 -1.9843 -2.3040
  122SAPC    C312860   3.498   6.093   2.122  0.3215 -0.7466 -0.6904
  122SAPC    HX12861   3.497   6.144   2.023  1.1107 -1.7465 -1.2286
  122SAPC    HY12862   3.601   6.103   2.162 -0.1540 -0.2109  0.4656
  122SAPC   O3112863   3.418   6.155   2.222 -0.3200  0.0586 -0.6175
  122SAPC   C3112864   3.367   6.271   2.188 -0.1067  0.1193  0.0970
  122SAPC   O3212865   3.392   6.331   2.085 -0.4750 -0.3884  0.0811
  122SAPC   C3212866   3.256   6.310   2.291  0.5325  0.4438  0.4630
  122SAPC   H2X12867   3.220   6.212   2.331 -1.8595  1.6653  1.5247
  122SAPC   H2Y12868   3.169   6.344   2.231  0.1778 -0.0889  0.6656
  122SAPC   C2312869   3.709   5.670   2.450  0.7014 -0.0081  0.1464
  122SAPC   H3R12870   3.743   5.620   2.357 -1.5110 -0.9418 -0.2476
  122SAPC   H3S12871   3.677   5.593   2.523 -2.0253 -0.0777 -0.9972
  122SAPC   C2412872   3.811   5.755   2.529  0.5295 -0.4151  0.5712
  122SAPC   H4R12873   3.764   5.759   2.629 -0.3842  1.0098  0.1203
  122SAPC   H4S12874   3.820   5.861   2.495  2.2072 -0.7736 -0.2049
  122SAPC   C2512875   3.948   5.703   2.520  0.3058 -0.3046  0.0420
  122SAPC   H5R12876   4.007   5.734   2.432 -0.1303 -1.3548 -0.6547
  122SAPC   C2612877   4.014   5.623   2.607  0.0393  0.0414 -0.4337
  122SAPC   H6R12878   4.120   5.597   2.597  0.7590  2.2383  0.7690
  122SAPC   C2712879   3.948   5.577   2.736 -0.5318 -0.5640 -0.1763
  122SAPC   H7R12880   3.844   5.549   2.707 -0.9728  0.7553  0.0645
  122SAPC   H7S12881   3.936   5.664   2.805 -0.6106 -1.3885  0.8744
  122SAPC   C2812882   4.020   5.461   2.810  0.0438 -0.3698  0.4720
  122SAPC   H8R12883   4.130   5.466   2.812  0.1072 -0.3276 -1.6203
  122SAPC   C2912884   3.961   5.365   2.887 -0.5716 -0.0942  1.1427
  122SAPC   H9R12885   4.030   5.290   2.929  1.4814  2.0734  1.9235
  122SAPC  C21012886   3.812   5.352   2.906  0.7355  0.5290  0.1176
  122SAPC  H10R12887   3.773   5.346   2.802 -2.2883  1.9724  1.0368
  122SAPC  H10S12888   3.775   5.447   2.951  1.7169  0.1499  1.8021
  122SAPC  C21112889   3.768   5.235   2.995  0.7535  0.2741  0.7926
  122SAPC  H11R12890   3.715   5.147   2.957 -0.5102  0.7302  1.4129
  122SAPC  C21212891   3.771   5.231   3.130  0.1102  0.4363 -0.2539
  122SAPC  H12R12892   3.726   5.141   3.175 -3.3165  0.5226 -3.0571
  122SAPC  C21312893   3.822   5.336   3.224  1.1282  0.3703 -0.8713
  122SAPC  H13R12894   3.745   5.348   3.303  1.5467  0.1145 -0.4199
  122SAPC  H13S12895   3.819   5.433   3.170  0.3202  1.4084  0.9456
  122SAPC  C21412896   3.964   5.330   3.267 -0.2811 -0.6796 -0.4451
  122SAPC  H14R12897   4.035   5.379   3.200  1.4688 -2.3565  0.1053
  122SAPC  C21512898   4.011   5.278   3.382  0.7679 -0.2341  0.0970
  122SAPC  H15R12899   4.118   5.296   3.399  0.5447 -0.6929  2.3820
  122SAPC  C21612900   3.923   5.213   3.491 -0.2435 -0.4467  0.1267
  122SAPC  H16R12901   3.983   5.128   3.531 -0.7239 -0.4845  0.7833
  122SAPC  H16S12902   3.838   5.168   3.436  0.0058 -1.2439  0.3677
  122SAPC  C21712903   3.878   5.297   3.609  0.6662 -0.1703  0.0378
  122SAPC  H17R12904   3.799   5.367   3.572 -0.2932 -0.6983  1.0424
  122SAPC  H17S12905   3.962   5.359   3.647  0.9360 -0.6060  0.1542
  122SAPC  C21812906   3.820   5.197   3.715  0.1013 -0.2900  0.2473
  122SAPC  H18R12907   3.891   5.120   3.753  1.1770  0.5043 -0.1019
  122SAPC  H18S12908   3.732   5.155   3.662 -1.7856  3.0615  0.5179
  122SAPC  C21912909   3.770   5.281   3.841  0.1164  0.3356 -0.1100
  122SAPC  H19R12910   3.727   5.378   3.809 -1.6559 -0.2145  0.4836
  122SAPC  H19S12911   3.853   5.324   3.901  0.1993 -1.7525  1.3783
  122SAPC  C22012912   3.682   5.197   3.937  0.0045  0.2634 -0.1727
  122SAPC  H20R12913   3.584   5.181   3.887  0.5316 -0.4916 -1.0028
  122SAPC  H20S12914   3.663   5.257   4.028  1.3179  1.2269 -0.5036
  122SAPC  H20T12915   3.722   5.097   3.964  1.3788  0.9164  0.2806
  122SAPC   C3312916   3.293   6.403   2.399 -0.2412 -0.3613  0.6735
  122SAPC   H3X12917   3.196   6.429   2.446 -1.9293 -1.4293 -1.9922
  122SAPC   H3Y12918   3.343   6.498   2.370 -0.4650 -0.2629  0.6169
  122SAPC   C3412919   3.388   6.336   2.503  0.0752 -0.3011 -0.2206
  122SAPC   H4X12920   3.485   6.321   2.452  0.8804  3.0094  0.1078
  122SAPC   H4Y12921   3.353   6.235   2.531 -2.1494  0.3637 -0.3970
  122SAPC   C3512922   3.421   6.417   2.626  0.3680 -0.9766 -0.8108
  122SAPC   H5X12923   3.451   6.518   2.590  0.4982 -0.0025  1.8580
  122SAPC   H5Y12924   3.504   6.371   2.684  0.1412  0.1891  0.4896
  122SAPC   C3612925   3.300   6.421   2.712  0.1870  0.3201  0.0922
  122SAPC   H6X12926   3.257   6.319   2.715  2.2913 -0.6607 -0.7388
  122SAPC   H6Y12927   3.229   6.493   2.666 -1.0378  0.2070  1.7501
  122SAPC   C3712928   3.323   6.459   2.857  0.9020 -0.1564  0.8247
  122SAPC   H7X12929   3.224   6.493   2.895  1.2351  0.7522  0.9085
  122SAPC   H7Y12930   3.381   6.554   2.853 -0.8179  0.9010 -1.8893
  122SAPC   C3812931   3.379   6.349   2.939  0.3643 -0.1642 -0.4547
  122SAPC   H8X12932   3.407   6.405   3.031 -1.7008  0.3964 -0.1111
  122SAPC   H8Y12933   3.457   6.294   2.882 -1.9168  0.0859 -4.1773
  122SAPC   C3912934   3.274   6.247   2.990 -0.2444 -0.4547 -0.2118
  122SAPC   H9X12935   3.218   6.211   2.901  0.5386  0.1829 -0.9907
  122SAPC   H9Y12936   3.205   6.299   3.059  0.1056 -0.5842  0.2345
  122SAPC  C31012937   3.337   6.120   3.049 -0.5470 -0.1433 -0.3349
  122SAPC  H10X12938   3.395   6.138   3.142  1.4343 -3.6904 -0.7168
  122SAPC  H10Y12939   3.424   6.095   2.984 -0.8406 -1.1787 -0.3554
  122SAPC  C31112940   3.235   6.012   3.068 -0.1110 -0.4165  0.0241
  122SAPC  H11X12941   3.295   5.926   3.107  0.4079 -0.1146 -0.1013
  122SAPC  H11Y12942   3.193   5.978   2.971 -0.5364  0.3825 -0.0758
  122SAPC  C31212943   3.122   6.032   3.168  0.0196  0.1061 -0.6073
  122SAPC  H12X12944   3.054   5.945   3.165  0.0103  0.1319 -2.1059
  122SAPC  H12Y12945   3.066   6.122   3.132  0.2513  0.7781  0.6776
  122SAPC  C31312946   3.155   6.050   3.320  0.1090 -0.6788 -0.3304
  122SAPC  H13X12947   3.252   6.102   3.334 -0.1687 -0.4155  0.6414
  122SAPC  H13Y12948   3.170   5.950   3.366 -0.0690 -0.4390  0.2551
  122SAPC  C31412949   3.042   6.116   3.401  0.4057 -0.1933 -0.3332
  122SAPC  H14X12950   3.023   6.221   3.371 -1.8823 -0.2271  0.7644
  122SAPC  H14Y12951   3.080   6.115   3.506 -0.1879 -2.9671 -0.0597
  122SAPC  C31512952   2.915   6.032   3.416  0.1986  0.3142  0.2341
  122SAPC  H15X12953   2.941   5.935   3.465 -2.3611 -0.2248  0.6857
  122SAPC  H15Y12954   2.883   6.019   3.311 -1.7567  0.9426  0.7051
  122SAPC  C31612955   2.805   6.106   3.487 -0.3151 -0.3601 -0.8636
  122SAPC  H16X12956   2.708   6.073   3.443 -1.2473  1.9282 -0.6772
  122SAPC  H16Y12957   2.812   6.216   3.474 -3.1075 -0.1005 -0.7544
  122SAPC  C31712958   2.795   6.082   3.643  0.8636  0.0317  0.5124
  122SAPC  H17X12959   2.884   6.131   3.689  0.2198  0.4018  1.3929
  122SAPC  H17Y12960   2.807   5.973   3.658  1.7358 -0.1776 -1.4463
  122SAPC  C31812961   2.654   6.134   3.701 -0.1615 -0.0905 -0.5180
  122SAPC  H18X12962   2.643   6.244   3.688 -1.0426 -0.4775 -4.3859
  122SAPC  H18Y12963   2.644   6.107   3.808  1.2935  0.7294 -0.1434
  122SAPC  H18Z12964   2.581   6.085   3.633  1.1885 -0.8029 -1.5155
  123SAPC     N12965   4.557   6.715   2.173  0.4481 -0.1007  0.1358
  123SAPC   C1212966   4.609   6.578   2.128 -0.6382 -0.1026  0.5122
  123SAPC  H12A12967   4.715   6.594   2.120 -0.8493  0.6895 -1.0397
  123SAPC  H12B12968   4.567   6.557   2.031 -2.8404 -0.4905  1.4836
  123SAPC   C1312969   4.619   6.827   2.099 -0.1362  0.5751 -0.8166
  123SAPC  H13A12970   4.589   6.821   1.995 -1.9825  1.5549 -0.3849
  123SAPC  H13B12971   4.579   6.921   2.134  0.4642  0.9268 -1.0762
  123SAPC  H13C12972   4.726   6.828   2.109 -0.3594  2.2420  3.7093
  123SAPC   C1412973   4.404   6.724   2.179 -0.3137 -0.2306 -0.3539
  123SAPC  H14A12974   4.370   6.710   2.077 -0.4218  1.5149 -0.5966
  123SAPC  H14B12975   4.370   6.641   2.238 -1.3322  0.1583 -0.3697
  123SAPC  H14C12976   4.384   6.816   2.232  2.6569 -0.7838  1.9509
  123SAPC   C1512977   4.603   6.739   2.318 -0.2038  0.1659  0.6575
  123SAPC  H15A12978   4.707   6.709   2.311 -0.7018 -1.2850 -2.9260
  123SAPC  H15B12979   4.594   6.842   2.350 -0.3053  0.8662 -1.4740
  123SAPC  H15C12980   4.544   6.671   2.376 -0.6263  0.0683  0.1184
  123SAPC   C1112981   4.591   6.451   2.216 -0.3761  0.8135 -0.3045
  123SAPC  H11A12982   4.642   6.482   2.311  1.3782 -1.1498 -0.5431
  123SAPC  H11B12983   4.655   6.371   2.174  0.8443 -0.2890  3.2502
  123SAPC     P12984   4.386   6.293   2.155  0.6215  0.0012 -0.0679
  123SAPC   O1312985   4.237   6.325   2.161 -0.8213 -0.3977  0.1405
  123SAPC   O1412986   4.446   6.291   2.020  0.4760 -0.1850  0.0813
  123SAPC   O1212987   4.454   6.420   2.228 -0.3289  0.3229 -0.2866
  123SAPC   O1112988   4.420   6.163   2.234 -0.0224 -0.3330 -0.3665
  123SAPC    C112989   4.478   6.160   2.358 -0.8890  0.3988 -0.7744
  123SAPC    HA12990   4.546   6.073   2.365 -2.0114 -0.3740  1.1525
  123SAPC    HB12991   4.553   6.242   2.357 -0.1546 -0.2557 -0.2656
  123SAPC    C212992   4.386   6.155   2.477  0.4768 -0.3539 -0.3872
  123SAPC    HS12993   4.324   6.247   2.472  1.5523  0.4167 -0.0068
  123SAPC   O2112994   4.455   6.141   2.599 -0.3667 -0.2954 -0.3703
  123SAPC   C2112995   4.511   6.245   2.650 -0.2639 -0.3633 -0.3159
  123SAPC   O2212996   4.514   6.363   2.606 -0.2591  0.2685 -0.2809
  123SAPC   C2212997   4.574   6.198   2.782 -0.2280  0.1353  0.1887
  123SAPC   H2R12998   4.649   6.120   2.757 -1.2474 -0.0219 -2.7592
  123SAPC   H2S12999   4.617   6.286   2.833  0.3956 -1.9016  3.4661
  123SAPC    C313000   4.307   6.024   2.466 -0.0509  0.4490  0.3615
  123SAPC    HX13001   4.387   5.947   2.460 -0.4582  0.0474 -0.0496
  123SAPC    HY13002   4.256   6.035   2.368 -1.8389  0.7918  1.2695
  123SAPC   O3113003   4.214   5.990   2.572  0.9765  0.1746 -0.1307
  123SAPC   C3113004   4.247   5.894   2.658 -0.7367  0.7495  0.4413
  123SAPC   O3213005   4.320   5.802   2.624  0.4529  0.9650 -0.0007
  123SAPC   C3213006   4.180   5.910   2.791 -0.1364  0.0172 -0.7190
  123SAPC   H2X13007   4.069   5.900   2.802  0.1049  0.5232  4.2712
  123SAPC   H2Y13008   4.204   6.012   2.826  0.0850  0.8126 -3.0079
  123SAPC   C2313009   4.478   6.125   2.879  0.3899  0.4477  0.5176
  123SAPC   H3R13010   4.542   6.094   2.963 -0.6353  1.3013  1.6495
  123SAPC   H3S13011   4.426   6.039   2.832 -1.2767  0.0576  2.9117
  123SAPC   C2413012   4.370   6.219   2.939 -0.4739 -0.3817 -0.3597
  123SAPC   H4R13013   4.296   6.158   2.996 -0.2824 -0.0008  0.3179
  123SAPC   H4S13014   4.317   6.268   2.855  0.6921  0.3373 -0.6995
  123SAPC   C2513015   4.426   6.338   3.017  0.1339 -0.0314  0.3031
  123SAPC   H5R13016   4.431   6.430   2.958 -0.5801  0.6288  1.2421
  123SAPC   C2613017   4.455   6.348   3.147 -0.3550  0.2687  0.8690
  123SAPC   H6R13018   4.488   6.446   3.184  0.1404  1.1941 -1.7867
  123SAPC   C2713019   4.438   6.235   3.246 -0.3592 -0.1911 -0.1987
  123SAPC   H7R13020   4.540   6.216   3.287 -0.4353 -0.8577 -0.2963
  123SAPC   H7S13021   4.405   6.141   3.197  0.1376  0.1676 -1.2563
  123SAPC   C2813022   4.347   6.282   3.349 -0.1727  0.3952  0.2874
  123SAPC   H8R13023   4.270   6.354   3.318 -2.1708 -1.2597  1.1385
  123SAPC   C2913024   4.348   6.246   3.479  0.0118  0.4085 -0.1219
  123SAPC   H9R13025   4.286   6.304   3.549 -2.3755 -0.1572 -1.6567
  123SAPC  C21013026   4.448   6.151   3.545 -0.5885  0.5437  0.0152
  123SAPC  H10R13027   4.492   6.198   3.636 -0.5496  1.0416 -0.2568
  123SAPC  H10S13028   4.537   6.113   3.491 -0.0102 -1.9562  2.4516
  123SAPC  C21113029   4.371   6.021   3.581  0.3958  0.4839  0.0183
  123SAPC  H11R13030   4.310   5.985   3.497 -0.8477  1.3086  0.5427
  123SAPC  C21213031   4.365   5.936   3.689  0.7378  0.5914 -0.3381
  123SAPC  H12R13032   4.288   5.857   3.693  1.4368 -0.0597  2.3775
  123SAPC  C21313033   4.437   5.949   3.822 -0.3752 -0.3662  0.3045
  123SAPC  H13R13034   4.444   6.057   3.848 -0.9376 -0.2851  0.1376
  123SAPC  H13S13035   4.541   5.926   3.791 -0.5351 -1.6842  0.6824
  123SAPC  C21413036   4.392   5.867   3.941  0.3549 -0.7766 -0.1898
  123SAPC  H14R13037   4.427   5.763   3.942 -0.5420 -1.0929  1.0036
  123SAPC  C21513038   4.328   5.906   4.053 -0.2933 -0.1483 -0.3905
  123SAPC  H15R13039   4.303   5.836   4.133 -1.4589 -1.6855 -2.0235
  123SAPC  C21613040   4.286   6.045   4.084 -0.0401  0.0133  0.4819
  123SAPC  H16R13041   4.175   6.043   4.078  0.0065 -1.4695 -0.4134
  123SAPC  H16S13042   4.320   6.110   4.001 -1.6339 -0.0468 -0.2506
  123SAPC  C21713043   4.354   6.106   4.204  0.1921 -0.4789  0.2256
  123SAPC  H17R13044   4.303   6.203   4.221  1.9285  0.1788  2.0388
  123SAPC  H17S13045   4.463   6.128   4.200  0.3030 -1.1174 -0.3498
  123SAPC  C21813046   4.337   6.019   4.325 -0.0105  0.7868 -0.3944
  123SAPC  H18R13047   4.414   5.940   4.311  1.3576  2.0101 -0.0576
  123SAPC  H18S13048   4.236   5.976   4.340 -0.1684  0.5150 -2.1072
  123SAPC  C21913049   4.387   6.104   4.450 -0.1649 -0.4276  0.4689
  123SAPC  H19R13050   4.454   6.183   4.411 -0.4019  0.6557  2.1535
  123SAPC  H19S13051   4.447   6.034   4.511  0.1802 -0.8497 -0.3383
  123SAPC  C22013052   4.279   6.188   4.524  0.5714  0.2981  0.0707
  123SAPC  H20R13053   4.221   6.247   4.450  0.7773 -1.6192 -1.7293
  123SAPC  H20S13054   4.324   6.245   4.608 -1.7337  0.5391  1.2026
  123SAPC  H20T13055   4.216   6.110   4.572  1.5668 -0.3836  0.3121
  123SAPC   C3313056   4.248   5.808   2.890  0.6133  0.2910  0.4398
  123SAPC   H3X13057   4.357   5.824   2.900  0.8697 -0.4574 -0.9097
  123SAPC   H3Y13058   4.233   5.706   2.849  0.7105  0.1403  0.7814
  123SAPC   C3413059   4.197   5.818   3.034 -0.4069 -0.1898  0.5137
  123SAPC   H4X13060   4.091   5.786   3.047 -0.8851  1.6372  1.5899
  123SAPC   H4Y13061   4.188   5.927   3.055 -1.5123 -0.0340 -0.6309
  123SAPC   C3513062   4.295   5.757   3.131  1.4353  0.0859 -0.6068
  123SAPC   H5X13063   4.396   5.789   3.099  1.7273 -0.9427 -0.7777
  123SAPC   H5Y13064   4.284   5.647   3.118  2.2775 -0.4907  2.6771
  123SAPC   C3613065   4.257   5.799   3.273 -0.6811  0.2390 -0.4863
  123SAPC   H6X13066   4.260   5.910   3.287 -0.5294  0.0664  1.0305
  123SAPC   H6Y13067   4.330   5.757   3.345 -0.0064  1.6355 -0.3139
  123SAPC   C3713068   4.110   5.759   3.321  0.1673  0.2655  0.5070
  123SAPC   H7X13069   4.092   5.664   3.266 -1.7309 -0.3551  2.0953
  123SAPC   H7Y13070   4.032   5.829   3.287 -1.6149 -0.6344  2.5134
  123SAPC   C3813071   4.102   5.763   3.468 -0.7159  0.0735 -0.8119
  123SAPC   H8X13072   4.117   5.866   3.507  0.5368 -0.6984  0.9538
  123SAPC   H8Y13073   4.179   5.699   3.516 -2.1144  0.1353  1.6879
  123SAPC   C3913074   3.972   5.704   3.528  0.1946  0.2341 -0.1375
  123SAPC   H9X13075   3.959   5.600   3.490  2.6951 -0.2650  0.1925
  123SAPC   H9Y13076   3.881   5.765   3.508 -1.0147 -0.8201  1.8304
  123SAPC  C31013077   3.974   5.692   3.684 -0.2155  0.7350 -0.6428
  123SAPC  H10X13078   4.074   5.653   3.713 -0.2326 -0.4741 -2.1015
  123SAPC  H10Y13079   3.903   5.611   3.710  1.5562 -0.0046  2.4429
  123SAPC  C31113080   3.934   5.813   3.762  0.0961 -0.1765 -0.1479
  123SAPC  H11X13081   3.829   5.837   3.736  0.7618  2.0495 -0.9864
  123SAPC  H11Y13082   3.990   5.907   3.744  0.2535  0.0260  1.2850
  123SAPC  C31213083   3.934   5.784   3.917 -0.4327 -0.0398  0.7217
  123SAPC  H12X13084   4.040   5.761   3.941 -0.0024  0.8266 -0.2872
  123SAPC  H12Y13085   3.863   5.702   3.941 -1.0766  0.9574  2.3657
  123SAPC  C31313086   3.889   5.893   4.024 -0.7459 -1.1700 -1.0163
  123SAPC  H13X13087   3.797   5.937   3.981  1.2214  2.6599 -1.6808
  123SAPC  H13Y13088   3.957   5.980   4.032 -3.3034  0.7830  0.9988
  123SAPC  C31413089   3.889   5.829   4.165  0.5147 -0.2121 -0.6422
  123SAPC  H14X13090   3.991   5.788   4.181  0.9118 -0.2959 -3.0164
  123SAPC  H14Y13091   3.823   5.741   4.155 -2.2745  1.8163 -1.2647
  123SAPC  C31513092   3.839   5.927   4.276  0.5819  0.6481 -0.2961
  123SAPC  H15X13093   3.730   5.941   4.261 -0.3651 -3.0868  1.8115
  123SAPC  H15Y13094   3.888   6.027   4.280  0.1955  0.8313  0.0123
  123SAPC  C31613095   3.843   5.867   4.413 -0.3298  0.6708 -0.2441
  123SAPC  H16X13096   3.945   5.835   4.445 -0.8816  0.6792  1.6357
  123SAPC  H16Y13097   3.771   5.783   4.416 -0.3749  0.7229  0.3119
  123SAPC  C31713098   3.792   5.964   4.524 -1.0123 -0.9361  0.1262
  123SAPC  H17X13099   3.689   5.996   4.497 -0.0166  2.1660 -0.2991
  123SAPC  H17Y13100   3.853   6.057   4.518 -0.1195 -1.4113  1.3050
  123SAPC  C31813101   3.787   5.898   4.665  0.0127 -0.5150 -0.1973
  123SAPC  H18X13102   3.760   5.792   4.646  0.1654 -0.3417 -1.4707
  123SAPC  H18Y13103   3.707   5.947   4.725 -0.7234 -0.9116 -0.8413
  123SAPC  H18Z13104   3.887   5.894   4.714 -0.2234 -0.6368  0.2765
  124SAPC     N13105   5.829   3.820   1.865 -0.3405  0.1944  0.1587
  124SAPC   C1213106   5.818   3.855   2.018  0.3298  0.8410 -0.8776
  124SAPC  H12A13107   5.718   3.894   2.032  0.7437  2.1811 -1.5462
  124SAPC  H12B13108   5.883   3.938   2.042 -2.0505  1.7729  3.1278
  124SAPC   C1313109   5.820   3.948   1.787 -0.2686 -1.3183 -0.2056
  124SAPC  H13A13110   5.717   3.982   1.790 -0.2703 -1.1564 -1.4714
  124SAPC  H13B13111   5.885   4.015   1.840 -1.4945 -1.7838  1.9971
  124SAPC  H13C13112   5.854   3.939   1.685  0.7242 -0.6585  0.0594
  124SAPC   C1413113   5.968   3.752   1.833 -1.0035  0.4563  0.4689
  124SAPC  H14A13114   6.050   3.812   1.868  0.0878 -1.7172  1.8513
  124SAPC  H14B13115   5.984   3.659   1.884  1.5788  0.8073  0.3971
  124SAPC  H14C13116   5.984   3.730   1.728 -0.8264 -2.6339  1.0616
  124SAPC   C1513117   5.725   3.726   1.817 -0.3822 -0.2235 -0.3130
  124SAPC  H15A13118   5.626   3.769   1.827  0.1701  0.6812  1.6589
  124SAPC  H15B13119   5.731   3.691   1.715  0.9256 -0.9284 -0.0102
  124SAPC  H15C13120   5.733   3.634   1.874  2.7489  0.0597 -0.1172
  124SAPC   C1113121   5.833   3.731   2.107 -0.1939 -0.4273 -0.0204
  124SAPC  H11A13122   5.863   3.753   2.211 -2.7997  2.3111  0.2876
  124SAPC  H11B13123   5.915   3.662   2.077 -0.4790 -0.1288 -1.6122
  124SAPC     P13124   5.572   3.721   2.177  0.3241  0.3430 -0.5344
  124SAPC   O1313125   5.522   3.833   2.094 -0.6516 -0.1324 -0.2580
  124SAPC   O1413126   5.483   3.602   2.198  0.2966 -0.0201  0.2124
  124SAPC   O1213127   5.700   3.663   2.106 -0.4977 -0.5187  0.5070
  124SAPC   O1113128   5.628   3.780   2.309 -0.4932  0.0691  0.1627
  124SAPC    C113129   5.653   3.681   2.416  0.1069  0.5566  0.4110
  124SAPC    HA13130   5.627   3.575   2.398 -0.0511  0.5153  0.8582
  124SAPC    HB13131   5.762   3.684   2.439  0.3629  0.4159 -0.7177
  124SAPC    C213132   5.579   3.716   2.544  0.4388  0.3876  0.2227
  124SAPC    HS13133   5.552   3.823   2.550  1.7828  0.9105 -1.9432
  124SAPC   O2113134   5.656   3.678   2.667  0.7076  0.3782 -0.0116
  124SAPC   C2113135   5.761   3.743   2.688 -0.7907  0.7343 -0.0760
  124SAPC   O2213136   5.800   3.844   2.628  0.6622 -0.0651  0.0053
  124SAPC   C2213137   5.851   3.671   2.807  1.6272 -0.2871  1.0195
  124SAPC   H2R13138   5.781   3.664   2.893 -0.2093  3.8908  0.1386
  124SAPC   H2S13139   5.872   3.571   2.763  1.0878 -0.1310  0.3741
  124SAPC    C313140   5.441   3.639   2.550 -0.3960 -0.7558  0.8977
  124SAPC    HX13141   5.469   3.533   2.533  1.5650  0.1639 -2.7393
  124SAPC    HY13142   5.379   3.678   2.466 -1.3009  0.5110  2.1080
  124SAPC   O3113143   5.363   3.683   2.670  0.3933  0.0397  0.3837
  124SAPC   C3113144   5.353   3.593   2.779 -0.3024 -0.0203 -0.2361
  124SAPC   O3213145   5.407   3.485   2.788 -0.5649  0.6967 -0.2781
  124SAPC   C3213146   5.258   3.656   2.876 -0.0380 -0.1055 -0.2646
  124SAPC   H2X13147   5.218   3.574   2.940  1.7812 -2.4167 -1.9294
  124SAPC   H2Y13148   5.171   3.691   2.816 -1.1375 -2.6421 -0.2599
  124SAPC   C2313149   5.976   3.759   2.838  0.6007  0.7623  0.3130
  124SAPC   H3R13150   6.025   3.799   2.747  0.2897 -0.2111 -0.2863
  124SAPC   H3S13151   6.053   3.701   2.892  1.1361  0.6198 -0.5963
  124SAPC   C2413152   5.955   3.882   2.933  0.5374 -0.2262 -1.1288
  124SAPC   H4R13153   6.054   3.931   2.940  0.3838 -0.1518  1.2756
  124SAPC   H4S13154   5.948   3.837   3.034  0.3340 -0.4370 -1.2371
  124SAPC   C2513155   5.846   3.978   2.898 -0.5783 -0.0231  0.2869
  124SAPC   H5R13156   5.871   4.029   2.803  2.2471  1.9935  1.9164
  124SAPC   C2613157   5.728   4.002   2.955  0.1603 -0.0054 -0.4265
  124SAPC   H6R13158   5.675   4.086   2.908 -1.1921 -1.5302 -1.7818
  124SAPC   C2713159   5.669   3.932   3.082 -0.5541 -0.0876 -0.0047
  124SAPC   H7R13160   5.692   3.823   3.083  2.3517  0.3883 -2.0604
  124SAPC   H7S13161   5.559   3.936   3.068 -1.0911 -2.4023  2.6621
  124SAPC   C2813162   5.715   3.993   3.208  0.2443  0.0897  0.4386
  124SAPC   H8R13163   5.736   4.101   3.212  1.7808 -0.2047  0.6991
  124SAPC   C2913164   5.723   3.942   3.332 -0.2864  0.0949  0.4111
  124SAPC   H9R13165   5.775   4.001   3.408  0.6784 -0.5077  0.2345
  124SAPC  C21013166   5.683   3.796   3.350 -0.0885 -0.2484 -0.2298
  124SAPC  H10R13167   5.632   3.755   3.260  1.3856 -0.6710 -0.9089
  124SAPC  H10S13168   5.604   3.795   3.428  1.6569 -0.2050  1.6284
  124SAPC  C21113169   5.798   3.697   3.377 -0.6173  0.4644  0.7149
  124SAPC  H11R13170   5.832   3.636   3.292 -0.1743  1.1057  0.4316
  124SAPC  C21213171   5.856   3.671   3.497 -0.1406 -0.0153 -0.5284
  124SAPC  H12R13172   5.929   3.589   3.507 -0.9081 -0.6574 -0.0897
  124SAPC  C21313173   5.833   3.756   3.625  0.3601  0.5933  0.5754
  124SAPC  H13R13174   5.760   3.702   3.689  1.4362  0.2899  1.5994
  124SAPC  H13S13175   5.782   3.849   3.592 -2.3285 -1.3052 -1.0294
  124SAPC  C21413176   5.957   3.787   3.699  0.1600  0.7553 -0.7551
  124SAPC  H14R13177   5.999   3.888   3.688  1.7056  0.1944 -0.2664
  124SAPC  C21513178   6.025   3.696   3.777  0.5221 -0.1262 -0.0434
  124SAPC  H15R13179   6.112   3.747   3.820 -0.2044  2.6116 -1.5916
  124SAPC  C21613180   6.001   3.546   3.794  0.1935  0.1860 -0.3107
  124SAPC  H16R13181   5.902   3.520   3.750  0.3904  0.8055 -1.1442
  124SAPC  H16S13182   6.001   3.531   3.904  1.9551 -2.6278 -0.5764
  124SAPC  C21713183   6.105   3.458   3.724 -0.9485 -0.5437 -0.0572
  124SAPC  H17R13184   6.207   3.482   3.761 -0.7835 -0.7845 -0.3462
  124SAPC  H17S13185   6.106   3.467   3.614  0.6474 -2.5870 -0.2868
  124SAPC  C21813186   6.071   3.316   3.774 -1.0297 -0.4141 -0.8701
  124SAPC  H18R13187   5.980   3.284   3.719 -0.5361 -0.2824 -1.7800
  124SAPC  H18S13188   6.040   3.318   3.881 -0.3688 -1.8144 -0.6312
  124SAPC  C21913189   6.177   3.207   3.743  0.3339  0.1147  0.3470
  124SAPC  H19R13190   6.261   3.218   3.814  2.1054  0.7268 -1.7304
  124SAPC  H19S13191   6.218   3.221   3.641  2.2947 -0.0798  1.0671
  124SAPC  C22013192   6.122   3.064   3.753 -0.0437 -0.2497 -0.2711
  124SAPC  H20R13193   6.127   3.025   3.649  0.3825 -2.1232  0.4212
  124SAPC  H20S13194   6.015   3.064   3.784 -0.0683  0.0346 -0.3529
  124SAPC  H20T13195   6.182   3.007   3.827 -2.6308 -1.6297  0.8962
  124SAPC   C3313196   5.323   3.770   2.958  0.0203 -0.3804 -0.2169
  124SAPC   H3X13197   5.382   3.828   2.884  0.0567  0.1290  0.1998
  124SAPC   H3Y13198   5.387   3.733   3.041 -0.7962 -0.8827  0.2010
  124SAPC   C3413199   5.225   3.866   3.027 -0.1744  1.0606  0.3596
  124SAPC   H4X13200   5.161   3.805   3.093  0.9374  1.7553  2.1621
  124SAPC   H4Y13201   5.161   3.918   2.953 -0.5402  0.5946  0.3525
  124SAPC   C3513202   5.290   3.983   3.107 -0.0939  0.9775 -0.4050
  124SAPC   H5X13203   5.350   4.036   3.030  0.5585 -0.4067 -0.8676
  124SAPC   H5Y13204   5.369   3.936   3.169  0.6948  1.3915 -1.0842
  124SAPC   C3613205   5.204   4.072   3.189 -0.6745 -0.3230 -0.0099
  124SAPC   H6X13206   5.133   4.026   3.260  0.2837 -1.8625 -0.0169
  124SAPC   H6Y13207   5.139   4.121   3.114  1.2575 -0.7051 -2.0460
  124SAPC   C3713208   5.281   4.185   3.263 -0.6321  0.2276 -0.7949
  124SAPC   H7X13209   5.202   4.259   3.287  0.6729  1.3342  0.2128
  124SAPC   H7Y13210   5.350   4.231   3.189 -0.5957 -1.6502 -2.0135
  124SAPC   C3813211   5.354   4.139   3.394 -0.4494 -0.4091  0.3550
  124SAPC   H8X13212   5.443   4.201   3.418  2.2275 -3.2869 -1.2545
  124SAPC   H8Y13213   5.384   4.034   3.372  0.3420 -0.7299  2.7170
  124SAPC   C3913214   5.272   4.132   3.521  0.5814  0.3625 -0.2658
  124SAPC   H9X13215   5.193   4.058   3.500  1.1498 -0.3972  0.2123
  124SAPC   H9Y13216   5.229   4.230   3.554 -0.8764 -0.9216  1.8762
  124SAPC  C31013217   5.354   4.083   3.642 -0.0471 -0.2932  0.7854
  124SAPC  H10X13218   5.434   4.156   3.669  0.1143 -0.1092 -0.1733
  124SAPC  H10Y13219   5.391   3.979   3.631  1.7346  0.4739 -1.3316
  124SAPC  C31113220   5.267   4.084   3.766  0.8740 -0.0412 -0.8336
  124SAPC  H11X13221   5.178   4.149   3.754  0.7776 -0.4114 -2.2696
  124SAPC  H11Y13222   5.325   4.117   3.855 -1.2784 -2.1653  1.5582
  124SAPC  C31213223   5.212   3.942   3.793  0.7865 -0.7076 -0.3149
  124SAPC  H12X13224   5.290   3.874   3.833  0.8375  1.2286  3.3485
  124SAPC  H12Y13225   5.182   3.901   3.695 -3.0793 -1.3303  0.9785
  124SAPC  C31313226   5.091   3.949   3.890 -0.0044 -0.0901 -0.7122
  124SAPC  H13X13227   5.033   4.038   3.856  2.0285  0.9648 -1.5521
  124SAPC  H13Y13228   5.131   3.967   3.992 -0.6794 -2.5196  0.0537
  124SAPC  C31413229   4.999   3.832   3.887 -0.0011  0.7492 -0.1441
  124SAPC  H14X13230   5.068   3.746   3.875 -1.2005 -0.6883  2.6170
  124SAPC  H14Y13231   4.934   3.829   3.797 -0.5005 -0.3918  0.2384
  124SAPC  C31513232   4.905   3.820   4.003  0.1558 -0.0235  0.3910
  124SAPC  H15X13233   4.833   3.904   4.012  0.1598 -0.1481  1.8010
  124SAPC  H15Y13234   4.965   3.827   4.096  1.7540 -1.7535 -0.4339
  124SAPC  C31613235   4.831   3.689   4.011  0.5369  0.2533 -0.6117
  124SAPC  H16X13236   4.901   3.602   4.012  0.7668  0.4145 -1.5633
  124SAPC  H16Y13237   4.770   3.683   3.918 -1.6403  0.6688  0.7261
  124SAPC  C31713238   4.740   3.672   4.135 -0.3447 -0.3185 -0.5084
  124SAPC  H17X13239   4.679   3.580   4.130 -1.9388  0.7584 -2.1807
  124SAPC  H17Y13240   4.666   3.755   4.139  0.7749  0.6697  2.0897
  124SAPC  C31813241   4.822   3.669   4.269  0.5193  0.5734 -0.3857
  124SAPC  H18X13242   4.879   3.764   4.279 -0.3841  0.9765  1.4577
  124SAPC  H18Y13243   4.898   3.589   4.277  0.1658  0.3060  0.4395
  124SAPC  H18Z13244   4.754   3.659   4.356 -0.5677 -0.9803 -1.3643
  125SOPE     N13245   4.777   4.144   6.548  0.0707 -0.3764 -0.1884
  125SOPE   HN113246   4.743   4.054   6.510  0.7021 -0.9235  0.4991
  125SOPE   HN213247   4.858   4.182   6.495  0.0900 -0.3335 -0.1294
  125SOPE   HN313248   4.815   4.132   6.644  0.1239  2.5494  0.2428
  125SOPE   C1213249   4.654   4.231   6.566 -0.0150 -0.1993 -0.0812
  125SOPE  H12A13250   4.602   4.195   6.657  0.7434 -2.2448 -0.3972
  125SOPE  H12B13251   4.591   4.204   6.479 -0.2306 -0.4552  0.1543
  125SOPE   C1113252   4.670   4.388   6.555 -0.1430 -1.0903  0.1952
  125SOPE  H11A13253   4.739   4.434   6.628 -0.2758 -0.8070  0.1448
  125SOPE  H11B13254   4.567   4.422   6.580 -0.5704 -1.7272 -0.6373
  125SOPE     P13255   4.681   4.543   6.347  0.2737  0.0211 -0.0667
  125SOPE   O1313256   4.733   4.516   6.212  0.0327 -0.3510 -1.0136
  125SOPE   O1413257   4.732   4.663   6.418 -0.2969  0.2895 -0.4151
  125SOPE   O1213258   4.705   4.410   6.420 -0.1204 -0.1268 -0.1490
  125SOPE   O1113259   4.516   4.548   6.348 -0.4985  0.1396 -0.1529
  125SOPE    C113260   4.443   4.469   6.253  0.1503  0.0101 -0.0206
  125SOPE    HA13261   4.351   4.452   6.313  0.8482  0.5613  1.2425
  125SOPE    HB13262   4.497   4.374   6.238  0.6591  0.2713  0.1348
  125SOPE    C213263   4.413   4.546   6.127  0.3923 -0.5220  0.0313
  125SOPE    HS13264   4.330   4.499   6.070 -0.3266 -1.2905  1.6183
  125SOPE   O2113265   4.530   4.559   6.040 -0.2970 -0.2586 -0.4016
  125SOPE   C2113266   4.575   4.441   5.989  0.5462 -0.7668 -0.0848
  125SOPE   O2213267   4.515   4.338   5.991  0.2924  0.2101  0.0207
  125SOPE   C2213268   4.710   4.460   5.920 -0.4243  0.1670 -0.7674
  125SOPE   H2R13269   4.774   4.389   5.976  2.8637  2.8525 -0.7829
  125SOPE   H2S13270   4.743   4.566   5.933  2.1003 -0.6003 -0.3224
  125SOPE    C313271   4.353   4.687   6.161 -0.3395  0.2334  0.2979
  125SOPE    HX13272   4.421   4.732   6.237  0.3037 -1.9454  1.0930
  125SOPE    HY13273   4.253   4.682   6.209  0.5140  1.5899  2.3286
  125SOPE   O3113274   4.345   4.787   6.056 -0.0201 -0.1045  0.4837
  125SOPE   C3113275   4.250   4.752   5.966  0.2040 -0.1798  0.4065
  125SOPE   O3213276   4.191   4.647   5.960 -0.4136 -0.7064 -0.6796
  125SOPE   C3213277   4.239   4.866   5.862 -0.2392  0.0968  0.0965
  125SOPE   H2X13278   4.338   4.914   5.845  0.0949 -0.4437  0.4824
  125SOPE   H2Y13279   4.180   4.944   5.914  2.7227  2.4061  0.2563
  125SOPE   C2313280   4.706   4.414   5.774  0.0308 -0.0216 -0.0904
  125SOPE   H3R13281   4.663   4.312   5.768  2.3004 -0.9897 -2.2890
  125SOPE   H3S13282   4.813   4.412   5.743  0.6888  1.2677  1.9404
  125SOPE   C2413283   4.624   4.497   5.673  0.0524  0.5146 -0.4186
  125SOPE   H4R13284   4.631   4.449   5.573 -0.4792  1.8799 -1.1362
  125SOPE   H4S13285   4.518   4.485   5.703  0.0931 -3.6492 -1.2308
  125SOPE   C2513286   4.654   4.648   5.680  0.2870 -0.1497  0.2785
  125SOPE   H5R13287   4.585   4.680   5.762 -1.3512 -1.2963 -0.5991
  125SOPE   H5S13288   4.761   4.669   5.699  0.9621 -0.7407 -2.4792
  125SOPE   C2613289   4.611   4.712   5.553 -0.1059 -0.6119  0.0536
  125SOPE   H6R13290   4.675   4.678   5.468  0.3598 -0.7681  0.4629
  125SOPE   H6S13291   4.510   4.682   5.517  0.5436 -3.7894  0.5893
  125SOPE   C2713292   4.608   4.865   5.564 -0.4377 -0.3214  0.2328
  125SOPE   H7R13293   4.539   4.878   5.649  1.6583  1.6124  1.7555
  125SOPE   H7S13294   4.710   4.902   5.589  0.0524 -1.2962 -0.2473
  125SOPE   C2813295   4.547   4.939   5.443 -0.0365 -0.0729  0.0958
  125SOPE   H8R13296   4.447   4.901   5.415  0.5475  0.1579 -2.5384
  125SOPE   H8S13297   4.520   5.044   5.466 -1.1948 -0.0658 -1.2057
  125SOPE   C2913298   4.644   4.941   5.331  0.0009  0.0937 -0.1081
  125SOPE   H9113299   4.749   4.965   5.355 -0.8290  1.4442  2.5581
  125SOPE  C21013300   4.606   4.924   5.202 -0.1044 -0.0786 -0.2709
  125SOPE  H10113301   4.684   4.918   5.125 -0.5236  3.3092 -1.1507
  125SOPE  C21113302   4.464   4.918   5.148 -0.0890 -0.4040 -0.1943
  125SOPE  H11R13303   4.403   4.998   5.195 -0.2127 -1.8586  2.2771
  125SOPE  H11S13304   4.409   4.826   5.177  0.6720 -1.2282 -1.3046
  125SOPE  C21213305   4.456   4.937   4.994  0.2465  0.2335 -0.4281
  125SOPE  H12R13306   4.493   5.038   4.965  1.5641 -0.0351  0.2729
  125SOPE  H12S13307   4.348   4.936   4.967 -0.8206 -4.6750  2.7728
  125SOPE  C21313308   4.532   4.827   4.919 -0.4933 -0.3947 -0.1344
  125SOPE  H13R13309   4.498   4.728   4.955 -1.7720  0.6401  1.6694
  125SOPE  H13S13310   4.637   4.844   4.950 -1.0302  2.9876  0.2094
  125SOPE  C21413311   4.527   4.844   4.772 -0.2308 -0.4053  0.0779
  125SOPE  H14R13312   4.613   4.800   4.719  0.4619  0.1250  0.7414
  125SOPE  H14S13313   4.535   4.951   4.744 -0.1959 -0.4089  0.0731
  125SOPE  C21513314   4.390   4.793   4.713  1.1298 -0.2644 -0.5309
  125SOPE  H15R13315   4.302   4.832   4.769  2.2563 -0.2216  1.3143
  125SOPE  H15S13316   4.386   4.682   4.727 -1.6479 -0.4382 -2.0890
  125SOPE  C21613317   4.383   4.818   4.564  0.7051 -0.0673 -0.2719
  125SOPE  H16R13318   4.485   4.824   4.520  0.2588  0.2571 -1.2832
  125SOPE  H16S13319   4.340   4.920   4.569 -1.2391 -0.9020  2.3644
  125SOPE  C21713320   4.302   4.711   4.491 -0.0948  0.0355  0.7355
  125SOPE  H17R13321   4.195   4.733   4.510 -0.4521 -0.6926 -0.3027
  125SOPE  H17S13322   4.326   4.609   4.528  0.7429  0.3319  1.0443
  125SOPE  C21813323   4.308   4.719   4.342 -0.5644  1.4073  0.7511
  125SOPE  H18R13324   4.408   4.689   4.304 -1.9143 -2.2887 -0.4215
  125SOPE  H18S13325   4.266   4.807   4.290 -0.2021  0.4377 -1.2957
  125SOPE  H18T13326   4.247   4.630   4.314  0.0226  0.2060  3.0553
  125SOPE   C3313327   4.169   4.808   5.733  0.0741  0.2614  0.3965
  125SOPE   H3X13328   4.070   4.767   5.764  0.8742 -1.8798  0.2492
  125SOPE   H3Y13329   4.237   4.730   5.693  0.4087  0.5654  0.3685
  125SOPE   C3413330   4.147   4.914   5.627  0.0108  0.0579  0.2531
  125SOPE   H4X13331   4.247   4.953   5.598  0.5403 -1.7162 -0.4864
  125SOPE   H4Y13332   4.078   4.997   5.654 -2.9337 -0.2404 -4.9178
  125SOPE   C3513333   4.103   4.864   5.486  0.2230  0.5500  0.3416
  125SOPE   H5X13334   3.998   4.828   5.489  0.9402 -1.7852 -0.7202
  125SOPE   H5Y13335   4.155   4.771   5.455  1.6677  1.9771 -1.8675
  125SOPE   C3613336   4.127   4.970   5.386 -0.3283 -0.3394  0.0503
  125SOPE   H6X13337   4.230   5.009   5.380 -0.2118 -0.8631 -1.7867
  125SOPE   H6Y13338   4.062   5.059   5.400  2.0495  2.3117 -3.9246
  125SOPE   C3713339   4.079   4.909   5.244 -0.3893  0.5114 -0.2516
  125SOPE   H7X13340   3.973   4.875   5.249  0.1796 -1.4787 -0.9247
  125SOPE   H7Y13341   4.159   4.838   5.215  1.0029  1.2913  1.4704
  125SOPE   C3813342   4.077   5.020   5.136  0.5364 -0.0155 -0.3047
  125SOPE   H8X13343   4.182   5.057   5.131  0.4382  0.2130 -0.7004
  125SOPE   H8Y13344   4.008   5.104   5.159  1.0458  1.0477 -2.4067
  125SOPE   C3913345   4.045   4.965   4.997  0.5576 -0.3861 -0.0030
  125SOPE   H9X13346   3.943   4.923   5.002  0.6813 -1.2155 -2.8647
  125SOPE   H9Y13347   4.121   4.889   4.971  2.0083  1.5623 -1.7979
  125SOPE  C31013348   4.055   5.079   4.894  0.5873  0.5402 -0.5777
  125SOPE  H10X13349   4.164   5.096   4.877  1.7035  1.1946  5.3203
  125SOPE  H10Y13350   4.018   5.175   4.935 -1.6586 -0.0280 -1.1224
  125SOPE  C31113351   3.991   5.031   4.760 -0.2491  0.1389  0.0555
  125SOPE  H11X13352   3.882   5.024   4.782 -0.7360  0.2743 -2.0059
  125SOPE  H11Y13353   4.026   4.927   4.742  3.1017  1.1247  0.3096
  125SOPE  C31213354   4.032   5.129   4.644 -0.7726  0.0352 -0.7526
  125SOPE  H12X13355   4.142   5.124   4.630 -0.9646 -3.2376 -1.9145
  125SOPE  H12Y13356   4.001   5.226   4.687  0.4676 -0.3877  1.2706
  125SOPE  C31313357   3.978   5.107   4.499 -0.1551 -0.8130  0.1179
  125SOPE  H13X13358   4.015   5.186   4.429  0.5667 -0.0385  1.3372
  125SOPE  H13Y13359   3.869   5.127   4.506 -0.2250 -0.4007 -1.5333
  125SOPE  C31413360   3.999   4.967   4.438  0.4180 -0.2086  1.5397
  125SOPE  H14X13361   3.967   4.881   4.501  0.4803 -2.6531 -1.5474
  125SOPE  H14Y13362   4.109   4.953   4.442  0.0481 -3.8902  1.8563
  125SOPE  C31513363   3.933   4.937   4.304 -0.1637 -0.6773  0.2561
  125SOPE  H15X13364   4.006   4.882   4.241  0.3218  0.2089  0.0314
  125SOPE  H15Y13365   3.907   5.037   4.265 -0.5347 -0.1006  1.8841
  125SOPE  C31613366   3.794   4.861   4.324  0.8766 -0.5825  0.6082
  125SOPE  H16X13367   3.735   4.928   4.390 -1.9595 -0.8447 -1.4519
  125SOPE  H16Y13368   3.819   4.763   4.369  0.9610 -0.7266  0.2580
  125SOPE  C31713369   3.716   4.833   4.195  0.5245  0.0869  0.1888
  125SOPE  H17X13370   3.783   4.784   4.122 -0.7585 -0.1825 -0.8367
  125SOPE  H17Y13371   3.688   4.926   4.142  0.6978  0.8061  1.3070
  125SOPE  C31813372   3.589   4.753   4.198 -0.1626  0.0329 -0.6047
  125SOPE  H18X13373   3.548   4.742   4.096 -1.7295 -4.8348  0.3101
  125SOPE  H18Y13374   3.506   4.812   4.243 -0.2154  0.7929 -1.6650
  125SOPE  H18Z13375   3.604   4.654   4.246 -0.2452 -0.3222 -1.3107
  126SOPE     N13376   1.059   2.583   6.331  0.2306  0.1166  0.4873
  126SOPE   HN113377   1.146   2.527   6.342  0.1390  0.2735  2.2882
  126SOPE   HN213378   1.025   2.584   6.233  3.7472  3.4368 -0.9610
  126SOPE   HN313379   1.093   2.681   6.341 -0.9333  0.5647  0.2559
  126SOPE   C1213380   0.960   2.560   6.445  0.3010  0.5789  0.1569
  126SOPE  H12A13381   1.012   2.562   6.543  0.9280 -0.9573 -0.1115
  126SOPE  H12B13382   0.926   2.455   6.435  1.7629 -0.0877  1.6888
  126SOPE   C1113383   0.847   2.665   6.441  0.2536 -0.0717  0.5883
  126SOPE  H11A13384   0.784   2.655   6.532  0.9480  1.3618  1.2566
  126SOPE  H11B13385   0.788   2.641   6.350 -0.4905  0.5147  0.9054
  126SOPE     P13386   0.816   2.911   6.367  0.1808 -0.4791 -0.3901
  126SOPE   O1313387   0.851   3.038   6.440  0.0485  0.6272  0.3478
  126SOPE   O1413388   0.676   2.867   6.370 -0.3305 -0.5860 -0.0652
  126SOPE   O1213389   0.902   2.796   6.422 -0.3018 -0.3985  0.4010
  126SOPE   O1113390   0.868   2.912   6.219 -0.2099 -0.0550  0.0178
  126SOPE    C113391   0.812   2.994   6.111 -0.1325  0.7985 -0.2603
  126SOPE    HA13392   0.866   3.091   6.117  0.7685  0.2346  1.3234
  126SOPE    HB13393   0.702   3.005   6.122 -0.1196  0.0106  0.8375
  126SOPE    C213394   0.823   2.920   5.978  0.6877  0.3569 -0.1381
  126SOPE    HS13395   0.772   2.981   5.901  2.3233  1.3793 -0.4770
  126SOPE   O2113396   0.779   2.786   5.970  0.7425 -0.2621 -0.8006
  126SOPE   C2113397   0.648   2.773   5.995 -0.0716  0.3967 -0.5657
  126SOPE   O2213398   0.560   2.860   5.994 -0.1693  0.4688  0.3273
  126SOPE   C2213399   0.615   2.629   5.985  0.2153 -0.6991 -1.1811
  126SOPE   H2R13400   0.506   2.619   6.004 -0.2477  1.1560 -2.5234
  126SOPE   H2S13401   0.658   2.581   6.075  1.4009  0.8220 -0.8918
  126SOPE    C313402   0.963   2.921   5.924  0.1186  0.3809  0.1217
  126SOPE    HX13403   1.031   2.869   5.994  0.4681 -0.0781 -0.5407
  126SOPE    HY13404   1.004   3.023   5.911  1.2449 -0.2413 -1.5473
  126SOPE   O3113405   0.979   2.847   5.799  0.5643 -0.3625  0.2537
  126SOPE   C3113406   0.929   2.900   5.687 -0.1076  1.0051  0.6192
  126SOPE   O3213407   0.867   3.000   5.682 -0.1904  0.2935  0.1595
  126SOPE   C3213408   0.962   2.810   5.563  0.5687  0.6741 -0.3727
  126SOPE   H2X13409   0.941   2.705   5.592  0.3982  0.5629 -0.8730
  126SOPE   H2Y13410   1.066   2.832   5.531  0.1992  0.5682 -1.7200
  126SOPE   C2313411   0.657   2.551   5.856  0.0887 -0.2120  0.5136
  126SOPE   H3R13412   0.683   2.454   5.903  3.2103  0.2334 -0.0898
  126SOPE   H3S13413   0.756   2.579   5.813 -1.7793  0.2768 -3.9706
  126SOPE   C2413414   0.544   2.547   5.750  0.6097  0.2159  0.1281
  126SOPE   H4R13415   0.575   2.487   5.662  2.6109 -0.5128  1.2810
  126SOPE   H4S13416   0.454   2.506   5.802  2.0111 -3.2291  0.0841
  126SOPE   C2513417   0.524   2.684   5.687  0.6426  0.2105  0.7463
  126SOPE   H5R13418   0.475   2.757   5.755  2.8533  1.4148  1.1424
  126SOPE   H5S13419   0.628   2.716   5.666  1.0407 -2.0249 -1.1955
  126SOPE   C2613420   0.439   2.685   5.556  0.0900  0.4525  1.0246
  126SOPE   H6R13421   0.357   2.610   5.560  0.0059  0.4078 -0.9243
  126SOPE   H6S13422   0.383   2.780   5.544 -1.4498 -0.4793  0.5953
  126SOPE   C2713423   0.530   2.671   5.430 -0.2676 -0.9498  0.6077
  126SOPE   H7R13424   0.575   2.768   5.404 -1.1770 -0.3430  1.2369
  126SOPE   H7S13425   0.609   2.602   5.466  0.1805  0.7983  3.3070
  126SOPE   C2813426   0.454   2.628   5.307  1.0913  0.6807  0.2869
  126SOPE   H8R13427   0.522   2.610   5.221  1.1747  1.0821  0.2669
  126SOPE   H8S13428   0.412   2.528   5.329  1.9013 -0.6542 -3.4454
  126SOPE   C2913429   0.338   2.719   5.273  0.2957 -0.9051  0.0376
  126SOPE   H9113430   0.251   2.710   5.340  1.1519  0.5036  1.3999
  126SOPE  C21013431   0.319   2.795   5.163 -0.3245  0.2711  0.3688
  126SOPE  H10113432   0.216   2.828   5.145 -0.9113  0.1621  3.0969
  126SOPE  C21113433   0.423   2.800   5.049  0.7107 -0.2722 -0.2862
  126SOPE  H11R13434   0.514   2.825   5.107 -0.1541 -0.4393  1.2002
  126SOPE  H11S13435   0.395   2.886   4.983 -0.4540 -0.4044  0.0033
  126SOPE  C21213436   0.443   2.676   4.970 -0.4839  0.0190  0.1082
  126SOPE  H12R13437   0.360   2.664   4.898 -0.3524 -1.2844  0.1425
  126SOPE  H12S13438   0.445   2.585   5.034 -2.2101  0.9788  1.5741
  126SOPE  C21313439   0.572   2.671   4.877  0.0933  0.5583 -0.1488
  126SOPE  H13R13440   0.578   2.569   4.832  0.3492  0.2209  0.6274
  126SOPE  H13S13441   0.660   2.678   4.945  1.4698 -0.8474 -1.6658
  126SOPE  C21413442   0.585   2.772   4.764 -0.8197 -0.3768  0.2148
  126SOPE  H14R13443   0.577   2.874   4.807 -0.6582  0.3362 -1.3508
  126SOPE  H14S13444   0.499   2.761   4.694 -0.7505 -3.6370  0.4989
  126SOPE  C21513445   0.717   2.758   4.685  0.4872  0.2005 -0.3775
  126SOPE  H15R13446   0.704   2.674   4.613 -0.0795 -0.8120  0.8725
  126SOPE  H15S13447   0.805   2.734   4.749 -0.3356 -0.2488  0.6228
  126SOPE  C21613448   0.752   2.894   4.632  0.6562 -0.7258  0.8470
  126SOPE  H16R13449   0.862   2.903   4.617  0.3960  0.4338 -0.6418
  126SOPE  H16S13450   0.723   2.958   4.718  3.4416  1.5349  0.2817
  126SOPE  C21713451   0.667   2.940   4.512 -0.1688  0.0991 -0.2600
  126SOPE  H17R13452   0.563   2.935   4.551  0.1910 -2.1891  0.5292
  126SOPE  H17S13453   0.679   2.862   4.434 -1.0542 -0.7149  0.4004
  126SOPE  C21813454   0.697   3.072   4.453 -0.0948 -0.1330  0.5560
  126SOPE  H18R13455   0.615   3.119   4.394 -1.1443  1.2194  2.9357
  126SOPE  H18S13456   0.792   3.076   4.396  1.0957  0.6074  2.4808
  126SOPE  H18T13457   0.708   3.146   4.535  2.7411 -1.1254  1.1715
  126SOPE   C3313458   0.855   2.843   5.451 -0.1433  0.4076  0.3955
  126SOPE   H3X13459   0.880   2.946   5.417  0.6822  0.7560  1.9667
  126SOPE   H3Y13460   0.750   2.840   5.487 -0.6957 -0.4436 -1.1794
  126SOPE   C3413461   0.865   2.748   5.328 -0.7002  0.0593  0.3457
  126SOPE   H4X13462   0.799   2.661   5.347 -1.3031  0.6822  1.1838
  126SOPE   H4Y13463   0.973   2.721   5.322 -0.3799  1.0543  1.2103
  126SOPE   C3513464   0.821   2.821   5.203 -0.0066 -0.3214 -0.1884
  126SOPE   H5X13465   0.760   2.906   5.240  0.4607 -0.7127  1.5903
  126SOPE   H5Y13466   0.741   2.763   5.151 -0.7497 -0.5854  1.1804
  126SOPE   C3613467   0.933   2.861   5.110 -0.6929  0.5067 -0.0325
  126SOPE   H6X13468   0.996   2.779   5.070  0.0451 -0.1861  2.3524
  126SOPE   H6Y13469   1.000   2.913   5.182  0.6227 -2.1796  0.8303
  126SOPE   C3713470   0.889   2.963   5.001 -0.1677  0.4028  0.0287
  126SOPE   H7X13471   0.831   3.043   5.052  0.7239  1.2876 -0.3256
  126SOPE   H7Y13472   0.817   2.911   4.934  0.8822 -0.0463 -0.7712
  126SOPE   C3813473   0.998   3.024   4.924 -0.8340 -0.0216 -0.2299
  126SOPE   H8X13474   1.053   2.951   4.861  0.6105  1.1708 -0.4272
  126SOPE   H8Y13475   1.058   3.068   5.007 -0.8963  0.4288 -0.4253
  126SOPE   C3913476   0.950   3.135   4.823 -0.2187  0.0349  0.7038
  126SOPE   H9X13477   0.903   3.219   4.879 -0.1589  1.3597 -1.1740
  126SOPE   H9Y13478   0.873   3.086   4.759  0.4185 -1.2508  0.8826
  126SOPE  C31013479   1.057   3.178   4.725 -0.2218  0.7446  0.3862
  126SOPE  H10X13480   1.117   3.087   4.704  0.2971  1.0949  0.3231
  126SOPE  H10Y13481   1.117   3.261   4.767  0.6923  2.2222 -3.4250
  126SOPE  C31113482   0.993   3.228   4.592  0.3996 -0.0229  0.2059
  126SOPE  H11X13483   0.913   3.305   4.598  0.5317 -0.0136  2.9553
  126SOPE  H11Y13484   0.952   3.134   4.548 -0.1729 -0.3350  1.3570
  126SOPE  C31213485   1.094   3.287   4.496 -0.7954  0.0413  0.1241
  126SOPE  H12X13486   1.154   3.367   4.545  2.1893 -1.6830 -0.4071
  126SOPE  H12Y13487   1.042   3.321   4.404  1.4748  1.8892 -0.5821
  126SOPE  C31313488   1.193   3.175   4.457  0.2063  1.1928  0.4191
  126SOPE  H13X13489   1.137   3.090   4.412  1.2489 -0.1871  1.6290
  126SOPE  H13Y13490   1.255   3.132   4.539 -0.4147  1.1370  0.8734
  126SOPE  C31413491   1.283   3.235   4.350  0.2767  0.0132 -0.0577
  126SOPE  H14X13492   1.336   3.323   4.391  2.1893  0.2646 -2.7999
  126SOPE  H14Y13493   1.207   3.266   4.274 -0.4082 -0.5760  0.3640
  126SOPE  C31513494   1.372   3.126   4.284 -0.3850 -0.7080  0.1232
  126SOPE  H15X13495   1.301   3.050   4.244  1.4711 -2.0764 -0.7248
  126SOPE  H15Y13496   1.436   3.085   4.364  0.6067  0.7572  0.1047
  126SOPE  C31613497   1.459   3.183   4.174  1.0844 -0.6866  0.0472
  126SOPE  H16X13498   1.531   3.259   4.210 -1.3567  0.6751  2.4024
  126SOPE  H16Y13499   1.382   3.223   4.104 -0.0368 -0.0048  1.6303
  126SOPE  C31713500   1.530   3.063   4.121  0.0778 -0.1630  0.8914
  126SOPE  H17X13501   1.452   2.992   4.086 -0.0928 -0.2384  1.4192
  126SOPE  H17Y13502   1.565   3.011   4.212 -2.4892 -0.9729  1.4982
  126SOPE  C31813503   1.640   3.089   4.013  0.3656  0.7186 -0.5221
  126SOPE  H18X13504   1.711   3.004   4.007  0.3600  0.6267  0.5343
  126SOPE  H18Y13505   1.686   3.189   4.030 -0.2865  0.8738  0.4123
  126SOPE  H18Z13506   1.597   3.106   3.912 -1.4168 -2.0058 -0.3234
  127SOPE     N13507   4.833   5.471   6.822  0.3744  0.2125  0.9263
  127SOPE   HN113508   4.887   5.426   6.899 -1.3753 -2.7924  0.5842
  127SOPE   HN213509   4.838   5.575   6.828  2.0319  0.2010  0.3320
  127SOPE   HN313510   4.730   5.457   6.822  0.1505  1.5123 -0.7264
  127SOPE   C1213511   4.891   5.412   6.694  0.1235  0.8567 -0.0953
  127SOPE  H12A13512   4.999   5.389   6.712  0.3943  0.6575 -1.7899
  127SOPE  H12B13513   4.878   5.484   6.611 -1.7395 -1.0933 -1.6071
  127SOPE   C1113514   4.836   5.271   6.658  0.5596 -0.0135  0.1714
  127SOPE  H11A13515   4.884   5.190   6.718 -0.1869  1.7540  3.4204
  127SOPE  H11B13516   4.847   5.259   6.548  0.5391  1.6510 -0.0363
  127SOPE     P13517   4.597   5.164   6.629 -0.5978  0.3335  0.2599
  127SOPE   O1313518   4.459   5.187   6.670  0.0616 -0.4439  0.4366
  127SOPE   O1413519   4.647   5.027   6.659 -0.6567 -0.5054  0.9003
  127SOPE   O1213520   4.702   5.265   6.702  0.2247 -0.2896  0.1837
  127SOPE   O1113521   4.623   5.200   6.472  0.1372  0.2208 -0.8483
  127SOPE    C113522   4.655   5.089   6.387 -0.6244  0.3070 -0.4084
  127SOPE    HA13523   4.589   5.000   6.395 -0.1012 -0.2460 -1.9008
  127SOPE    HB13524   4.759   5.055   6.403 -0.2843  1.2387 -0.5568
  127SOPE    C213525   4.626   5.127   6.241  0.6387  0.0240  0.0831
  127SOPE    HS13526   4.678   5.225   6.235  1.5181 -0.4176  0.3330
  127SOPE   O2113527   4.485   5.124   6.217  0.0518  0.9885 -0.0884
  127SOPE   C2113528   4.441   5.226   6.148  0.0022 -0.0896 -0.4708
  127SOPE   O2213529   4.510   5.316   6.113  0.1820 -0.4169 -0.5611
  127SOPE   C2213530   4.292   5.212   6.121  0.6934 -0.5712  1.0681
  127SOPE   H2R13531   4.233   5.231   6.213  0.8006 -3.3709  1.8173
  127SOPE   H2S13532   4.270   5.104   6.104 -1.5273  0.0994 -0.7289
  127SOPE    C313533   4.701   5.027   6.146 -0.0827  0.1915 -0.8637
  127SOPE    HX13534   4.665   4.922   6.159 -0.6329  0.5187  0.4284
  127SOPE    HY13535   4.809   5.026   6.175 -0.7355  0.2678  1.8905
  127SOPE   O3113536   4.680   5.066   6.012 -0.2663  0.0945 -0.5930
  127SOPE   C3113537   4.773   5.145   5.958  0.0058  0.1746  0.6974
  127SOPE   O3213538   4.882   5.180   6.005  0.4321 -1.1029  0.5526
  127SOPE   C3213539   4.727   5.204   5.830  0.9053  0.7199  1.1598
  127SOPE   H2X13540   4.706   5.312   5.848  0.0021  0.6705  0.5054
  127SOPE   H2Y13541   4.643   5.150   5.781  1.7377  0.1416  0.3378
  127SOPE   C2313542   4.254   5.292   5.989  0.3058 -1.0023 -0.2800
  127SOPE   H3R13543   4.289   5.398   5.989 -0.6662 -0.6694 -0.2398
  127SOPE   H3S13544   4.144   5.293   5.978  0.2020 -2.8724  0.3158
  127SOPE   C2413545   4.315   5.220   5.867  0.2199 -0.0044  0.4575
  127SOPE   H4R13546   4.424   5.201   5.882  0.4041 -0.6539 -1.4557
  127SOPE   H4S13547   4.276   5.118   5.847  2.2949 -1.1327  1.7013
  127SOPE   C2513548   4.301   5.313   5.742  0.0814  0.6781  0.1533
  127SOPE   H5R13549   4.201   5.359   5.734 -1.2527 -2.0103  0.2076
  127SOPE   H5S13550   4.368   5.398   5.766  0.3301  0.1672  1.3520
  127SOPE   C2613551   4.335   5.254   5.613  0.4056  0.2886  0.5559
  127SOPE   H6R13552   4.426   5.191   5.627  0.2485  0.0575  0.5254
  127SOPE   H6S13553   4.253   5.200   5.563 -0.2749  1.8710 -0.1073
  127SOPE   C2713554   4.362   5.379   5.518 -0.1831  0.6091 -0.8636
  127SOPE   H7R13555   4.268   5.437   5.521 -1.4217 -1.2517 -1.7097
  127SOPE   H7S13556   4.448   5.434   5.562 -1.0786  2.2343 -1.0943
  127SOPE   C2813557   4.400   5.328   5.380  0.5253  0.4968  0.5847
  127SOPE   H8R13558   4.487   5.261   5.395  0.4969  0.3715  0.1884
  127SOPE   H8S13559   4.321   5.263   5.337  1.5144 -0.6698  0.4695
  127SOPE   C2913560   4.431   5.443   5.289  0.2948 -0.0603 -0.5604
  127SOPE   H9113561   4.423   5.540   5.340 -1.1567 -0.6075  0.3181
  127SOPE  C21013562   4.458   5.428   5.160 -0.5123 -0.0267  0.4138
  127SOPE  H10113563   4.478   5.519   5.102 -0.1337  0.1601  0.8317
  127SOPE  C21113564   4.454   5.300   5.086  0.4052  0.0597 -0.2968
  127SOPE  H11R13565   4.409   5.219   5.146 -2.4725  1.2838 -0.6588
  127SOPE  H11S13566   4.559   5.270   5.065  0.8187 -0.9945  2.7642
  127SOPE  C21213567   4.389   5.307   4.945  0.1582 -0.3015  0.3094
  127SOPE  H12R13568   4.283   5.336   4.961  0.4567  0.3043  1.2606
  127SOPE  H12S13569   4.392   5.209   4.893  0.5867 -0.0536 -0.1402
  127SOPE  C21313570   4.471   5.392   4.845  0.6804 -0.2276  0.4205
  127SOPE  H13R13571   4.572   5.348   4.829  0.1519 -1.0362 -0.7629
  127SOPE  H13S13572   4.477   5.501   4.867  0.3969 -0.0137 -0.5137
  127SOPE  C21413573   4.416   5.384   4.699  0.8520 -0.3727  0.5852
  127SOPE  H14R13574   4.440   5.479   4.647 -1.1255 -0.7285 -1.1141
  127SOPE  H14S13575   4.306   5.367   4.692  0.6772 -0.3959  2.7257
  127SOPE  C21513576   4.483   5.277   4.599  0.3269 -0.6366 -0.3561
  127SOPE  H15R13577   4.481   5.185   4.662 -1.4100 -1.0643 -0.9811
  127SOPE  H15S13578   4.587   5.312   4.580  0.4519 -0.3928  0.6810
  127SOPE  C21613579   4.392   5.252   4.480  0.7885  0.1978  0.0403
  127SOPE  H16R13580   4.362   5.343   4.424 -1.0512 -0.5299 -0.2118
  127SOPE  H16S13581   4.306   5.190   4.513 -0.5523  1.2442 -1.3225
  127SOPE  C21713582   4.471   5.177   4.373 -0.8946  0.3116 -0.1764
  127SOPE  H17R13583   4.398   5.167   4.289 -1.4352 -1.4190  0.4546
  127SOPE  H17S13584   4.500   5.073   4.398 -0.3255  0.9794  2.1891
  127SOPE  C21813585   4.603   5.244   4.318  0.0248  0.1108  0.5842
  127SOPE  H18R13586   4.601   5.354   4.299 -0.9128 -0.0989 -0.6144
  127SOPE  H18S13587   4.635   5.193   4.225  0.2472  1.0361  0.1466
  127SOPE  H18T13588   4.678   5.218   4.396  0.2963 -0.6991  0.0675
  127SOPE   C3313589   4.830   5.191   5.710 -0.5058  0.5074  0.2177
  127SOPE   H3X13590   4.823   5.094   5.656 -0.6286 -0.1629  1.4167
  127SOPE   H3Y13591   4.937   5.189   5.740 -0.6555  0.9000  0.7849
  127SOPE   C3413592   4.813   5.314   5.617 -0.3311 -0.5768  0.5256
  127SOPE   H4X13593   4.843   5.406   5.672 -0.7429 -1.3053  2.0265
  127SOPE   H4Y13594   4.706   5.336   5.594  0.9048  3.4772 -2.4464
  127SOPE   C3513595   4.876   5.306   5.473 -0.0004  0.3285 -0.2783
  127SOPE   H5X13596   4.818   5.236   5.409  0.8897 -1.2869  0.5968
  127SOPE   H5Y13597   4.980   5.266   5.479 -0.9933 -3.0178 -2.3635
  127SOPE   C3613598   4.882   5.441   5.398 -0.0287 -0.3298 -0.1956
  127SOPE   H6X13599   4.943   5.505   5.465 -2.7632  2.1558  0.1344
  127SOPE   H6Y13600   4.782   5.490   5.394  0.7002  1.2480  0.2628
  127SOPE   C3713601   4.934   5.433   5.254  0.9046  0.6794  0.8446
  127SOPE   H7X13602   5.034   5.388   5.272  0.4488 -0.0001  1.7371
  127SOPE   H7Y13603   4.933   5.536   5.213 -0.0304 -0.7972 -3.4088
  127SOPE   C3813604   4.852   5.337   5.160  0.2786 -0.1313  0.3264
  127SOPE   H8X13605   4.760   5.390   5.127 -1.0157 -3.1287 -1.2433
  127SOPE   H8Y13606   4.816   5.244   5.210 -0.6599 -0.1417 -0.3373
  127SOPE   C3913607   4.922   5.312   5.028  0.5714  0.1325  0.1588
  127SOPE   H9X13608   5.023   5.267   5.029 -0.0143 -1.2403 -0.3932
  127SOPE   H9Y13609   4.929   5.414   4.984  1.5900  0.0648  0.1429
  127SOPE  C31013610   4.832   5.227   4.928  0.3951  0.5328 -0.6888
  127SOPE  H10X13611   4.728   5.266   4.934 -0.0291 -0.5756 -0.5972
  127SOPE  H10Y13612   4.829   5.118   4.950 -0.6214  0.7120  0.1508
  127SOPE  C31113613   4.877   5.234   4.781  0.1569  0.0705  0.6923
  127SOPE  H11X13614   4.987   5.219   4.794  0.4062  0.7868 -0.4748
  127SOPE  H11Y13615   4.855   5.338   4.747  0.8655  0.7052  2.0845
  127SOPE  C31213616   4.838   5.119   4.681  0.5877 -0.3402  0.5512
  127SOPE  H12X13617   4.729   5.121   4.659  0.7038 -0.3284 -0.0303
  127SOPE  H12Y13618   4.858   5.017   4.720  0.5442 -0.5699 -0.0214
  127SOPE  C31313619   4.933   5.128   4.558  0.0019 -1.0405  0.1525
  127SOPE  H13X13620   5.035   5.144   4.599 -0.0494  1.2256 -0.4970
  127SOPE  H13Y13621   4.905   5.215   4.495 -1.2846 -2.0109 -0.6531
  127SOPE  C31413622   4.940   4.997   4.485 -0.0847  0.2010 -0.2506
  127SOPE  H14X13623   4.983   4.919   4.552  1.0036  2.3598  1.7172
  127SOPE  H14Y13624   5.023   4.999   4.412  2.2985 -1.9577  2.1450
  127SOPE  C31513625   4.810   4.953   4.414 -0.0776  0.5725 -0.1175
  127SOPE  H15X13626   4.778   5.037   4.348 -0.0608  0.9405  0.3316
  127SOPE  H15Y13627   4.735   4.930   4.493  0.1298 -2.1487 -0.6408
  127SOPE  C31613628   4.802   4.822   4.335 -1.1115  0.2510 -0.1136
  127SOPE  H16X13629   4.821   4.727   4.390 -1.3114  0.3996  0.2108
  127SOPE  H16Y13630   4.876   4.843   4.254  0.1633  1.5453  1.3137
  127SOPE  C31713631   4.665   4.795   4.283  0.0838 -0.7066  0.0548
  127SOPE  H17X13632   4.612   4.889   4.256  2.3780  0.2894 -1.3697
  127SOPE  H17Y13633   4.591   4.766   4.360  0.4655  0.8940  1.0746
  127SOPE  C31813634   4.657   4.695   4.168  0.2223 -0.4444 -0.7650
  127SOPE  H18X13635   4.649   4.593   4.210 -2.2579 -0.0248 -0.0692
  127SOPE  H18Y13636   4.737   4.710   4.093  1.7934  3.0499  1.3630
  127SOPE  H18Z13637   4.558   4.707   4.119 -1.7412  0.4199  3.0272
  128SOPE     N13638   6.319   2.170   6.505 -0.2017  0.3030  0.0328
  128SOPE   HN113639   6.381   2.112   6.564  1.1291  0.1323 -1.4434
  128SOPE   HN213640   6.330   2.125   6.412  2.1471  0.8861 -0.0285
  128SOPE   HN313641   6.359   2.266   6.493 -2.1789  1.1252 -0.4978
  128SOPE   C1213642   6.175   2.165   6.560 -0.2261 -0.3385  0.9022
  128SOPE  H12A13643   6.120   2.255   6.525 -2.4579 -1.9830 -0.0687
  128SOPE  H12B13644   6.172   2.158   6.671 -2.1077 -1.0654  0.8359
  128SOPE   C1113645   6.112   2.034   6.514  0.2833  0.0160 -0.3903
  128SOPE  H11A13646   6.076   2.041   6.409 -3.4149 -0.1186  0.7241
  128SOPE  H11B13647   6.024   2.022   6.581  2.3336 -0.6718  2.3509
  128SOPE     P13648   6.162   1.795   6.468  0.1491  0.2082 -0.0490
  128SOPE   O1313649   6.014   1.796   6.453  0.2173  0.4414  0.1623
  128SOPE   O1413650   6.230   1.679   6.536  0.5232 -0.3312  0.2640
  128SOPE   O1213651   6.199   1.927   6.543  0.1490  0.4070  0.1993
  128SOPE   O1113652   6.217   1.823   6.325  0.0152  0.0953  0.7027
  128SOPE    C113653   6.206   1.723   6.221  0.1490  0.6544 -0.2665
  128SOPE    HA13654   6.138   1.640   6.251  2.4737 -0.9694  0.8139
  128SOPE    HB13655   6.310   1.684   6.220 -0.2855 -0.6937 -2.9701
  128SOPE    C213656   6.183   1.779   6.079  0.2131 -0.5695  0.6666
  128SOPE    HS13657   6.179   1.698   6.004  0.0325  1.4121 -1.6136
  128SOPE   O2113658   6.279   1.881   6.035  0.2357  0.1960 -0.3831
  128SOPE   C2113659   6.402   1.827   6.008  0.4501  0.2936 -0.1437
  128SOPE   O2213660   6.434   1.711   6.017  0.0632  0.0327 -0.2529
  128SOPE   C2213661   6.479   1.950   5.970  0.9411 -0.4238  1.0467
  128SOPE   H2R13662   6.502   1.996   6.069 -1.0917  0.1223  1.2968
  128SOPE   H2S13663   6.425   2.030   5.915  0.9695 -0.0560  1.5371
  128SOPE    C313664   6.034   1.840   6.076  0.0284  0.2155  0.0832
  128SOPE    HX13665   6.034   1.929   6.143 -0.2788 -0.5258  1.0986
  128SOPE    HY13666   5.970   1.759   6.117 -0.6540  0.8600  0.3182
  128SOPE   O3113667   6.000   1.864   5.936 -0.1255 -0.0300 -0.3553
  128SOPE   C3113668   6.000   1.983   5.887  0.0325 -0.1473  0.4970
  128SOPE   O3213669   6.023   2.088   5.942 -0.3583 -0.2768  0.1779
  128SOPE   C3213670   5.978   1.976   5.737 -0.2929 -0.5271  0.3768
  128SOPE   H2X13671   5.894   1.907   5.718 -0.1502 -1.0515  1.5737
  128SOPE   H2Y13672   6.072   1.940   5.690  0.9197  0.9194  1.5397
  128SOPE   C2313673   6.600   1.928   5.883 -0.5602 -0.2837  0.0379
  128SOPE   H3R13674   6.672   1.852   5.921  0.6749 -0.3832 -2.3287
  128SOPE   H3S13675   6.669   2.014   5.900  1.0601 -1.8379  1.7911
  128SOPE   C2413676   6.564   1.922   5.735 -0.0394  0.2797  0.4770
  128SOPE   H4R13677   6.494   1.836   5.722  1.6533 -0.8718 -1.5784
  128SOPE   H4S13678   6.515   2.011   5.691  2.1177  0.5534 -1.5411
  128SOPE   C2513679   6.687   1.893   5.642  0.0376  0.6836  0.2013
  128SOPE   H5R13680   6.758   1.976   5.661 -1.6017  1.6460  2.6534
  128SOPE   H5S13681   6.740   1.799   5.667 -0.3575  0.5776  0.6613
  128SOPE   C2613682   6.666   1.892   5.492 -0.1903 -0.0074 -0.2217
  128SOPE   H6R13683   6.657   1.992   5.445  1.8060 -0.3486 -1.4342
  128SOPE   H6S13684   6.746   1.839   5.435 -0.5606 -0.7976 -0.0224
  128SOPE   C2713685   6.540   1.825   5.453  0.0803  0.1446 -0.3347
  128SOPE   H7R13686   6.523   1.724   5.494  1.4790  0.1885  0.4397
  128SOPE   H7S13687   6.450   1.871   5.499  0.0820  0.4037 -0.5855
  128SOPE   C2813688   6.535   1.807   5.301 -0.4927  0.0049  0.6243
  128SOPE   H8R13689   6.549   1.904   5.249 -3.6720  1.2292  1.8228
  128SOPE   H8S13690   6.619   1.739   5.275 -1.6229 -1.1315 -0.2036
  128SOPE   C2913691   6.401   1.755   5.251 -0.3331  0.8874  0.6656
  128SOPE   H9113692   6.316   1.787   5.313 -1.4855  0.0120 -0.3978
  128SOPE  C21013693   6.380   1.677   5.138  0.0265 -0.3842  0.4373
  128SOPE  H10113694   6.280   1.642   5.107  0.7065 -1.2543 -0.8866
  128SOPE  C21113695   6.483   1.648   5.036  0.1280  0.8599  0.0568
  128SOPE  H11R13696   6.582   1.694   5.055  0.4445  0.2799 -0.1568
  128SOPE  H11S13697   6.463   1.682   4.933  1.8499 -0.4067 -0.7474
  128SOPE  C21213698   6.491   1.492   5.028 -0.1889 -0.5537  0.5799
  128SOPE  H12R13699   6.553   1.480   4.937 -0.8391 -2.7807  0.3613
  128SOPE  H12S13700   6.391   1.443   5.031 -0.3118 -0.2795  1.2443
  128SOPE  C21313701   6.570   1.437   5.144 -0.2536  0.2514  0.5351
  128SOPE  H13R13702   6.509   1.450   5.235 -0.8227  1.3361  0.0249
  128SOPE  H13S13703   6.664   1.494   5.161 -0.0197 -0.1466  0.5931
  128SOPE  C21413704   6.594   1.291   5.121  0.3399  0.1332  0.0011
  128SOPE  H14R13705   6.631   1.273   5.018 -1.0584  1.4959 -0.7754
  128SOPE  H14S13706   6.493   1.246   5.130  0.0713  0.7354  0.0431
  128SOPE  C21513707   6.671   1.222   5.229  0.0365  0.3975 -0.4379
  128SOPE  H15R13708   6.676   1.112   5.216 -0.4691  0.2701  0.3604
  128SOPE  H15S13709   6.623   1.238   5.328 -1.3810 -0.6918 -0.9280
  128SOPE  C21613710   6.818   1.282   5.243  0.1805  0.3277 -0.1331
  128SOPE  H16R13711   6.810   1.388   5.275 -0.4960  0.5094 -0.8717
  128SOPE  H16S13712   6.869   1.281   5.144 -0.2250 -2.3336 -0.3932
  128SOPE  C21713713   6.909   1.209   5.342 -0.4475  0.5296 -0.3339
  128SOPE  H17R13714   7.007   1.259   5.353 -0.1339 -0.1385 -0.0472
  128SOPE  H17S13715   6.938   1.113   5.294  4.2728  1.1908  0.7272
  128SOPE  C21813716   6.864   1.204   5.495  0.4605  0.0362  0.2636
  128SOPE  H18R13717   6.951   1.169   5.554 -0.9234 -0.3578  2.1371
  128SOPE  H18S13718   6.779   1.135   5.512  1.2030 -0.5598  1.6643
  128SOPE  H18T13719   6.838   1.305   5.534  0.0848  0.3445 -0.7445
  128SOPE   C3313720   5.952   2.107   5.663  0.1032 -0.1704  0.2748
  128SOPE   H3X13721   6.051   2.156   5.662 -0.1913  0.4292 -0.4994
  128SOPE   H3Y13722   5.881   2.176   5.714 -0.8097 -1.2999  0.5821
  128SOPE   C3413723   5.899   2.097   5.514  1.0711 -0.3881 -0.1296
  128SOPE   H4X13724   5.888   2.203   5.482 -0.8665 -1.0687 -1.9209
  128SOPE   H4Y13725   5.796   2.058   5.523 -0.0892  2.6075  0.9758
  128SOPE   C3513726   5.993   2.007   5.426 -0.7997 -0.3732  0.4415
  128SOPE   H5X13727   5.972   1.900   5.446 -1.7151 -0.7684 -2.2512
  128SOPE   H5Y13728   6.100   2.037   5.435 -0.6995 -0.5995  0.0614
  128SOPE   C3613729   5.966   2.032   5.273  0.0392  0.2170 -0.1138
  128SOPE   H6X13730   5.992   2.138   5.256  0.2116  0.1986  0.0354
  128SOPE   H6Y13731   5.857   2.022   5.254  0.2920 -0.2928 -1.3663
  128SOPE   C3713732   6.040   1.938   5.170  0.3115 -0.5336  0.6975
  128SOPE   H7X13733   6.027   1.833   5.204  1.6786 -0.9750 -0.0748
  128SOPE   H7Y13734   6.145   1.974   5.179 -0.9372  3.4724  1.0110
  128SOPE   C3813735   5.998   1.953   5.020  0.0108 -0.4040 -0.7620
  128SOPE   H8X13736   6.001   2.059   4.988 -0.4282 -1.0147 -3.0031
  128SOPE   H8Y13737   5.897   1.911   4.999 -0.5548  1.1914 -1.3957
  128SOPE   C3913738   6.095   1.880   4.935 -0.2242 -0.1011  0.0340
  128SOPE   H9X13739   6.114   1.778   4.974 -2.7616 -0.2196  1.1592
  128SOPE   H9Y13740   6.186   1.943   4.947 -0.0896 -0.1288 -0.7553
  128SOPE  C31013741   6.062   1.882   4.785  0.6937  0.1759  0.4900
  128SOPE  H10X13742   6.023   1.986   4.777 -0.3327 -0.2005  0.4281
  128SOPE  H10Y13743   5.974   1.815   4.772  0.6190  0.5403 -1.1016
  128SOPE  C31113744   6.180   1.843   4.699 -0.0620  0.3018 -0.1382
  128SOPE  H11X13745   6.273   1.892   4.732 -1.6828  2.0582  2.2097
  128SOPE  H11Y13746   6.167   1.873   4.593 -0.8926 -0.8455 -0.3868
  128SOPE  C31213747   6.206   1.692   4.691 -0.6219  0.5349 -0.5762
  128SOPE  H12X13748   6.110   1.641   4.670 -1.3113  1.5603  0.0176
  128SOPE  H12Y13749   6.251   1.657   4.787 -0.8525 -0.5138 -0.8326
  128SOPE  C31313750   6.300   1.659   4.578 -0.1379  0.6696  0.6459
  128SOPE  H13X13751   6.276   1.716   4.486 -2.2038 -2.2265 -0.7626
  128SOPE  H13Y13752   6.283   1.551   4.561 -1.0271  0.5022  2.4153
  128SOPE  C31413753   6.447   1.679   4.608 -0.2598 -0.0341  0.4701
  128SOPE  H14X13754   6.474   1.619   4.698  1.8662  2.8221  1.9096
  128SOPE  H14Y13755   6.471   1.785   4.629  1.0041 -0.0844 -0.5828
  128SOPE  C31513756   6.535   1.616   4.494 -0.0729  0.5794  0.0325
  128SOPE  H15X13757   6.498   1.512   4.477 -1.8630  0.8262  1.8914
  128SOPE  H15Y13758   6.641   1.623   4.524 -0.3745 -0.5617  1.5121
  128SOPE  C31613759   6.531   1.692   4.362  0.1545 -0.2522 -0.0765
  128SOPE  H16X13760   6.601   1.778   4.367 -0.0824  0.0338 -1.3387
  128SOPE  H16Y13761   6.424   1.723   4.352  0.4623  1.2542  0.9678
  128SOPE  C31713762   6.568   1.611   4.243  0.2293  1.0476  0.9830
  128SOPE  H17X13763   6.488   1.623   4.166 -0.4556  1.6437  1.7707
  128SOPE  H17Y13764   6.561   1.503   4.269 -0.8737  1.5636  3.0594
  128SOPE  C31813765   6.698   1.642   4.174 -0.0378 -0.1292 -0.3793
  128SOPE  H18X13766   6.717   1.593   4.076 -1.6979  0.9243 -1.2561
  128SOPE  H18Y13767   6.788   1.615   4.233 -0.0390  0.8152  0.0715
  128SOPE  H18Z13768   6.716   1.748   4.147  3.1375  0.3892  2.9423
  129SOPE     N13769   6.423   6.625   6.181 -0.3900  0.5238 -0.2639
  129SOPE   HN113770   6.490   6.602   6.257 -0.1474 -0.7736 -0.8435
  129SOPE   HN213771   6.340   6.650   6.238  1.6337  1.1782  2.6338
  129SOPE   HN313772   6.395   6.548   6.117 -0.8735  0.1140  0.4270
  129SOPE   C1213773   6.462   6.748   6.107 -0.2208  0.5277  0.6500
  129SOPE  H12A13774   6.531   6.718   6.025  0.2174  0.6869  0.9595
  129SOPE  H12B13775   6.531   6.804   6.174  0.4292  0.5952 -0.0673
  129SOPE   C1113776   6.330   6.820   6.068 -0.2925  1.1425 -1.2488
  129SOPE  H11A13777   6.290   6.771   5.976 -1.0496 -1.8686  0.5486
  129SOPE  H11B13778   6.366   6.920   6.037  0.8999  0.7687 -1.1013
  129SOPE     P13779   6.221   6.957   6.256 -0.0304 -0.4176 -0.0319
  129SOPE   O1313780   6.361   6.998   6.290  0.2511  0.8646  0.4597
  129SOPE   O1413781   6.119   6.953   6.360 -0.4445 -0.1260 -0.3269
  129SOPE   O1213782   6.224   6.825   6.164  0.1978 -0.5567  0.2412
  129SOPE   O1113783   6.169   7.070   6.149 -0.1456  0.2166 -0.0160
  129SOPE    C113784   6.040   7.045   6.081  0.3159 -0.7874 -0.0357
  129SOPE    HA13785   5.961   7.120   6.104  0.6069 -1.1286  2.2938
  129SOPE    HB13786   5.996   6.950   6.119  0.8566 -1.0574 -0.0759
  129SOPE    C213787   6.062   7.030   5.927  0.5053 -0.2855  0.2143
  129SOPE    HS13788   6.122   6.937   5.921  1.4719  0.2690  0.9237
  129SOPE   O2113789   6.126   7.148   5.874 -0.0868  0.2682 -0.0984
  129SOPE   C2113790   6.219   7.129   5.782 -0.0011  0.1726  0.1463
  129SOPE   O2213791   6.261   7.025   5.740  0.3918  0.0366  0.5241
  129SOPE   C2213792   6.261   7.254   5.702 -0.0614 -0.1750  0.0507
  129SOPE   H2R13793   6.351   7.289   5.758 -0.3535 -0.9753  1.0627
  129SOPE   H2S13794   6.175   7.322   5.715 -0.3691 -0.7589  1.2031
  129SOPE    C313795   5.918   7.002   5.866 -0.5346 -0.6901  0.0707
  129SOPE    HX13796   5.863   7.097   5.878  1.1546  0.0949  2.4384
  129SOPE    HY13797   5.855   6.931   5.924 -2.1211  1.1517  0.7002
  129SOPE   O3113798   5.925   6.983   5.722  0.1996  0.4271 -0.2825
  129SOPE   C3113799   5.968   6.857   5.699  0.7738  0.3946  0.1195
  129SOPE   O3213800   5.982   6.766   5.779  0.3004 -0.4262 -0.3909
  129SOPE   C3213801   6.002   6.851   5.548 -0.7905  0.0694  0.5231
  129SOPE   H2X13802   6.099   6.905   5.540 -0.0278 -1.1120  1.4134
  129SOPE   H2Y13803   5.930   6.913   5.490  0.2189 -0.4006 -1.3471
  129SOPE   C2313804   6.275   7.231   5.553  0.0722 -0.1743  0.3428
  129SOPE   H3R13805   6.328   7.133   5.547  0.5504  0.1213 -0.3865
  129SOPE   H3S13806   6.333   7.311   5.502 -1.5222  0.5742 -0.3678
  129SOPE   C2413807   6.139   7.221   5.480  0.1867  0.5153 -0.7009
  129SOPE   H4R13808   6.072   7.151   5.536 -0.2014 -0.9110 -2.7821
  129SOPE   H4S13809   6.086   7.318   5.477 -0.2056  0.4340  1.6939
  129SOPE   C2513810   6.168   7.177   5.330  0.8714 -0.6311  0.2808
  129SOPE   H5R13811   6.203   7.272   5.285  0.5524  0.9568  3.1319
  129SOPE   H5S13812   6.247   7.099   5.322  0.5373 -0.9125 -0.3228
  129SOPE   C2613813   6.046   7.117   5.259 -0.2659  0.1409 -0.4230
  129SOPE   H6R13814   5.979   7.054   5.321  0.7909  0.3481  0.9838
  129SOPE   H6S13815   5.992   7.198   5.205  1.0648  2.1750  1.1599
  129SOPE   C2713816   6.099   7.024   5.144  0.3288  0.1704 -0.2830
  129SOPE   H7R13817   6.179   7.081   5.092  0.8244  0.6156  0.9356
  129SOPE   H7S13818   6.150   6.936   5.187  0.4470 -0.0216 -0.7998
  129SOPE   C2813819   5.992   7.010   5.031 -0.2142  0.1037  0.3149
  129SOPE   H8R13820   5.942   7.105   5.001 -1.3472 -0.3506  0.7021
  129SOPE   H8S13821   6.046   6.971   4.943  0.3079  1.3873  0.0346
  129SOPE   C2913822   5.877   6.922   5.066  0.5938  0.0134  0.3704
  129SOPE   H9113823   5.838   6.954   5.163 -0.5983 -1.2465  0.3530
  129SOPE  C21013824   5.810   6.835   4.994  0.3780 -0.3825  0.5228
  129SOPE  H10113825   5.741   6.783   5.062 -2.5070  1.0122 -1.1747
  129SOPE  C21113826   5.819   6.790   4.847 -0.3545 -0.6955 -0.8216
  129SOPE  H11R13827   5.872   6.692   4.849 -1.8564 -1.5429 -0.4421
  129SOPE  H11S13828   5.877   6.869   4.796 -2.5377  0.3901 -1.7553
  129SOPE  C21213829   5.679   6.775   4.777  0.0104 -0.4225  0.5969
  129SOPE  H12R13830   5.626   6.871   4.796  1.9756  0.4246  2.1101
  129SOPE  H12S13831   5.614   6.689   4.802 -1.9284  0.2666 -1.6648
  129SOPE  C21313832   5.700   6.767   4.627 -0.5576  0.3297 -0.7062
  129SOPE  H13R13833   5.744   6.861   4.586 -3.5116  1.7392 -0.9119
  129SOPE  H13S13834   5.599   6.749   4.585 -1.1229  1.1630  0.2472
  129SOPE  C21413835   5.783   6.644   4.588 -0.0174 -0.3455  0.1424
  129SOPE  H14R13836   5.734   6.552   4.626 -2.2866  0.6685 -0.1729
  129SOPE  H14S13837   5.886   6.658   4.625  0.9829  1.1756 -2.8802
  129SOPE  C21513838   5.820   6.627   4.440 -0.7037 -0.5546 -0.0503
  129SOPE  H15R13839   5.855   6.730   4.414 -0.1949 -0.8919 -0.7331
  129SOPE  H15S13840   5.734   6.590   4.381 -1.6801 -2.0217  2.2045
  129SOPE  C21613841   5.938   6.535   4.423  0.0354 -0.9979 -0.4103
  129SOPE  H16R13842   5.946   6.498   4.319  1.5670 -0.6357 -0.4465
  129SOPE  H16S13843   5.932   6.446   4.489  1.5094  0.7323  2.2378
  129SOPE  C21713844   6.079   6.602   4.467  0.2844 -0.3872  0.2174
  129SOPE  H17R13845   6.101   6.582   4.574 -2.4607 -2.1039  0.5501
  129SOPE  H17S13846   6.061   6.710   4.449 -0.4350 -0.6754 -0.9017
  129SOPE  C21813847   6.197   6.557   4.376  0.2644 -0.5609  0.0204
  129SOPE  H18R13848   6.198   6.624   4.288 -0.1675 -1.1136 -0.4112
  129SOPE  H18S13849   6.175   6.458   4.333  0.4157 -0.0915 -1.1648
  129SOPE  H18T13850   6.296   6.561   4.428  0.6474  3.1855 -0.7183
  129SOPE   C3313851   6.026   6.712   5.489 -0.2583 -0.0291 -0.3174
  129SOPE   H3X13852   5.928   6.659   5.484 -0.4151 -0.1654  2.4574
  129SOPE   H3Y13853   6.086   6.664   5.569  0.6171 -0.5126 -1.2390
  129SOPE   C3413854   6.087   6.701   5.352 -0.0526  0.3302  0.0135
  129SOPE   H4X13855   6.190   6.741   5.360  0.4347 -0.8772 -0.0069
  129SOPE   H4Y13856   6.016   6.764   5.294 -1.0997  1.7071  2.6150
  129SOPE   C3513857   6.102   6.565   5.293  0.4428  0.4602  0.5234
  129SOPE   H5X13858   6.007   6.510   5.311  0.6529  0.0691  0.4499
  129SOPE   H5Y13859   6.176   6.506   5.351  1.8517  0.3636 -1.2527
  129SOPE   C3613860   6.131   6.576   5.142 -0.1052 -0.4488 -0.2582
  129SOPE   H6X13861   6.222   6.637   5.126 -0.1578 -0.5613 -1.0106
  129SOPE   H6Y13862   6.051   6.641   5.102 -0.5315  0.8386  2.4309
  129SOPE   C3713863   6.144   6.435   5.079  0.1930  0.3209  0.3941
  129SOPE   H7X13864   6.046   6.387   5.099 -1.5271  3.7807  0.9929
  129SOPE   H7Y13865   6.227   6.387   5.134  0.4193  1.6685  1.2705
  129SOPE   C3813866   6.193   6.442   4.938  0.1691 -0.0639  0.6256
  129SOPE   H8X13867   6.293   6.489   4.942  0.3906 -0.4881  0.2236
  129SOPE   H8Y13868   6.130   6.493   4.862 -0.6827  0.6334  1.7729
  129SOPE   C3913869   6.217   6.303   4.878  0.6233 -0.1695 -0.0921
  129SOPE   H9X13870   6.117   6.254   4.882 -0.0681  0.9859 -1.9717
  129SOPE   H9Y13871   6.289   6.245   4.940 -0.5661 -2.1752 -0.4903
  129SOPE  C31013872   6.259   6.299   4.726  0.0366  0.3899  0.3470
  129SOPE  H10X13873   6.337   6.376   4.707 -2.2724  2.8672  0.3338
  129SOPE  H10Y13874   6.170   6.335   4.669  0.6605  0.6514 -0.4766
  129SOPE  C31113875   6.301   6.155   4.681  0.7568 -0.2155 -0.7603
  129SOPE  H11X13876   6.214   6.092   4.709 -0.1780  1.4251  0.1863
  129SOPE  H11Y13877   6.381   6.115   4.747  0.0421 -3.0243 -1.4650
  129SOPE  C31213878   6.337   6.152   4.531  0.1714  0.0970 -1.5649
  129SOPE  H12X13879   6.413   6.074   4.507  1.8281  1.4198 -0.7992
  129SOPE  H12Y13880   6.375   6.250   4.495 -0.1956  1.0447  0.4939
  129SOPE  C31313881   6.212   6.128   4.443  0.1663 -0.8431  0.3220
  129SOPE  H13X13882   6.146   6.216   4.439 -1.1007 -1.8103 -1.3736
  129SOPE  H13Y13883   6.155   6.043   4.487  2.2556 -2.3539  0.2852
  129SOPE  C31413884   6.251   6.094   4.297  0.3634 -0.6139 -0.4224
  129SOPE  H14X13885   6.325   6.012   4.303 -0.3496 -1.2666 -0.3569
  129SOPE  H14Y13886   6.306   6.176   4.247 -1.8644 -0.6419 -3.1871
  129SOPE  C31513887   6.132   6.054   4.202 -0.6851 -0.2546  0.0529
  129SOPE  H15X13888   6.061   6.140   4.200 -0.9179 -0.3877  1.5347
  129SOPE  H15Y13889   6.091   5.967   4.257 -1.6052 -1.1864 -1.9911
  129SOPE  C31613890   6.184   6.013   4.067  0.2150  0.9372  0.5171
  129SOPE  H16X13891   6.247   5.923   4.084 -0.1880  0.3098 -1.1341
  129SOPE  H16Y13892   6.236   6.102   4.026 -1.8156  1.8416 -0.2398
  129SOPE  C31713893   6.072   5.978   3.974  0.2226  0.4543 -0.4323
  129SOPE  H17X13894   6.102   5.967   3.868 -2.0514 -1.9183 -0.9420
  129SOPE  H17Y13895   6.007   6.068   3.985  1.8736  1.4858  1.7051
  129SOPE  C31813896   5.999   5.852   4.014  0.1883  0.5161  1.0427
  129SOPE  H18X13897   6.066   5.764   4.004  0.5454  0.7908  0.9861
  129SOPE  H18Y13898   5.907   5.838   3.953  1.1866 -1.7651 -0.0713
  129SOPE  H18Z13899   5.966   5.853   4.120 -1.1315  3.0100  0.6888
  130SOPE     N13900   2.471   0.742   6.284  0.2605 -1.3141 -0.0890
  130SOPE   HN113901   2.394   0.805   6.315 -0.7235 -2.2116 -0.6329
  130SOPE   HN213902   2.564   0.786   6.299  0.6968 -2.2299 -0.0734
  130SOPE   HN313903   2.463   0.735   6.181  0.3456  1.8223 -0.4164
  130SOPE   C1213904   2.451   0.621   6.363 -0.5480  0.2578 -0.4489
  130SOPE  H12A13905   2.344   0.591   6.353 -0.2756 -0.7047 -0.5118
  130SOPE  H12B13906   2.477   0.644   6.469 -1.6349 -0.4104 -0.0193
  130SOPE   C1113907   2.536   0.504   6.316  0.7247 -0.1160 -0.2102
  130SOPE  H11A13908   2.521   0.490   6.207 -1.7401 -4.0153  0.4452
  130SOPE  H11B13909   2.508   0.406   6.359 -0.0430 -0.8261 -2.1962
  130SOPE     P13910   2.782   0.430   6.298 -0.0138 -0.4345  0.4176
  130SOPE   O1313911   2.738   0.296   6.352 -0.0784  0.7076 -0.2591
  130SOPE   O1413912   2.910   0.489   6.336 -0.3099  0.3692 -0.4265
  130SOPE   O1213913   2.672   0.542   6.333 -0.2260 -0.2744  0.2809
  130SOPE   O1113914   2.771   0.415   6.142  0.3358 -0.4365  0.1891
  130SOPE    C113915   2.807   0.526   6.060  0.7282  0.0228  0.3743
  130SOPE    HA13916   2.887   0.584   6.111  1.5311 -1.0747  0.3851
  130SOPE    HB13917   2.717   0.589   6.045  1.4018  0.3957 -2.6992
  130SOPE    C213918   2.849   0.479   5.916 -0.4739  0.9231 -0.1331
  130SOPE    HS13919   2.857   0.568   5.850 -1.5389  0.0856 -1.4369
  130SOPE   O2113920   2.748   0.393   5.866  0.5359 -0.7403 -0.1793
  130SOPE   C2113921   2.638   0.452   5.817  0.6188  0.3294  0.5052
  130SOPE   O2213922   2.613   0.573   5.827  0.1639  0.3361 -0.2032
  130SOPE   C2213923   2.551   0.353   5.745  0.4494  0.3067  0.0594
  130SOPE   H2R13924   2.458   0.350   5.806  1.6883 -0.1999  2.0336
  130SOPE   H2S13925   2.602   0.254   5.752  2.2845  1.0222 -2.0537
  130SOPE    C313926   2.988   0.414   5.900  0.4478 -0.5678  0.6380
  130SOPE    HX13927   2.989   0.323   5.963 -1.1196 -0.5601  0.7196
  130SOPE    HY13928   3.060   0.476   5.958  0.0702  0.9855 -0.4847
  130SOPE   O3113929   3.031   0.393   5.767 -0.2967 -0.0090  0.4626
  130SOPE   C3113930   3.024   0.286   5.703  1.3114  0.5864 -0.4335
  130SOPE   O3213931   2.978   0.183   5.743 -0.3100  0.2741  0.1966
  130SOPE   C3213932   3.093   0.308   5.567  0.3855 -0.6737 -0.1952
  130SOPE   H2X13933   3.199   0.340   5.576 -0.4838  3.1072 -1.2857
  130SOPE   H2Y13934   3.023   0.387   5.530 -0.6515 -1.0609  0.8510
  130SOPE   C2313935   2.528   0.390   5.596 -0.6892  0.4356 -0.5919
  130SOPE   H3R13936   2.483   0.491   5.589  0.2745  0.7885 -2.5548
  130SOPE   H3S13937   2.468   0.307   5.552 -0.8637 -0.8100  1.8114
  130SOPE   C2413938   2.663   0.383   5.516  0.6731  0.2459 -0.5054
  130SOPE   H4R13939   2.735   0.444   5.575  0.8192 -2.1243  1.9992
  130SOPE   H4S13940   2.709   0.281   5.513 -2.1063 -1.1969  1.3723
  130SOPE   C2513941   2.647   0.424   5.372  0.5045 -0.3153 -0.4970
  130SOPE   H5R13942   2.557   0.377   5.326 -0.3673  0.7767  0.0570
  130SOPE   H5S13943   2.631   0.533   5.366  2.2760  0.0260  0.4370
  130SOPE   C2613944   2.769   0.383   5.288  0.4787  0.2978  0.3741
  130SOPE   H6R13945   2.867   0.416   5.328  1.2607 -0.1964 -1.0539
  130SOPE   H6S13946   2.784   0.273   5.294 -1.4532  0.0260  0.7859
  130SOPE   C2713947   2.760   0.419   5.141  0.1126 -0.1733 -1.0013
  130SOPE   H7R13948   2.670   0.369   5.100 -0.6630 -0.3359  0.8179
  130SOPE   H7S13949   2.757   0.529   5.125  2.3538 -0.1488 -1.6117
  130SOPE   C2813950   2.882   0.367   5.067 -0.7681  0.5580  0.0441
  130SOPE   H8R13951   2.975   0.415   5.103  1.0858 -2.2702 -0.6574
  130SOPE   H8S13952   2.889   0.260   5.097  1.0134  0.6249 -0.0263
  130SOPE   C2913953   2.879   0.372   4.918  0.2584 -0.1931  0.5734
  130SOPE   H9113954   2.946   0.448   4.876  2.5707 -0.6912  3.0610
  130SOPE  C21013955   2.810   0.290   4.832 -0.5461 -0.1990  0.6000
  130SOPE  H10113956   2.824   0.313   4.725 -1.1955  2.2312  0.9807
  130SOPE  C21113957   2.721   0.180   4.871  0.0511 -0.4508 -0.4367
  130SOPE  H11R13958   2.730   0.159   4.979 -1.0236  1.2017  0.0087
  130SOPE  H11S13959   2.743   0.088   4.812  1.1450 -0.1776 -0.4649
  130SOPE  C21213960   2.574   0.221   4.843  0.0570  0.3463 -0.3059
  130SOPE  H12R13961   2.563   0.312   4.906  1.2804 -0.5374  1.2693
  130SOPE  H12S13962   2.504   0.148   4.889 -0.0521  0.7321  0.1521
  130SOPE  C21313963   2.534   0.238   4.701 -0.1575 -0.1123  0.8244
  130SOPE  H13R13964   2.557   0.143   4.647  1.2569  0.3507  0.5769
  130SOPE  H13S13965   2.602   0.316   4.660  2.0489 -2.1336  0.4134
  130SOPE  C21413966   2.384   0.270   4.675 -0.2790  0.2578  0.5691
  130SOPE  H14R13967   2.359   0.366   4.723  0.7033  0.3755  0.8630
  130SOPE  H14S13968   2.319   0.195   4.724  0.9597 -0.2352  1.5097
  130SOPE  C21513969   2.354   0.281   4.531 -0.7088  0.2847 -0.6541
  130SOPE  H15R13970   2.421   0.359   4.489 -0.7745  0.1995 -0.9152
  130SOPE  H15S13971   2.250   0.320   4.528 -0.0287  2.6882  1.9455
  130SOPE  C21613972   2.365   0.146   4.464  0.1523  0.7173  0.1664
  130SOPE  H16R13973   2.473   0.132   4.439 -0.4834 -0.8206 -2.0160
  130SOPE  H16S13974   2.333   0.158   4.358  1.2795  1.3866 -0.1211
  130SOPE  C21713975   2.290   0.024   4.526  0.6833  0.3445 -0.2686
  130SOPE  H17R13976   2.333   0.013   4.628  1.1187 -1.3818 -0.6101
  130SOPE  H17S13977   2.321  -0.068   4.472  1.2546  1.0095 -1.1161
  130SOPE  C21813978   2.136   0.043   4.518 -0.6590 -0.3254  0.4668
  130SOPE  H18R13979   2.110   0.075   4.415 -0.3655  2.4720  1.1735
  130SOPE  H18S13980   2.098   0.123   4.585 -0.1942 -0.0355  0.3913
  130SOPE  H18T13981   2.080  -0.049   4.545 -1.4594  0.0707  0.1667
  130SOPE   C3313982   3.073   0.201   5.465 -0.3033 -0.2077 -0.3786
  130SOPE   H3X13983   2.964   0.198   5.442 -0.6512 -0.0898  1.1888
  130SOPE   H3Y13984   3.106   0.106   5.514 -2.6201 -0.6474  0.4495
  130SOPE   C3413985   3.145   0.244   5.331  0.6878 -0.1202 -0.6872
  130SOPE   H4X13986   3.237   0.295   5.364 -0.6136  0.9248  1.4949
  130SOPE   H4Y13987   3.093   0.325   5.277  0.3208  0.1457  0.0575
  130SOPE   C3513988   3.145   0.122   5.231 -0.6387  0.1830 -0.6314
  130SOPE   H5X13989   3.046   0.072   5.241 -2.0262  2.8077 -0.1099
  130SOPE   H5Y13990   3.216   0.052   5.280 -0.1333  1.6433  0.8429
  130SOPE   C3613991   3.180   0.149   5.088 -0.1830  0.5667  0.8813
  130SOPE   H6X13992   3.268   0.217   5.083  0.3215 -0.0643  0.9791
  130SOPE   H6Y13993   3.100   0.214   5.048  0.2377  0.3397 -0.3704
  130SOPE   C3713994   3.195   0.020   5.010  0.2234 -0.2291 -0.2988
  130SOPE   H7X13995   3.101  -0.035   5.031 -0.1664 -0.0357 -1.4643
  130SOPE   H7Y13996   3.280  -0.044   5.040  0.9416  1.4143  1.3778
  130SOPE   C3813997   3.195   0.031   4.858 -0.5897  0.0044 -0.5795
  130SOPE   H8X13998   3.126   0.116   4.840  1.5805  2.2596  1.0127
  130SOPE   H8Y13999   3.173  -0.069   4.814  0.5894  0.2356 -1.7894
  130SOPE   C3914000   3.338   0.069   4.806  0.0534  0.4892  0.4876
  130SOPE   H9X14001   3.402  -0.017   4.834 -0.6627 -0.6159 -1.1117
  130SOPE   H9Y14002   3.372   0.164   4.852  2.3571 -0.4475  0.8166
  130SOPE  C31014003   3.344   0.091   4.653 -0.1560  0.5467 -0.1961
  130SOPE  H10X14004   3.257   0.154   4.625  0.7630  1.3530 -1.3644
  130SOPE  H10Y14005   3.333  -0.005   4.599 -0.1928 -0.1489  1.0100
  130SOPE  C31114006   3.463   0.172   4.589  0.7469  0.7301 -0.1631
  130SOPE  H11X14007   3.550   0.103   4.593  1.0006  1.0570  3.6255
  130SOPE  H11Y14008   3.486   0.256   4.658 -0.0946 -0.2262  1.3358
  130SOPE  C31214009   3.443   0.219   4.446  0.6654 -0.2185 -0.1554
  130SOPE  H12X14010   3.356   0.287   4.458 -0.1445 -1.1516 -0.6129
  130SOPE  H12Y14011   3.424   0.133   4.378  0.7976  0.5001 -1.1129
  130SOPE  C31314012   3.563   0.297   4.388 -0.0249 -0.7774  0.3808
  130SOPE  H13X14013   3.540   0.317   4.281  2.1948 -0.6589 -0.1192
  130SOPE  H13Y14014   3.653   0.232   4.391  1.7994  1.6273  0.1054
  130SOPE  C31414015   3.587   0.427   4.463 -0.5065 -0.0919 -0.1819
  130SOPE  H14X14016   3.640   0.420   4.560 -0.8973  0.0715  0.0461
  130SOPE  H14Y14017   3.486   0.469   4.481 -0.7966 -0.3518 -1.1091
  130SOPE  C31514018   3.662   0.526   4.369  0.5977 -0.5144  0.0150
  130SOPE  H15X14019   3.637   0.530   4.261 -0.5340  3.4204  0.2602
  130SOPE  H15Y14020   3.769   0.502   4.358  0.0684 -2.7797 -0.7837
  130SOPE  C31614021   3.637   0.669   4.415  0.0114 -0.2124 -0.4478
  130SOPE  H16X14022   3.664   0.687   4.521 -1.1159  0.6849 -0.2919
  130SOPE  H16Y14023   3.527   0.684   4.404 -0.1444 -0.8191  0.2529
  130SOPE  C31714024   3.710   0.773   4.321 -0.8043 -0.4195 -0.9367
  130SOPE  H17X14025   3.690   0.736   4.218 -0.4934 -0.5324 -0.9582
  130SOPE  H17Y14026   3.820   0.762   4.329 -0.9725 -1.5549  0.1246
  130SOPE  C31814027   3.661   0.910   4.335 -0.5740  0.0417  0.4766
  130SOPE  H18X14028   3.665   0.946   4.440 -0.2483  3.0600 -0.4605
  130SOPE  H18Y14029   3.552   0.921   4.314 -1.1972 -0.2805  3.1944
  130SOPE  H18Z14030   3.717   0.987   4.278 -1.5295 -0.6610 -1.5051
  131SOPE     N14031   3.306   3.328   1.901 -0.3775 -0.0870  0.2982
  131SOPE   HN114032   3.362   3.408   1.865 -1.4944  0.3002 -0.6572
  131SOPE   HN214033   3.238   3.311   1.824  1.3206  0.5622 -1.4382
  131SOPE   HN314034   3.240   3.365   1.971 -0.5049 -0.3347  0.3116
  131SOPE   C1214035   3.371   3.198   1.960 -0.4175 -0.9648 -0.0788
  131SOPE  H12A14036   3.446   3.236   2.033  1.0086 -3.7261  0.0634
  131SOPE  H12B14037   3.422   3.143   1.878 -0.2094  0.1959 -0.7444
  131SOPE   C1114038   3.269   3.115   2.036  0.4079 -0.0626  0.0218
  131SOPE  H11A14039   3.241   3.164   2.131  0.0768  0.3517 -0.2829
  131SOPE  H11B14040   3.311   3.016   2.062 -0.1506 -0.5430 -0.8617
  131SOPE     P14041   3.020   3.166   1.978 -0.0983 -0.0340  0.3381
  131SOPE   O1314042   2.917   3.092   1.907 -0.2367  0.7771 -0.5255
  131SOPE   O1414043   3.027   3.314   1.953  0.1169 -0.1263 -0.1688
  131SOPE   O1214044   3.160   3.106   1.945 -0.8216  0.1488  0.0915
  131SOPE   O1114045   2.998   3.145   2.129 -0.1385 -0.0945 -0.4319
  131SOPE    C114046   2.969   3.018   2.181 -0.6610  0.2238  0.0735
  131SOPE    HA14047   3.007   2.937   2.116 -2.6632 -0.1379 -0.7039
  131SOPE    HB14048   2.863   2.993   2.200 -0.7369  0.2191 -0.3659
  131SOPE    C214049   3.044   3.005   2.323 -0.0459  0.3040  0.5967
  131SOPE    HS14050   3.154   3.001   2.309  0.1271  1.8776  1.2314
  131SOPE   O2114051   3.000   2.890   2.397  0.2815 -0.0671  0.2040
  131SOPE   C2114052   3.041   2.771   2.359 -0.4750 -0.0510  0.5865
  131SOPE   O2214053   3.135   2.747   2.283 -0.0004 -0.0183  0.0340
  131SOPE   C2214054   2.956   2.668   2.435 -0.0250  0.1670  0.6066
  131SOPE   H2R14055   3.010   2.573   2.413 -0.7571  0.3512 -2.4447
  131SOPE   H2S14056   2.857   2.660   2.386  0.1511 -1.1572  0.4260
  131SOPE    C314057   3.020   3.128   2.412  0.1037  0.3172  0.0449
  131SOPE    HX14058   2.909   3.135   2.414  0.0595 -0.4184  0.5523
  131SOPE    HY14059   3.068   3.216   2.364  0.3539 -0.9702 -2.2326
  131SOPE   O3114060   3.063   3.113   2.547  0.2203  0.3710 -0.3652
  131SOPE   C3114061   3.187   3.128   2.581 -0.2046 -0.3609  0.5472
  131SOPE   O3214062   3.276   3.142   2.500 -0.2911  0.2560  0.4857
  131SOPE   C3214063   3.208   3.118   2.735 -0.2378 -0.4654 -0.3650
  131SOPE   H2X14064   3.146   3.034   2.774  1.9108 -1.1397  1.8797
  131SOPE   H2Y14065   3.163   3.210   2.779 -0.2143 -1.2546  1.4108
  131SOPE   C2314066   2.952   2.692   2.585 -0.6124  0.4894  0.2580
  131SOPE   H3R14067   2.883   2.628   2.643 -1.2315  2.1307  1.4186
  131SOPE   H3S14068   2.926   2.797   2.613 -0.6432  0.2305  1.2411
  131SOPE   C2414069   3.092   2.662   2.641  0.5063 -0.1292 -0.8919
  131SOPE   H4R14070   3.110   2.555   2.615 -0.1699 -0.1266 -1.3923
  131SOPE   H4S14071   3.157   2.733   2.585  0.5695  0.1282 -0.4888
  131SOPE   C2514072   3.104   2.687   2.793  0.6855 -0.0993 -0.2322
  131SOPE   H5R14073   3.213   2.693   2.818  0.7930 -0.5805 -0.5804
  131SOPE   H5S14074   3.052   2.784   2.810 -2.9050 -1.4523 -2.5244
  131SOPE   C2614075   3.048   2.585   2.889  0.2984  0.4535 -0.4051
  131SOPE   H6R14076   2.937   2.580   2.890  0.3488 -2.2332 -1.0020
  131SOPE   H6S14077   3.086   2.484   2.862 -0.4794  0.0795 -0.1285
  131SOPE   C2714078   3.094   2.638   3.028  0.2655  0.5419 -0.4568
  131SOPE   H7R14079   3.204   2.647   3.026  0.3581 -0.3863  0.0145
  131SOPE   H7S14080   3.053   2.740   3.045 -0.4347  0.1070  0.5836
  131SOPE   C2814081   3.070   2.543   3.150 -0.5225  0.2343  0.0204
  131SOPE   H8R14082   3.152   2.468   3.143  1.6370  2.5493 -1.6600
  131SOPE   H8S14083   3.111   2.596   3.239  1.0523  1.3637 -1.3128
  131SOPE   C2914084   2.928   2.503   3.162 -0.3209 -0.7144 -0.2588
  131SOPE   H9114085   2.858   2.569   3.109  0.8998 -0.4728 -1.6228
  131SOPE  C21014086   2.871   2.402   3.226  0.1478  0.5913 -0.9230
  131SOPE  H10114087   2.762   2.390   3.218  0.2380  0.5268 -2.4930
  131SOPE  C21114088   2.959   2.300   3.304  0.1650 -0.0197 -0.2891
  131SOPE  H11R14089   3.058   2.328   3.344  1.4467 -1.2646 -2.3914
  131SOPE  H11S14090   2.965   2.210   3.238 -0.1616  2.1684 -3.4989
  131SOPE  C21214091   2.883   2.236   3.418 -0.0341 -0.3091  0.2252
  131SOPE  H12R14092   2.945   2.151   3.454 -0.8177 -1.7138 -1.5859
  131SOPE  H12S14093   2.781   2.202   3.390 -0.4082  0.5987  0.4763
  131SOPE  C21314094   2.871   2.327   3.539 -0.5374 -0.3218  0.2665
  131SOPE  H13R14095   2.775   2.295   3.585  0.3510 -1.7609  1.1582
  131SOPE  H13S14096   2.867   2.434   3.508 -0.7413 -0.0787  1.1271
  131SOPE  C21414097   2.991   2.312   3.634  0.1650  0.1218 -0.9935
  131SOPE  H14R14098   3.094   2.325   3.595  0.4138  3.3644  0.4481
  131SOPE  H14S14099   2.994   2.205   3.665  0.3175  0.9129  1.9313
  131SOPE  C21514100   2.979   2.398   3.756 -0.4369 -0.1319  0.5775
  131SOPE  H15R14101   3.039   2.352   3.837  3.9938  1.7694 -1.3108
  131SOPE  H15S14102   2.871   2.400   3.785 -0.3230  1.0992  0.9643
  131SOPE  C21614103   3.024   2.538   3.714  0.0278  0.4130 -0.1347
  131SOPE  H16R14104   2.972   2.578   3.624 -2.6629 -0.1491  1.0808
  131SOPE  H16S14105   3.134   2.540   3.694  0.1330 -0.3303  0.3690
  131SOPE  C21714106   3.018   2.642   3.827 -0.6124 -0.6641 -0.3937
  131SOPE  H17R14107   3.108   2.644   3.892  0.0178  1.5471 -1.2741
  131SOPE  H17S14108   2.934   2.609   3.891 -1.1731  1.1139 -0.1835
  131SOPE  C21814109   2.999   2.789   3.775 -0.1909  0.4210 -0.2001
  131SOPE  H18R14110   2.979   2.856   3.861  0.3933 -1.6389  1.6338
  131SOPE  H18S14111   2.918   2.783   3.699 -1.4626 -1.5406  1.1858
  131SOPE  H18T14112   3.088   2.830   3.723  0.4055  0.9991  1.2210
  131SOPE   C3314113   3.353   3.102   2.785  0.4254 -0.4282  0.3054
  131SOPE   H3X14114   3.409   3.162   2.710  1.0840 -0.0633  1.0688
  131SOPE   H3Y14115   3.379   2.994   2.783  1.8877 -0.1193  0.9360
  131SOPE   C3414116   3.376   3.144   2.931  0.7237 -0.3801 -0.2812
  131SOPE   H4X14117   3.351   3.251   2.919  2.8715  0.0855 -0.9352
  131SOPE   H4Y14118   3.478   3.119   2.965  0.3585 -2.8113 -0.7635
  131SOPE   C3514119   3.281   3.062   3.029  0.2437 -0.4380  0.5103
  131SOPE   H5X14120   3.263   2.959   2.990  2.2199 -0.9855  0.9101
  131SOPE   H5Y14121   3.188   3.123   3.032  1.7488  1.9860  0.4188
  131SOPE   C3614122   3.342   3.048   3.164 -0.2986  0.3831  0.1613
  131SOPE   H6X14123   3.381   3.149   3.189  1.6876 -0.4117  0.4457
  131SOPE   H6Y14124   3.428   2.977   3.162  0.1476  0.9312 -0.0621
  131SOPE   C3714125   3.234   3.000   3.265  0.5848  0.0646 -0.3987
  131SOPE   H7X14126   3.190   2.906   3.226 -0.8794  0.4520  0.2426
  131SOPE   H7Y14127   3.149   3.071   3.254 -1.1830 -1.9477 -0.2827
  131SOPE   C3814128   3.293   2.983   3.409 -0.0901 -0.6794  0.7081
  131SOPE   H8X14129   3.206   2.965   3.476 -1.6484  2.2610 -0.3363
  131SOPE   H8Y14130   3.312   3.088   3.441  0.1332  0.2225 -2.1004
  131SOPE   C3914131   3.422   2.900   3.437 -0.6524 -0.1810  0.0648
  131SOPE   H9X14132   3.515   2.929   3.384  1.5013 -0.9309  3.1602
  131SOPE   H9Y14133   3.394   2.799   3.401 -1.3486  0.5291 -1.4780
  131SOPE  C31014134   3.475   2.899   3.582  0.2075 -0.2295 -0.3439
  131SOPE  H10X14135   3.537   2.986   3.615 -1.3508  0.4071  1.0974
  131SOPE  H10Y14136   3.546   2.815   3.596 -1.0016 -0.9084  2.3542
  131SOPE  C31114137   3.371   2.869   3.691 -0.0978  0.1890 -0.3549
  131SOPE  H11X14138   3.302   2.781   3.685 -1.6945  1.3953 -0.4907
  131SOPE  H11Y14139   3.296   2.951   3.699 -1.4570 -1.0490  0.2698
  131SOPE  C31214140   3.441   2.874   3.830 -0.0102  0.5523  0.0806
  131SOPE  H12X14141   3.451   2.981   3.859 -0.4124  1.3397 -2.4751
  131SOPE  H12Y14142   3.543   2.831   3.825  0.7401  2.3964 -2.0053
  131SOPE  C31314143   3.371   2.809   3.949 -0.0784 -0.4014 -0.0377
  131SOPE  H13X14144   3.363   2.701   3.925  0.5116 -0.0065 -2.2448
  131SOPE  H13Y14145   3.264   2.839   3.958 -0.1840 -1.1414  1.4062
  131SOPE  C31414146   3.439   2.837   4.078 -0.2135 -0.2209 -0.0099
  131SOPE  H14X14147   3.438   2.945   4.101 -0.4116 -0.6490  2.2609
  131SOPE  H14Y14148   3.539   2.789   4.085 -0.5019 -0.5513  2.9673
  131SOPE  C31514149   3.364   2.770   4.197  0.3643  0.0067 -0.2540
  131SOPE  H15X14150   3.307   2.679   4.168  0.8491 -0.7132  0.9682
  131SOPE  H15Y14151   3.282   2.839   4.226 -0.5506 -0.4850 -1.5561
  131SOPE  C31614152   3.459   2.739   4.315  0.0126 -0.0837  0.1621
  131SOPE  H16X14153   3.527   2.658   4.279  0.3822  0.0454  0.5648
  131SOPE  H16Y14154   3.394   2.706   4.399  2.1617 -0.4362  1.7578
  131SOPE  C31714155   3.550   2.856   4.356 -0.1896 -0.3148 -0.0700
  131SOPE  H17X14156   3.485   2.940   4.388 -0.1927 -0.2141 -0.3418
  131SOPE  H17Y14157   3.598   2.897   4.265 -0.9889  0.1246 -0.3020
  131SOPE  C31814158   3.647   2.827   4.472  0.1034  0.0336 -0.1386
  131SOPE  H18X14159   3.716   2.907   4.505  1.8470 -1.0572 -0.9971
  131SOPE  H18Y14160   3.712   2.743   4.439 -1.1065 -1.3059  0.7736
  131SOPE  H18Z14161   3.584   2.791   4.556 -1.2767  1.3996 -0.5260
  132SOPE     N14162   0.616   4.126   1.682  0.2332 -0.3540 -0.6565
  132SOPE   HN114163   0.554   4.116   1.599 -0.6998 -0.3787  0.0243
  132SOPE   HN214164   0.631   4.029   1.716 -3.5663 -0.0115  2.9210
  132SOPE   HN314165   0.549   4.165   1.751  0.3039 -2.0968  0.4561
  132SOPE   C1214166   0.740   4.205   1.668 -0.0110 -0.1234  0.7001
  132SOPE  H12A14167   0.711   4.308   1.639 -0.5015 -0.5181 -0.2477
  132SOPE  H12B14168   0.814   4.156   1.601 -1.5738  0.3865 -1.5293
  132SOPE   C1114169   0.807   4.226   1.802  0.7821 -0.5831 -0.0424
  132SOPE  H11A14170   0.734   4.261   1.879  1.8486  2.2496 -0.1766
  132SOPE  H11B14171   0.875   4.312   1.784  1.4592 -1.2331 -0.6183
  132SOPE     P14172   1.034   4.145   1.884  0.2996 -0.3181  0.3868
  132SOPE   O1314173   1.092   4.242   1.787 -0.1688  0.3446 -0.6947
  132SOPE   O1414174   1.095   4.013   1.905  0.4622  0.0479  0.0566
  132SOPE   O1214175   0.881   4.110   1.847 -0.4052  0.4756 -0.2094
  132SOPE   O1114176   1.024   4.223   2.017 -0.0004 -0.6506  0.4161
  132SOPE    C114177   1.006   4.150   2.133 -0.3610  0.1790 -0.6202
  132SOPE    HA14178   1.102   4.097   2.149  0.9530  2.6684  0.2221
  132SOPE    HB14179   0.932   4.070   2.113  0.2353 -0.7946  0.9399
  132SOPE    C214180   0.959   4.239   2.250 -1.1016  0.3317 -0.6168
  132SOPE    HS14181   0.868   4.293   2.217 -1.0889  0.2741 -0.7450
  132SOPE   O2114182   1.072   4.321   2.284  0.2343 -0.3843 -0.0972
  132SOPE   C2114183   1.041   4.446   2.322  0.3003 -0.5303 -0.3777
  132SOPE   O2214184   0.936   4.500   2.302  0.1185  0.0435  0.0505
  132SOPE   C2214185   1.170   4.507   2.382 -0.2519  0.5262  0.7843
  132SOPE   H2R14186   1.234   4.548   2.301 -1.4867 -1.2686 -1.1955
  132SOPE   H2S14187   1.222   4.419   2.426 -2.1162 -1.7961 -1.3822
  132SOPE    C314188   0.924   4.155   2.376 -0.3223  0.5471  0.1149
  132SOPE    HX14189   1.013   4.097   2.409  0.9894  1.4386 -1.6577
  132SOPE    HY14190   0.849   4.080   2.343 -0.3727  0.0433  1.2984
  132SOPE   O3114191   0.869   4.236   2.490 -0.4592 -0.5208 -0.0382
  132SOPE   C3114192   0.747   4.279   2.479 -0.5826  0.3888 -0.1395
  132SOPE   O3214193   0.673   4.261   2.381 -0.4836  0.2743  0.0674
  132SOPE   C3214194   0.704   4.361   2.601  0.0208 -0.1909  0.4585
  132SOPE   H2X14195   0.599   4.397   2.592  0.3625  1.1047  1.2732
  132SOPE   H2Y14196   0.769   4.451   2.604 -1.6965  1.0923  1.6887
  132SOPE   C2314197   1.141   4.609   2.489 -0.4908 -0.0615 -0.8202
  132SOPE   H3R14198   1.081   4.699   2.462  1.5613  1.2752 -1.1587
  132SOPE   H3S14199   1.242   4.647   2.518 -0.6632  1.1644 -1.7513
  132SOPE   C2414200   1.088   4.552   2.620 -0.9489  0.6460 -1.1382
  132SOPE   H4R14201   1.026   4.627   2.675 -1.0230  1.9284 -2.9054
  132SOPE   H4S14202   1.015   4.471   2.597  0.5974 -1.1465 -0.0914
  132SOPE   C2514203   1.200   4.493   2.713 -1.0971  0.3190 -0.5778
  132SOPE   H5R14204   1.268   4.431   2.652 -0.9460 -1.2689  1.1213
  132SOPE   H5S14205   1.271   4.572   2.743 -0.0011 -0.3032 -1.4718
  132SOPE   C2614206   1.158   4.402   2.831 -0.2003  0.0852  0.2936
  132SOPE   H6R14207   1.236   4.380   2.908 -3.0000  0.2053  3.4084
  132SOPE   H6S14208   1.072   4.440   2.890 -0.0737 -1.3043  1.4379
  132SOPE   C2714209   1.116   4.257   2.779  0.0557 -0.3148 -0.5271
  132SOPE   H7R14210   1.005   4.263   2.777  0.0090  2.1417  2.3893
  132SOPE   H7S14211   1.158   4.243   2.677 -1.0472  1.0978 -1.1944
  132SOPE   C2814212   1.164   4.144   2.871 -0.0016 -0.3481  0.2012
  132SOPE   H8R14213   1.269   4.129   2.838  0.2068 -1.7678  1.4181
  132SOPE   H8S14214   1.185   4.168   2.977  2.8762 -0.0918 -0.3610
  132SOPE   C2914215   1.080   4.021   2.846  0.4510  0.2465  0.1610
  132SOPE   H9114216   1.109   3.977   2.750 -1.1291 -1.1748  0.3044
  132SOPE  C21014217   1.004   3.958   2.932  0.0716  0.0608 -0.2911
  132SOPE  H10114218   0.951   3.868   2.901 -2.1769  0.9996  0.6347
  132SOPE  C21114219   0.980   3.997   3.076 -0.4392 -0.1255  0.5664
  132SOPE  H11R14220   0.880   3.966   3.114 -0.6511  0.5441  0.5621
  132SOPE  H11S14221   0.957   4.105   3.083 -1.1316 -0.0601 -1.8874
  132SOPE  C21214222   1.096   3.953   3.168  0.5084  0.8983 -0.1438
  132SOPE  H12R14223   1.186   3.984   3.111 -0.0076 -1.5259 -2.4900
  132SOPE  H12S14224   1.096   3.842   3.177  2.9096  0.8274 -0.2868
  132SOPE  C21314225   1.075   4.006   3.307  0.1932 -0.3000 -0.6944
  132SOPE  H13R14226   1.034   4.108   3.293  1.7011  0.2392 -1.3910
  132SOPE  H13S14227   1.172   4.017   3.360  0.0690  0.0249 -0.5291
  132SOPE  C21414228   0.998   3.920   3.404  0.6660 -0.3774 -0.6484
  132SOPE  H14R14229   1.053   3.830   3.436 -0.4158 -0.6945  0.3926
  132SOPE  H14S14230   0.908   3.888   3.348  0.4657 -0.4654 -0.2816
  132SOPE  C21514231   0.964   3.992   3.531 -0.3014 -0.0962 -0.0405
  132SOPE  H15R14232   0.901   4.081   3.512 -2.4242 -1.3167  0.8526
  132SOPE  H15S14233   1.056   4.026   3.582 -0.1814 -1.8670  1.0147
  132SOPE  C21614234   0.885   3.896   3.630 -0.2103 -0.2159  0.4011
  132SOPE  H16R14235   0.946   3.804   3.642  0.4269  0.1558  0.0709
  132SOPE  H16S14236   0.789   3.858   3.587 -0.5837 -0.2197  1.2070
  132SOPE  C21714237   0.859   3.973   3.758 -0.4502  0.4677 -0.1205
  132SOPE  H17R14238   0.758   3.943   3.793 -0.8353  0.7043 -0.9949
  132SOPE  H17S14239   0.849   4.082   3.736  0.9187  0.2003 -2.5024
  132SOPE  C21814240   0.955   3.961   3.875 -0.1994  0.5286  1.4850
  132SOPE  H18R14241   0.920   3.994   3.975 -0.3848  1.7454  1.0442
  132SOPE  H18S14242   1.042   4.025   3.851 -0.3384  0.7443  1.5541
  132SOPE  H18T14243   0.991   3.856   3.878  2.1964  1.2538  0.5657
  132SOPE   C3314244   0.701   4.277   2.730 -1.0352  0.2365 -0.2474
  132SOPE   H3X14245   0.805   4.245   2.753 -1.4795  0.5869  2.6125
  132SOPE   H3Y14246   0.634   4.189   2.719  0.0715 -0.8287  1.0927
  132SOPE   C3414247   0.655   4.359   2.852  0.2885  0.1537 -0.0436
  132SOPE   H4X14248   0.548   4.385   2.838  0.0229 -1.6922 -1.8948
  132SOPE   H4Y14249   0.708   4.456   2.859  2.2781 -0.9271  0.3982
  132SOPE   C3514250   0.671   4.299   2.990 -0.3068 -0.5682  0.5112
  132SOPE   H5X14251   0.773   4.257   3.004  0.8956  1.1721 -2.1733
  132SOPE   H5Y14252   0.604   4.212   3.007  0.3248 -0.9176  1.2912
  132SOPE   C3614253   0.649   4.407   3.098 -0.5043 -0.1158  0.7543
  132SOPE   H6X14254   0.553   4.460   3.082  0.4088  1.8403  1.4806
  132SOPE   H6Y14255   0.720   4.491   3.089  1.5140 -1.6495  1.6149
  132SOPE   C3714256   0.661   4.346   3.246  0.2861  0.0673 -0.1887
  132SOPE   H7X14257   0.757   4.293   3.265  0.5638  1.1799  1.8007
  132SOPE   H7Y14258   0.590   4.262   3.257  2.1752 -1.3755  1.9018
  132SOPE   C3814259   0.613   4.456   3.345 -0.2069  0.0887 -0.1429
  132SOPE   H8X14260   0.521   4.504   3.305 -0.3278 -0.2979 -0.3400
  132SOPE   H8Y14261   0.695   4.531   3.340  0.6751 -0.9060 -1.1820
  132SOPE   C3914262   0.584   4.411   3.492  0.3777 -0.4629 -0.3905
  132SOPE   H9X14263   0.512   4.326   3.483 -1.5443  0.7761  2.0004
  132SOPE   H9Y14264   0.528   4.492   3.544 -0.0433  0.9312 -2.8344
  132SOPE  C31014265   0.706   4.362   3.569 -0.1871 -0.8940 -0.1182
  132SOPE  H10X14266   0.778   4.304   3.508  0.1722 -0.1519 -0.4125
  132SOPE  H10Y14267   0.677   4.293   3.652 -0.1874 -1.3052 -0.4609
  132SOPE  C31114268   0.780   4.487   3.626  0.0608 -0.3951 -0.1939
  132SOPE  H11X14269   0.734   4.576   3.578  1.5686  1.8807  2.3669
  132SOPE  H11Y14270   0.881   4.493   3.580  0.5970  0.2818  1.0463
  132SOPE  C31214271   0.763   4.505   3.775 -0.6139  0.9287  0.5807
  132SOPE  H12X14272   0.661   4.498   3.819 -1.7976 -0.3236 -2.1394
  132SOPE  H12Y14273   0.818   4.597   3.803  0.1477  1.0899 -1.2934
  132SOPE  C31314274   0.836   4.399   3.859 -0.1013 -0.6181 -0.0597
  132SOPE  H13X14275   0.937   4.394   3.814  0.2360  3.8160 -0.2086
  132SOPE  H13Y14276   0.785   4.300   3.853 -1.3927 -0.1368  1.8745
  132SOPE  C31414277   0.866   4.434   4.007  0.1190 -0.2116  0.2045
  132SOPE  H14X14278   0.902   4.539   4.009 -0.8751  0.1396  0.1186
  132SOPE  H14Y14279   0.945   4.364   4.043  1.6740  1.2838 -0.1682
  132SOPE  C31514280   0.737   4.421   4.088  0.3491  0.0300 -0.2010
  132SOPE  H15X14281   0.689   4.324   4.061 -0.5601  0.4215 -0.0173
  132SOPE  H15Y14282   0.668   4.502   4.057 -0.4846 -1.2327 -1.8005
  132SOPE  C31614283   0.770   4.420   4.240 -0.1699 -0.7440 -0.2757
  132SOPE  H16X14284   0.805   4.523   4.263 -1.8394 -0.1399 -0.2738
  132SOPE  H16Y14285   0.856   4.353   4.260  2.9095  1.7194 -3.8723
  132SOPE  C31714286   0.651   4.385   4.323 -0.0577  0.1577 -0.0061
  132SOPE  H17X14287   0.613   4.285   4.293 -0.0635  0.4236 -0.9128
  132SOPE  H17Y14288   0.571   4.459   4.300  0.3093  0.6757  0.3705
  132SOPE  C31814289   0.678   4.394   4.475  0.5426 -0.4919  0.0439
  132SOPE  H18X14290   0.736   4.305   4.508  2.7706  0.6206 -0.6276
  132SOPE  H18Y14291   0.577   4.381   4.520  0.3444  1.5491  0.2696
  132SOPE  H18Z14292   0.724   4.490   4.506 -0.9440 -0.0842  1.0410
  133SOPE     N14293   2.002   6.205   1.690 -0.0562 -0.5052  0.1648
  133SOPE   HN114294   1.988   6.298   1.734  0.3997  0.4943 -1.7387
  133SOPE   HN214295   1.937   6.177   1.614 -2.7986 -2.0121  2.8262
  133SOPE   HN314296   1.995   6.133   1.766 -0.6945 -0.7537 -0.1197
  133SOPE   C1214297   2.146   6.214   1.632  0.8775 -0.2555  0.4688
  133SOPE  H12A14298   2.154   6.318   1.592 -0.5486 -0.5013 -0.5275
  133SOPE  H12B14299   2.157   6.137   1.553 -0.3531  1.2637 -1.2846
  133SOPE   C1114300   2.251   6.195   1.743  0.6900 -0.1799  0.1823
  133SOPE  H11A14301   2.225   6.252   1.835  1.1111  0.8559 -0.3367
  133SOPE  H11B14302   2.348   6.229   1.702  1.6526 -1.3094  1.4221
  133SOPE     P14303   2.302   5.997   1.902  0.2529  0.1014  0.3180
  133SOPE   O1314304   2.346   5.857   1.880  0.8693 -0.1502 -0.0073
  133SOPE   O1414305   2.187   6.012   1.993  0.3262 -0.3314 -0.3498
  133SOPE   O1214306   2.257   6.056   1.761  0.4437 -0.1020 -0.0412
  133SOPE   O1114307   2.423   6.091   1.947  0.3218 -0.1938 -0.4185
  133SOPE    C114308   2.400   6.186   2.052  0.5481 -0.0511 -0.0642
  133SOPE    HA14309   2.330   6.146   2.129  1.8125 -0.2850  1.0059
  133SOPE    HB14310   2.355   6.282   2.018 -0.2907  0.3055  1.9369
  133SOPE    C214311   2.533   6.217   2.136  0.2741 -0.2730 -0.2911
  133SOPE    HS14312   2.600   6.269   2.063 -0.5314 -0.0928 -0.9110
  133SOPE   O2114313   2.597   6.097   2.187 -0.5203  0.6363 -0.1519
  133SOPE   C2114314   2.721   6.118   2.228  0.3106 -0.0098 -0.7972
  133SOPE   O2214315   2.785   6.216   2.198 -0.7299 -0.7963  0.2501
  133SOPE   C2214316   2.769   6.007   2.322 -1.5636  0.3207 -0.5166
  133SOPE   H2R14317   2.777   5.910   2.269 -1.1046 -0.1202  0.3357
  133SOPE   H2S14318   2.700   6.005   2.409  3.5667  1.3657  4.1327
  133SOPE    C314319   2.500   6.317   2.256  0.7130  0.0717  0.5248
  133SOPE    HX14320   2.443   6.403   2.213  0.4206 -0.5295 -0.3249
  133SOPE    HY14321   2.592   6.369   2.290  1.1971 -0.6903  0.4102
  133SOPE   O3114322   2.449   6.265   2.380 -0.3058  0.1092 -0.2977
  133SOPE   C3114323   2.322   6.282   2.399  0.0519  0.1684 -0.1680
  133SOPE   O3214324   2.245   6.339   2.320 -0.4445  0.3338 -0.3989
  133SOPE   C3214325   2.268   6.209   2.524  0.3185  0.1425 -1.0271
  133SOPE   H2X14326   2.346   6.198   2.602 -1.5235  1.1639  1.0591
  133SOPE   H2Y14327   2.218   6.114   2.495 -0.4654  0.0288  0.5663
  133SOPE   C2314328   2.905   6.046   2.385  0.1825 -0.0315 -0.0099
  133SOPE   H3R14329   2.897   6.147   2.430 -0.1767 -0.1083  0.1023
  133SOPE   H3S14330   2.988   6.044   2.311  1.4050  0.0958  1.3074
  133SOPE   C2414331   2.959   5.954   2.494  0.3200  0.2417 -0.1561
  133SOPE   H4R14332   2.903   5.955   2.589  0.7151 -1.2144  0.1160
  133SOPE   H4S14333   2.953   5.851   2.453  1.3937 -0.0552  0.4036
  133SOPE   C2514334   3.107   5.978   2.534  0.3728  0.6040 -0.5270
  133SOPE   H5R14335   3.165   5.961   2.441 -1.0151 -0.2927 -1.2701
  133SOPE   H5S14336   3.111   6.081   2.575  0.6991 -0.0236  1.1056
  133SOPE   C2614337   3.153   5.882   2.638  0.3227  1.1774  0.8314
  133SOPE   H6R14338   3.087   5.886   2.727 -0.1365  0.7139  0.5189
  133SOPE   H6S14339   3.163   5.779   2.599  1.9654  0.7530  2.2389
  133SOPE   C2714340   3.292   5.926   2.674  0.1782 -0.1861 -0.5612
  133SOPE   H7R14341   3.350   5.940   2.580  0.1448 -0.7721 -0.6746
  133SOPE   H7S14342   3.292   6.026   2.722 -2.8372 -0.3442 -0.0462
  133SOPE   C2814343   3.359   5.810   2.754  0.2552 -0.8244 -0.2138
  133SOPE   H8R14344   3.279   5.774   2.822 -0.6115  2.0175  0.4459
  133SOPE   H8S14345   3.370   5.726   2.682  0.5020 -1.1846  0.2414
  133SOPE   C2914346   3.489   5.860   2.817 -0.2122  0.9164 -0.1196
  133SOPE   H9114347   3.532   5.951   2.775 -2.5998  2.4660  0.5622
  133SOPE  C21014348   3.549   5.788   2.919 -1.0175  0.0657  0.1196
  133SOPE  H10114349   3.642   5.827   2.961 -0.9762 -0.7161  0.7678
  133SOPE  C21114350   3.503   5.656   2.974  0.1098 -0.6191  0.1660
  133SOPE  H11R14351   3.506   5.574   2.900  0.2068  0.0585 -0.6001
  133SOPE  H11S14352   3.396   5.674   2.999  0.1863 -0.9372  0.7462
  133SOPE  C21214353   3.561   5.631   3.119 -0.1556 -0.2748  0.2161
  133SOPE  H12R14354   3.668   5.605   3.108  0.3057  2.1041 -1.6831
  133SOPE  H12S14355   3.506   5.538   3.144 -0.7814  0.2279  0.7594
  133SOPE  C21314356   3.533   5.731   3.227  0.3206 -0.3061 -0.2022
  133SOPE  H13R14357   3.427   5.763   3.232 -0.1010 -1.6943  4.4461
  133SOPE  H13S14358   3.594   5.823   3.214  2.3212 -1.6023 -0.4272
  133SOPE  C21414359   3.560   5.664   3.365  0.1115  0.4150 -0.8102
  133SOPE  H14R14360   3.671   5.659   3.376  0.0766  0.0187 -0.6531
  133SOPE  H14S14361   3.520   5.561   3.375  0.6163  0.3853  1.5322
  133SOPE  C21514362   3.519   5.759   3.478 -0.4585 -0.4801 -0.1100
  133SOPE  H15R14363   3.422   5.803   3.446 -0.4926 -1.8213 -2.0235
  133SOPE  H15S14364   3.598   5.836   3.468  0.0890 -1.1920 -1.5960
  133SOPE  C21614365   3.520   5.686   3.607  0.1737 -0.2703 -0.4197
  133SOPE  H16R14366   3.616   5.630   3.606  0.5726  0.3960 -0.1052
  133SOPE  H16S14367   3.437   5.612   3.610  0.4923 -0.6310  3.2876
  133SOPE  C21714368   3.527   5.760   3.746 -0.6761  1.0197  0.2167
  133SOPE  H17R14369   3.433   5.814   3.772 -0.2013  0.7655  2.6927
  133SOPE  H17S14370   3.616   5.826   3.743  0.1605 -0.0423  0.9580
  133SOPE  C21814371   3.576   5.662   3.854  0.3905 -0.6357  0.5458
  133SOPE  H18R14372   3.588   5.722   3.947  0.4635 -0.6508  0.5458
  133SOPE  H18S14373   3.676   5.628   3.819  0.1074 -1.6998  0.7199
  133SOPE  H18T14374   3.516   5.570   3.869 -0.3119 -0.2829 -0.0593
  133SOPE   C3314375   2.154   6.295   2.598 -0.3957  0.6687 -0.0065
  133SOPE   H3X14376   2.081   6.319   2.517  1.3653  1.9313 -1.3162
  133SOPE   H3Y14377   2.189   6.396   2.627  1.1180 -0.1980  1.3164
  133SOPE   C3414378   2.091   6.229   2.722 -0.4298  0.1692  0.2486
  133SOPE   H4X14379   2.040   6.306   2.784 -1.0978 -0.5248  0.5795
  133SOPE   H4Y14380   2.177   6.192   2.781  1.1128  0.2078 -1.8488
  133SOPE   C3514381   1.980   6.129   2.677  0.9474  0.1857  0.0429
  133SOPE   H5X14382   2.027   6.047   2.619  2.0055  0.2666  0.7682
  133SOPE   H5Y14383   1.910   6.173   2.603  0.3319 -1.1032 -0.1829
  133SOPE   C3614384   1.900   6.064   2.788  0.1793 -0.3846  0.6441
  133SOPE   H6X14385   1.970   6.004   2.850  3.5762  1.4629 -1.1519
  133SOPE   H6Y14386   1.817   5.999   2.751  2.3939 -2.1732 -1.4725
  133SOPE   C3714387   1.828   6.160   2.889  0.1593 -0.1972 -0.4146
  133SOPE   H7X14388   1.754   6.220   2.831 -0.0213 -0.7799 -0.7974
  133SOPE   H7Y14389   1.908   6.228   2.923 -3.2054  3.3004  1.3712
  133SOPE   C3814390   1.764   6.107   3.019 -0.1310 -0.7258  0.9832
  133SOPE   H8X14391   1.848   6.052   3.068  2.0114 -0.5901 -2.2648
  133SOPE   H8Y14392   1.675   6.043   3.001 -2.1716  2.1209  0.4653
  133SOPE   C3914393   1.727   6.228   3.103  0.3202 -0.4174 -0.6087
  133SOPE   H9X14394   1.632   6.277   3.075  1.1088  1.1477 -0.6516
  133SOPE   H9Y14395   1.803   6.308   3.091 -0.0221 -0.3733 -3.0278
  133SOPE  C31014396   1.724   6.212   3.254  0.1115  0.8435 -0.2647
  133SOPE  H10X14397   1.712   6.305   3.313  0.1915 -0.7142  2.3312
  133SOPE  H10Y14398   1.827   6.179   3.281 -1.2954 -2.7517  1.3974
  133SOPE  C31114399   1.622   6.111   3.306 -0.2412  0.0373  0.0753
  133SOPE  H11X14400   1.629   6.012   3.256 -0.1832 -1.1389  2.2872
  133SOPE  H11Y14401   1.520   6.149   3.285 -0.3587 -0.3836 -0.1236
  133SOPE  C31214402   1.641   6.083   3.459  0.1902 -0.6162 -0.2044
  133SOPE  H12X14403   1.672   6.181   3.501 -0.4967 -0.3286 -0.3551
  133SOPE  H12Y14404   1.715   6.003   3.478  0.9512 -0.0915 -0.8640
  133SOPE  C31314405   1.520   6.035   3.537 -0.5355 -0.0281  0.3355
  133SOPE  H13X14406   1.466   5.959   3.477 -3.3467  1.0848  1.3080
  133SOPE  H13Y14407   1.457   6.126   3.530 -0.6120  0.1547  2.6511
  133SOPE  C31414408   1.549   5.995   3.673 -0.3297  0.3103 -0.0612
  133SOPE  H14X14409   1.612   6.073   3.721  1.1510 -0.4910 -0.6267
  133SOPE  H14Y14410   1.617   5.908   3.685  0.8408  1.4277  2.2327
  133SOPE  C31514411   1.429   5.988   3.769  0.3464  0.5519 -0.8318
  133SOPE  H15X14412   1.356   5.913   3.731 -0.6700  0.8872  0.3845
  133SOPE  H15Y14413   1.368   6.081   3.768 -1.7816 -0.7692 -0.9435
  133SOPE  C31614414   1.463   5.933   3.909 -0.4383 -0.3645 -0.4258
  133SOPE  H16X14415   1.498   5.829   3.898 -0.3259 -0.4945  0.9818
  133SOPE  H16Y14416   1.374   5.936   3.976 -0.9227  1.9682 -1.0699
  133SOPE  C31714417   1.570   6.014   3.981 -0.1174 -0.7031  0.2643
  133SOPE  H17X14418   1.555   6.119   3.948  1.2543 -0.6651 -0.3024
  133SOPE  H17Y14419   1.671   5.984   3.944 -0.4464  0.0214 -1.3145
  133SOPE  C31814420   1.558   6.006   4.139  0.2303 -0.4796 -0.7842
  133SOPE  H18X14421   1.558   5.902   4.178  0.8321  0.7110  2.8681
  133SOPE  H18Y14422   1.470   6.062   4.179  1.6372  0.4482  1.1651
  133SOPE  H18Z14423   1.650   6.054   4.178  0.0204  0.6281 -1.5998
  134SOPE     N14424   0.073   0.455   1.787 -0.3963 -0.8683  0.3100
  134SOPE   HN114425  -0.020   0.448   1.740 -0.0391  0.8638 -0.7515
  134SOPE   HN214426   0.109   0.548   1.757  0.3714 -1.4262 -0.5457
  134SOPE   HN314427   0.141   0.385   1.750 -0.7519 -0.7423 -0.6208
  134SOPE   C1214428   0.034   0.447   1.928 -0.7545  0.0020 -0.1008
  134SOPE  H12A14429  -0.005   0.348   1.959 -0.0321 -0.4608 -0.6557
  134SOPE  H12B14430  -0.042   0.528   1.937 -0.2936  0.6687 -1.8088
  134SOPE   C1114431   0.164   0.480   2.016 -0.2720  0.7840  0.4018
  134SOPE  H11A14432   0.230   0.391   2.017  0.9735  1.6940  0.5995
  134SOPE  H11B14433   0.127   0.488   2.120 -1.5091 -0.4127  0.0928
  134SOPE     P14434   0.192   0.740   2.003  0.0954  0.1347 -0.3988
  134SOPE   O1314435   0.072   0.768   1.924 -0.5365  0.5247 -0.0287
  134SOPE   O1414436   0.299   0.836   1.985  0.1528 -0.1692 -0.4641
  134SOPE   O1214437   0.240   0.590   1.969  0.0567 -0.0516 -0.7829
  134SOPE   O1114438   0.154   0.740   2.157 -0.1986  0.9681  0.5135
  134SOPE    C114439   0.233   0.810   2.244 -0.5789 -0.2186  0.8339
  134SOPE    HA14440   0.182   0.820   2.342 -1.2506 -2.3808  0.7717
  134SOPE    HB14441   0.240   0.915   2.209 -2.1884  0.0038  1.0900
  134SOPE    C214442   0.372   0.746   2.270 -0.3281  0.0256 -0.5359
  134SOPE    HS14443   0.419   0.703   2.179  1.6163 -1.2783  1.0194
  134SOPE   O2114444   0.355   0.644   2.370  0.0659 -0.2637  0.5488
  134SOPE   C2114445   0.425   0.533   2.351  0.0887 -0.8341 -0.0097
  134SOPE   O2214446   0.470   0.498   2.244 -0.1805  0.2322  0.1402
  134SOPE   C2214447   0.435   0.465   2.492  0.5333  0.0753  0.2968
  134SOPE   H2R14448   0.493   0.375   2.463  0.2697  0.3787 -1.2735
  134SOPE   H2S14449   0.332   0.454   2.534  0.6289  1.7334  1.0670
  134SOPE    C314450   0.476   0.848   2.322 -0.0999  0.2234 -0.2669
  134SOPE    HX14451   0.440   0.889   2.419 -0.9583 -0.5741 -0.2380
  134SOPE    HY14452   0.470   0.931   2.248  0.9496 -0.7562 -1.5111
  134SOPE   O3114453   0.610   0.794   2.334 -0.3830 -0.0289  0.3990
  134SOPE   C3114454   0.705   0.844   2.248  0.1355  0.5773 -0.7496
  134SOPE   O3214455   0.684   0.921   2.160 -0.0113 -0.6481 -0.1151
  134SOPE   C3214456   0.847   0.801   2.287  0.1610  0.4944  0.2477
  134SOPE   H2X14457   0.897   0.746   2.204 -1.9728  1.7497 -1.9903
  134SOPE   H2Y14458   0.830   0.722   2.363 -1.0393 -0.9392 -1.4077
  134SOPE   C2314459   0.531   0.542   2.591 -0.6097 -0.2299  0.1897
  134SOPE   H3R14460   0.495   0.645   2.611 -0.4437 -0.0807 -0.2790
  134SOPE   H3S14461   0.634   0.549   2.552  0.7509  0.2999  3.4972
  134SOPE   C2414462   0.539   0.468   2.724 -0.4151  0.0135 -0.7959
  134SOPE   H4R14463   0.607   0.381   2.714  0.4283  0.5493  0.0637
  134SOPE   H4S14464   0.595   0.544   2.782  1.1601 -1.6341 -0.0601
  134SOPE   C2514465   0.404   0.426   2.778  0.4750 -0.4816  0.0396
  134SOPE   H5R14466   0.340   0.517   2.772  2.0501  0.7156  0.5202
  134SOPE   H5S14467   0.355   0.345   2.720 -0.3859 -0.6179  0.9417
  134SOPE   C2614468   0.408   0.416   2.930  0.2004  0.1070  0.3513
  134SOPE   H6R14469   0.501   0.365   2.963  0.3622 -0.2535 -0.6418
  134SOPE   H6S14470   0.417   0.518   2.973  0.0441  0.9699 -1.5724
  134SOPE   C2714471   0.295   0.336   2.993  0.4935 -0.0280 -0.2263
  134SOPE   H7R14472   0.204   0.370   2.939 -0.5394 -0.5874  1.0998
  134SOPE   H7S14473   0.300   0.226   2.980  0.3614 -0.1184  0.4282
  134SOPE   C2814474   0.291   0.353   3.147  0.0449  0.3116 -0.0538
  134SOPE   H8R14475   0.267   0.461   3.162 -0.6565  0.0245  0.9834
  134SOPE   H8S14476   0.212   0.296   3.201 -0.5072  1.1698  0.0660
  134SOPE   C2914477   0.416   0.307   3.221  0.1627 -0.1237  0.4349
  134SOPE   H9114478   0.435   0.201   3.200  1.7598  0.7367 -3.1317
  134SOPE  C21014479   0.499   0.391   3.293  0.4624  0.0660  0.2876
  134SOPE  H10114480   0.573   0.344   3.361 -0.4969  0.0895  1.3857
  134SOPE  C21114481   0.473   0.532   3.318 -0.9056 -0.7851 -0.0786
  134SOPE  H11R14482   0.411   0.575   3.236  0.6575  0.4533 -0.6619
  134SOPE  H11S14483   0.571   0.582   3.311 -0.3896 -1.6918  0.5179
  134SOPE  C21214484   0.428   0.568   3.465  0.3560  0.5184  0.5051
  134SOPE  H12R14485   0.499   0.512   3.528 -0.8770 -2.9470 -0.9311
  134SOPE  H12S14486   0.324   0.529   3.476  0.9777 -0.7962  1.8769
  134SOPE  C21314487   0.443   0.715   3.485 -0.0135 -0.6495 -0.0913
  134SOPE  H13R14488   0.375   0.771   3.417 -0.8700 -1.0648  0.4051
  134SOPE  H13S14489   0.549   0.740   3.465  0.1159  0.1671  1.5178
  134SOPE  C21414490   0.413   0.773   3.628 -0.4665 -0.7186 -0.1084
  134SOPE  H14R14491   0.406   0.883   3.612  0.4323 -0.7186 -0.5430
  134SOPE  H14S14492   0.503   0.746   3.687  1.9210  1.7748 -2.3290
  134SOPE  C21514493   0.288   0.721   3.701 -0.0450  0.8229  0.2871
  134SOPE  H15R14494   0.287   0.610   3.707 -4.8056  0.6858  1.3475
  134SOPE  H15S14495   0.202   0.757   3.640 -0.1761  3.2176  1.7562
  134SOPE  C21614496   0.280   0.771   3.847  0.5049  0.5288  0.9290
  134SOPE  H16R14497   0.266   0.880   3.836  1.5594  0.5799 -0.2113
  134SOPE  H16S14498   0.379   0.754   3.895  0.5724 -3.7072 -0.3106
  134SOPE  C21714499   0.180   0.701   3.934  0.5926 -0.4314  0.1534
  134SOPE  H17R14500   0.200   0.592   3.942 -0.4240 -0.7209 -0.9838
  134SOPE  H17S14501   0.081   0.693   3.884  1.7956 -1.3571 -2.2442
  134SOPE  C21814502   0.160   0.759   4.074  0.7170  0.2878 -0.8284
  134SOPE  H18R14503   0.081   0.704   4.130 -1.0912  0.5810 -2.9311
  134SOPE  H18S14504   0.122   0.862   4.061 -0.1845 -0.0465 -0.9129
  134SOPE  H18T14505   0.260   0.761   4.121  0.3357  1.2459 -0.0315
  134SOPE   C3314506   0.936   0.908   2.352 -0.4947 -0.5182 -0.0578
  134SOPE   H3X14507   0.938   1.001   2.291  0.9427 -0.7841 -0.4434
  134SOPE   H3Y14508   1.037   0.863   2.364 -1.0430 -1.5455  0.8355
  134SOPE   C3414509   0.886   0.947   2.494  0.6855 -0.6267  0.0746
  134SOPE   H4X14510   0.872   0.850   2.545  0.8338 -0.0958  1.1552
  134SOPE   H4Y14511   0.785   0.990   2.475  1.2353 -0.8332 -4.4357
  134SOPE   C3514512   0.988   1.038   2.556 -0.3290  0.1353  0.0196
  134SOPE   H5X14513   1.006   1.133   2.499  3.4114 -0.7415 -0.5714
  134SOPE   H5Y14514   1.085   0.986   2.543 -1.0696 -0.8974 -1.7541
  134SOPE   C3614515   0.955   1.075   2.703 -0.0573  0.1890  0.0136
  134SOPE   H6X14516   0.864   1.138   2.712 -0.1871 -0.0326  0.2633
  134SOPE   H6Y14517   1.035   1.136   2.750  0.2107  0.9644 -1.3758
  134SOPE   C3714518   0.923   0.953   2.791  0.0231 -0.1499  0.3342
  134SOPE   H7X14519   1.003   0.876   2.787 -0.0645 -0.2943  1.1922
  134SOPE   H7Y14520   0.837   0.902   2.744  0.4653 -0.4319 -0.1738
  134SOPE   C3814521   0.873   0.980   2.941  0.1955  0.0533  0.7527
  134SOPE   H8X14522   0.762   0.980   2.943  0.1657  0.4871 -0.2818
  134SOPE   H8Y14523   0.903   1.082   2.972 -0.0247  0.2777  0.2370
  134SOPE   C3914524   0.910   0.869   3.048 -0.6398 -0.6597  0.4277
  134SOPE   H9X14525   1.021   0.870   3.044 -0.6601  1.5122 -1.3974
  134SOPE   H9Y14526   0.876   0.770   3.014  0.4288 -0.4904 -1.2291
  134SOPE  C31014527   0.849   0.910   3.183 -0.0547  0.0904 -0.8918
  134SOPE  H10X14528   0.858   0.820   3.248 -0.6908  0.4781 -0.2590
  134SOPE  H10Y14529   0.742   0.934   3.167 -0.1645  0.3041  0.1016
  134SOPE  C31114530   0.933   1.015   3.248 -0.1345 -0.4376 -0.0525
  134SOPE  H11X14531   0.945   1.098   3.175 -2.2314  2.4434  2.6083
  134SOPE  H11Y14532   1.029   0.965   3.273 -1.1674 -1.7892  1.4123
  134SOPE  C31214533   0.869   1.102   3.354  0.2290 -0.1848  0.2219
  134SOPE  H12X14534   0.775   1.136   3.305  1.5688  0.5016 -2.0133
  134SOPE  H12Y14535   0.931   1.194   3.367  2.8374 -1.6030 -1.4285
  134SOPE  C31314536   0.838   1.040   3.493 -0.1462  0.6614 -0.9880
  134SOPE  H13X14537   0.925   1.020   3.558  0.2202  2.3364 -0.9394
  134SOPE  H13Y14538   0.792   0.941   3.472 -0.3121 -0.2792  3.0552
  134SOPE  C31414539   0.741   1.123   3.573 -0.3073 -0.2662  0.3550
  134SOPE  H14X14540   0.645   1.152   3.524 -0.2260 -0.7111 -0.0716
  134SOPE  H14Y14541   0.796   1.215   3.603  1.8582 -1.0096 -1.0880
  134SOPE  C31514542   0.714   1.043   3.706 -1.2733  0.0038  0.2500
  134SOPE  H15X14543   0.808   1.003   3.748 -0.9820 -0.8564 -1.1562
  134SOPE  H15Y14544   0.663   0.951   3.671  0.2318 -0.5488 -0.5309
  134SOPE  C31614545   0.622   1.106   3.814  0.2332 -0.1240  0.2027
  134SOPE  H16X14546   0.547   1.173   3.765  1.6894  0.0353 -1.9299
  134SOPE  H16Y14547   0.682   1.175   3.878  2.4219 -3.3470  1.8821
  134SOPE  C31714548   0.543   1.010   3.900  0.1537 -0.0657  1.3941
  134SOPE  H17X14549   0.626   0.941   3.924  0.2006 -0.7322 -0.5545
  134SOPE  H17Y14550   0.470   0.961   3.833  1.6300  1.4951 -1.5818
  134SOPE  C31814551   0.473   1.071   4.020  0.2953 -0.0220  0.1294
  134SOPE  H18X14552   0.425   0.990   4.079  0.3150 -0.0104  0.1610
  134SOPE  H18Y14553   0.399   1.145   3.984  0.8085  0.3281 -0.2295
  134SOPE  H18Z14554   0.541   1.122   4.091 -0.3134  0.0674  0.6468
  135SOPE     N14555   6.814   0.837   1.992 -0.1861  0.0614  0.1390
  135SOPE   HN114556   6.896   0.780   1.965 -0.8768 -1.1712  0.5181
  135SOPE   HN214557   6.845   0.933   2.015 -2.2201  0.9698 -0.6442
  135SOPE   HN314558   6.772   0.798   2.080 -0.7160  0.4512  0.0672
  135SOPE   C1214559   6.714   0.839   1.873 -0.4448 -0.7025  0.0491
  135SOPE  H12A14560   6.620   0.879   1.916 -0.1540  1.4333 -1.1707
  135SOPE  H12B14561   6.705   0.730   1.850 -2.5632 -1.4506  3.6751
  135SOPE   C1114562   6.780   0.927   1.766 -0.2475 -0.0880  0.1151
  135SOPE  H11A14563   6.741   0.899   1.666  2.3165  0.5061 -1.1459
  135SOPE  H11B14564   6.888   0.901   1.764 -0.4331 -0.9951  1.3395
  135SOPE     P14565   6.868   1.154   1.869 -0.0450  0.0842 -0.0190
  135SOPE   O1314566   6.813   1.294   1.878  0.6111  0.5369  0.4368
  135SOPE   O1414567   7.003   1.131   1.819  0.5026  0.1033 -0.1698
  135SOPE   O1214568   6.763   1.070   1.783 -0.0877  0.2198  0.0972
  135SOPE   O1114569   6.865   1.089   2.010  0.0083  0.3087 -0.0954
  135SOPE    C114570   6.927   1.158   2.120  0.1153 -0.6309 -0.6427
  135SOPE    HA14571   7.021   1.214   2.103  1.8445 -3.0929  0.2340
  135SOPE    HB14572   6.952   1.084   2.199  0.4460  0.8690  0.7104
  135SOPE    C214573   6.823   1.255   2.195 -0.1024 -0.5618  0.0860
  135SOPE    HS14574   6.802   1.340   2.127 -2.8800 -1.1651  0.0589
  135SOPE   O2114575   6.862   1.289   2.330  0.3618  0.3520  0.2377
  135SOPE   C2114576   6.892   1.417   2.358  0.1510 -0.1900 -0.4016
  135SOPE   O2214577   6.900   1.517   2.287  0.8006 -0.4702  0.5654
  135SOPE   C2214578   6.927   1.416   2.504 -0.0267 -0.3408  0.4838
  135SOPE   H2R14579   6.836   1.434   2.566  0.9503  2.3357  1.2620
  135SOPE   H2S14580   6.990   1.506   2.518 -2.1680  0.9501  2.5463
  135SOPE    C314581   6.690   1.173   2.199 -0.0315 -0.9017  0.4633
  135SOPE    HX14582   6.701   1.069   2.236 -4.4445 -1.8819 -0.4249
  135SOPE    HY14583   6.650   1.168   2.096  2.6176 -0.0926 -0.6943
  135SOPE   O3114584   6.594   1.232   2.290  0.6177  0.0640  0.2085
  135SOPE   C3114585   6.535   1.354   2.259 -0.6460 -0.6261 -0.0323
  135SOPE   O3214586   6.555   1.418   2.157 -0.0582 -0.1632  0.4331
  135SOPE   C3214587   6.445   1.412   2.371 -0.4713 -0.0918 -0.4822
  135SOPE   H2X14588   6.364   1.337   2.383 -0.0325 -0.4501  0.2385
  135SOPE   H2Y14589   6.397   1.502   2.327 -0.3215 -0.0095 -0.4771
  135SOPE   C2314590   6.995   1.292   2.558  0.0451  0.0005  0.0920
  135SOPE   H3R14591   7.098   1.278   2.518  0.4769  2.9742 -0.0656
  135SOPE   H3S14592   6.934   1.206   2.525  0.4463  0.6074 -2.4625
  135SOPE   C2414593   7.010   1.297   2.708 -0.2589 -0.3126  0.2651
  135SOPE   H4R14594   6.910   1.302   2.756 -1.4306 -1.8497 -1.8496
  135SOPE   H4S14595   7.050   1.201   2.748  0.6293  0.5084  1.4139
  135SOPE   C2514596   7.103   1.403   2.764  0.9407 -0.4124 -0.0748
  135SOPE   H5R14597   7.191   1.409   2.696  0.9529  1.7587  0.0484
  135SOPE   H5S14598   7.050   1.500   2.756 -0.8843 -1.3046  0.6145
  135SOPE   C2614599   7.156   1.395   2.908  0.3454  0.5537  0.0592
  135SOPE   H6R14600   7.223   1.307   2.923  1.0773  0.1354 -4.2792
  135SOPE   H6S14601   7.215   1.486   2.931 -1.7509  1.8681  0.5116
  135SOPE   C2714602   7.054   1.395   3.024  0.4021  0.5844 -0.1832
  135SOPE   H7R14603   6.949   1.416   2.993 -0.1222 -2.1725 -0.5587
  135SOPE   H7S14604   7.036   1.293   3.063 -0.7655  1.9671  3.2676
  135SOPE   C2814605   7.087   1.485   3.149 -0.6197 -0.5692  0.3772
  135SOPE   H8R14606   7.007   1.461   3.222 -0.5192  0.6104  0.9005
  135SOPE   H8S14607   7.185   1.442   3.177 -0.3702  0.0086  0.4231
  135SOPE   C2914608   7.091   1.639   3.133 -0.5950 -0.5184 -0.0546
  135SOPE   H9114609   6.992   1.686   3.128 -0.2960  0.4947  2.2947
  135SOPE  C21014610   7.202   1.717   3.119  0.5930 -0.0775  0.2575
  135SOPE  H10114611   7.178   1.823   3.103  2.4765 -0.0450 -3.4194
  135SOPE  C21114612   7.344   1.665   3.124  0.4334 -0.0285 -0.4954
  135SOPE  H11R14613   7.410   1.748   3.090 -1.6404  1.7012 -0.5155
  135SOPE  H11S14614   7.354   1.579   3.054 -1.9558  0.5226 -1.6566
  135SOPE  C21214615   7.387   1.635   3.271  0.4186 -0.1173 -0.2216
  135SOPE  H12R14616   7.494   1.609   3.259  1.8563  4.0526  1.6557
  135SOPE  H12S14617   7.333   1.549   3.316 -0.1387  0.1989 -0.2809
  135SOPE  C21314618   7.354   1.758   3.355  0.0210 -0.3931 -0.3973
  135SOPE  H13R14619   7.250   1.756   3.391  0.6739 -0.4205  1.5838
  135SOPE  H13S14620   7.370   1.846   3.288 -1.2156 -1.0177 -1.5614
  135SOPE  C21414621   7.454   1.774   3.471  0.6576 -0.0714  0.1009
  135SOPE  H14R14622   7.477   1.877   3.504  2.1147 -0.8085  1.5666
  135SOPE  H14S14623   7.546   1.718   3.441  1.2302  1.1118 -0.4164
  135SOPE  C21514624   7.386   1.710   3.595 -0.4923 -0.1495  0.5895
  135SOPE  H15R14625   7.340   1.611   3.574 -0.5980 -0.1798  0.9612
  135SOPE  H15S14626   7.306   1.776   3.634  0.0737  0.5478  0.5851
  135SOPE  C21614627   7.494   1.699   3.709 -0.0218  0.1293  0.3990
  135SOPE  H16R14628   7.529   1.804   3.722  1.6215 -0.6224  2.6011
  135SOPE  H16S14629   7.576   1.626   3.692  0.4711  0.4925  1.1960
  135SOPE  C21714630   7.434   1.649   3.841  0.0921  0.2618 -0.3230
  135SOPE  H17R14631   7.354   1.720   3.873  0.0652 -0.3457  1.0434
  135SOPE  H17S14632   7.512   1.641   3.920 -1.6964 -2.9411  1.3439
  135SOPE  C21814633   7.380   1.508   3.822  0.7406  0.0624 -0.0853
  135SOPE  H18R14634   7.463   1.438   3.798 -0.9441 -2.9356  2.2271
  135SOPE  H18S14635   7.301   1.501   3.743 -0.7068  0.5218  1.2626
  135SOPE  H18T14636   7.331   1.474   3.915  0.1677 -0.8240 -0.6927
  135SOPE   C3314637   6.527   1.447   2.499 -0.3156  0.3699  0.2636
  135SOPE   H3X14638   6.490   1.542   2.543  0.9813  1.9554 -1.9135
  135SOPE   H3Y14639   6.636   1.465   2.493  0.0676 -1.1028  1.9076
  135SOPE   C3414640   6.509   1.339   2.607  0.7302  0.8489  0.8191
  135SOPE   H4X14641   6.556   1.246   2.568 -0.1712  0.7374 -0.0252
  135SOPE   H4Y14642   6.401   1.324   2.628  0.9169 -3.4048 -0.3270
  135SOPE   C3514643   6.576   1.363   2.741  0.4208 -0.2518  0.9139
  135SOPE   H5X14644   6.685   1.382   2.726 -0.0930  3.5409  1.0196
  135SOPE   H5Y14645   6.551   1.279   2.809  1.3547  0.3581  2.0359
  135SOPE   C3614646   6.541   1.492   2.815  0.4336 -0.0651 -0.0157
  135SOPE   H6X14647   6.433   1.477   2.835  0.6424 -0.3889  0.9292
  135SOPE   H6Y14648   6.547   1.585   2.756  1.5516 -1.4911 -2.2962
  135SOPE   C3714649   6.618   1.526   2.943 -1.0052 -0.0656  0.4606
  135SOPE   H7X14650   6.581   1.615   2.997  1.1117 -0.9206  3.5625
  135SOPE   H7Y14651   6.724   1.538   2.915 -0.9740 -0.2672  0.4930
  135SOPE   C3814652   6.624   1.404   3.045  0.1025 -0.3579 -0.2468
  135SOPE   H8X14653   6.689   1.324   3.005  0.3218 -0.5730  0.5293
  135SOPE   H8Y14654   6.517   1.379   3.060 -0.4304  2.8094  2.8018
  135SOPE   C3914655   6.676   1.448   3.182  0.1670 -0.2482 -0.3863
  135SOPE   H9X14656   6.617   1.533   3.223  1.5509  0.0601  1.0714
  135SOPE   H9Y14657   6.778   1.490   3.172 -0.0300  0.0457 -1.2525
  135SOPE  C31014658   6.676   1.346   3.298 -0.1400  0.1118 -0.1463
  135SOPE  H10X14659   6.756   1.273   3.276 -0.5803 -0.5468  0.3771
  135SOPE  H10Y14660   6.579   1.291   3.303 -1.5995  2.6530  2.1246
  135SOPE  C31114661   6.687   1.391   3.449 -0.2395 -0.2164  0.1650
  135SOPE  H11X14662   6.702   1.296   3.506  3.1267  0.0507 -0.0707
  135SOPE  H11Y14663   6.595   1.446   3.480 -1.7045 -2.7789  0.7027
  135SOPE  C31214664   6.809   1.481   3.466 -0.7307 -0.1677 -0.3713
  135SOPE  H12X14665   6.786   1.578   3.418  2.0035 -0.0567 -1.6868
  135SOPE  H12Y14666   6.891   1.425   3.417 -2.5684 -3.3505 -0.0921
  135SOPE  C31314667   6.848   1.510   3.617 -0.0599 -0.0258 -0.2904
  135SOPE  H13X14668   6.839   1.422   3.684 -0.9213  1.0188  1.0136
  135SOPE  H13Y14669   6.783   1.588   3.661  0.7038 -0.2224  1.2548
  135SOPE  C31414670   6.993   1.551   3.631 -0.5793  0.4758  0.0072
  135SOPE  H14X14671   7.034   1.581   3.532  1.4790  0.3656  0.7666
  135SOPE  H14Y14672   7.056   1.462   3.654 -1.4559  0.4474  2.6173
  135SOPE  C31514673   7.008   1.661   3.733 -0.4751  0.2803 -0.1661
  135SOPE  H15X14674   6.948   1.750   3.702 -0.3742  0.1111 -0.8639
  135SOPE  H15Y14675   7.112   1.697   3.726 -0.7291  0.8906 -1.0435
  135SOPE  C31614676   6.973   1.628   3.878 -0.1496  0.2495  0.4548
  135SOPE  H16X14677   7.027   1.538   3.915  1.6173  0.6015 -1.1007
  135SOPE  H16Y14678   6.865   1.606   3.887 -0.0663 -0.8365 -0.8042
  135SOPE  C31714679   7.008   1.725   3.987 -0.5215 -0.8079 -0.3350
  135SOPE  H17X14680   7.117   1.735   4.006 -0.7846  1.5193  0.2499
  135SOPE  H17Y14681   6.953   1.701   4.080 -0.9756  1.3498  0.0110
  135SOPE  C31814682   6.962   1.870   3.949 -0.2868 -0.2017 -0.3042
  135SOPE  H18X14683   6.856   1.869   3.916 -0.9566  0.6179  1.6636
  135SOPE  H18Y14684   7.026   1.910   3.868  0.2725  1.0543  0.7075
  135SOPE  H18Z14685   6.970   1.928   4.044  0.1245 -2.2703  0.9944
  136SOPE     N14686   5.801   1.604   1.923  0.4408  0.3434  0.4317
  136SOPE   HN114687   5.713   1.659   1.934  0.4851  0.3521  0.7557
  136SOPE   HN214688   5.882   1.638   1.979  1.4249 -0.8279 -0.2347
  136SOPE   HN314689   5.823   1.610   1.821 -0.4768  0.3114  0.2226
  136SOPE   C1214690   5.764   1.466   1.953 -0.4617 -0.1819  0.1375
  136SOPE  H12A14691   5.856   1.404   1.961  1.0309  1.4468 -2.7622
  136SOPE  H12B14692   5.704   1.424   1.869 -1.4235  0.7397  0.3382
  136SOPE   C1114693   5.686   1.462   2.085  0.0027  0.0021  0.2944
  136SOPE  H11A14694   5.758   1.497   2.162  0.8841 -3.1538  1.0488
  136SOPE  H11B14695   5.661   1.357   2.113 -0.6837  0.0560 -0.0895
  136SOPE     P14696   5.426   1.505   2.043 -0.2592  0.2352  0.4714
  136SOPE   O1314697   5.441   1.404   1.935 -0.0254  0.4966 -0.4978
  136SOPE   O1414698   5.353   1.626   2.010  0.2610 -0.7871  0.3961
  136SOPE   O1214699   5.571   1.549   2.082  0.2670  0.1374 -0.2620
  136SOPE   O1114700   5.363   1.433   2.166  0.2576 -0.4480 -0.2938
  136SOPE    C114701   5.367   1.494   2.293  0.0709 -0.1915 -0.7144
  136SOPE    HA14702   5.272   1.549   2.313  0.7969  1.5694 -1.8585
  136SOPE    HB14703   5.455   1.560   2.307 -0.2324  0.1519 -0.4243
  136SOPE    C214704   5.379   1.394   2.411  0.0219 -0.0032 -0.3459
  136SOPE    HS14705   5.277   1.357   2.435 -0.0172  0.7289  0.6871
  136SOPE   O2114706   5.447   1.439   2.527 -0.4273  0.6692  0.0047
  136SOPE   C2114707   5.373   1.529   2.596 -0.4575 -0.1927 -0.6861
  136SOPE   O2214708   5.267   1.577   2.558 -0.3124 -0.1249 -0.2916
  136SOPE   C2214709   5.435   1.563   2.732 -0.0943 -0.0069  0.3751
  136SOPE   H2R14710   5.484   1.662   2.720 -1.3807  0.5482 -0.5204
  136SOPE   H2S14711   5.526   1.501   2.748  0.6329  1.3836  1.8624
  136SOPE    C314712   5.453   1.268   2.359  0.6561 -0.5988 -0.3298
  136SOPE    HX14713   5.538   1.310   2.302  0.5662 -3.0356 -2.4391
  136SOPE    HY14714   5.387   1.216   2.286 -1.7854  1.2797  0.3685
  136SOPE   O3114715   5.514   1.180   2.459 -0.2400 -0.9988 -0.0988
  136SOPE   C3114716   5.433   1.068   2.483  0.2806 -0.5457  0.9908
  136SOPE   O3214717   5.323   1.058   2.434  0.6130  0.0336 -0.4116
  136SOPE   C3214718   5.502   0.969   2.573  0.6481  0.4904 -0.4830
  136SOPE   H2X14719   5.609   0.998   2.576  0.7637  0.0063  1.0775
  136SOPE   H2Y14720   5.483   0.865   2.540 -0.3698  0.4109  0.3066
  136SOPE   C2314721   5.339   1.561   2.848  0.7084  0.2858 -0.2058
  136SOPE   H3R14722   5.294   1.459   2.847 -1.7698  1.3008 -1.7713
  136SOPE   H3S14723   5.256   1.629   2.819  0.9967  0.5707 -0.3636
  136SOPE   C2414724   5.397   1.597   2.981  0.1162  0.0711 -0.0204
  136SOPE   H4R14725   5.489   1.538   3.003  1.8025  2.6710  0.2900
  136SOPE   H4S14726   5.430   1.703   2.981  1.4295 -0.3052 -1.5602
  136SOPE   C2514727   5.298   1.560   3.097 -0.2168  0.4476  0.0294
  136SOPE   H5R14728   5.199   1.595   3.060 -0.1913 -0.7141 -1.1993
  136SOPE   H5S14729   5.290   1.449   3.107  1.7259  0.0235 -2.4085
  136SOPE   C2614730   5.352   1.609   3.229 -0.2468  0.3371 -0.0207
  136SOPE   H6R14731   5.457   1.574   3.239  0.1520  0.9395 -1.7388
  136SOPE   H6S14732   5.349   1.720   3.230 -0.5938  0.3232  0.8250
  136SOPE   C2714733   5.262   1.557   3.343 -0.0103 -0.0930 -1.0943
  136SOPE   H7R14734   5.156   1.567   3.311 -0.7828  1.8115  1.6373
  136SOPE   H7S14735   5.282   1.450   3.364  1.2867  0.5625  1.3994
  136SOPE   C2814736   5.275   1.640   3.474 -0.4975 -0.0448  1.0637
  136SOPE   H8R14737   5.382   1.626   3.500  0.3257  1.6108 -1.0791
  136SOPE   H8S14738   5.255   1.747   3.452 -1.4467 -0.1592  1.3135
  136SOPE   C2914739   5.185   1.597   3.582  0.1017 -0.5947  0.3948
  136SOPE   H9114740   5.083   1.636   3.565 -0.7198 -2.8903 -0.3441
  136SOPE  C21014741   5.218   1.526   3.691  0.2512 -0.2272  0.5697
  136SOPE  H10114742   5.127   1.507   3.750 -0.7564  1.2738 -0.4171
  136SOPE  C21114743   5.357   1.470   3.720  0.0797 -0.2864 -0.0377
  136SOPE  H11R14744   5.424   1.553   3.689 -0.1651 -0.5032 -1.1644
  136SOPE  H11S14745   5.371   1.388   3.647 -0.2140 -0.6081  0.2687
  136SOPE  C21214746   5.382   1.430   3.867  0.3619 -0.2495 -0.2229
  136SOPE  H12R14747   5.481   1.380   3.863 -0.4784 -2.0023  0.3110
  136SOPE  H12S14748   5.301   1.363   3.900  0.4087  0.1303  0.7012
  136SOPE  C21314749   5.395   1.550   3.960  0.2270 -0.3667 -0.2086
  136SOPE  H13R14750   5.304   1.613   3.948  0.8528  0.7483  0.7014
  136SOPE  H13S14751   5.479   1.617   3.931 -0.2007  1.0483  1.6506
  136SOPE  C21414752   5.412   1.507   4.105  0.9553 -0.1665 -0.0579
  136SOPE  H14R14753   5.512   1.468   4.135  0.5814 -0.8455  0.3011
  136SOPE  H14S14754   5.348   1.419   4.126  0.0346  0.7449  1.0644
  136SOPE  C21514755   5.386   1.616   4.208  0.5659 -0.0947 -0.6679
  136SOPE  H15R14756   5.427   1.711   4.168 -0.1706  0.4281 -0.2049
  136SOPE  H15S14757   5.430   1.591   4.307  2.9884  1.3958 -1.2905
  136SOPE  C21614758   5.231   1.635   4.239 -0.7085 -0.7232 -0.2516
  136SOPE  H16R14759   5.177   1.656   4.143  1.5397  1.2489 -1.2007
  136SOPE  H16S14760   5.220   1.725   4.304 -0.9345  0.4163 -1.7998
  136SOPE  C21714761   5.175   1.513   4.302  0.8416  0.1816 -0.0593
  136SOPE  H17R14762   5.180   1.423   4.238  3.4160  0.0060  0.3106
  136SOPE  H17S14763   5.065   1.530   4.311  0.8238 -0.6805  1.8735
  136SOPE  C21814764   5.228   1.485   4.447 -0.2748 -0.2610  0.5898
  136SOPE  H18R14765   5.337   1.476   4.427 -0.3513  0.2987 -0.1584
  136SOPE  H18S14766   5.195   1.387   4.488 -0.1177 -0.7804 -0.4666
  136SOPE  H18T14767   5.203   1.566   4.518  1.4957 -1.5425  2.8091
  136SOPE   C3314768   5.449   0.995   2.718  0.6145  0.5958  0.3334
  136SOPE   H3X14769   5.486   0.916   2.787  0.1846  0.4676  0.4208
  136SOPE   H3Y14770   5.339   0.984   2.724  0.7465 -2.0900 -0.5423
  136SOPE   C3414771   5.495   1.124   2.782 -0.0303  0.0208  0.2763
  136SOPE   H4X14772   5.486   1.206   2.708 -1.3400  0.0416  0.4288
  136SOPE   H4Y14773   5.604   1.114   2.802 -0.3309 -0.2493  2.0342
  136SOPE   C3514774   5.441   1.165   2.923 -1.3326 -0.3869 -0.0138
  136SOPE   H5X14775   5.330   1.157   2.932 -1.1016 -2.1535  2.0693
  136SOPE   H5Y14776   5.467   1.273   2.931 -0.7023 -0.5436  0.1158
  136SOPE   C3614777   5.499   1.095   3.046 -0.1517 -0.6134  0.3656
  136SOPE   H6X14778   5.609   1.104   3.061  0.1626 -1.5821 -1.1386
  136SOPE   H6Y14779   5.467   0.988   3.043  0.1412 -0.6756 -1.0474
  136SOPE   C3714780   5.424   1.145   3.168 -0.1899 -0.5744 -0.4940
  136SOPE   H7X14781   5.314   1.142   3.157 -0.1441 -0.5021 -1.0367
  136SOPE   H7Y14782   5.432   1.256   3.162 -0.4852 -0.6164 -2.5691
  136SOPE   C3814783   5.476   1.074   3.294 -0.8285 -1.0220 -0.1558
  136SOPE   H8X14784   5.579   1.111   3.313 -1.7092  1.2901  0.6345
  136SOPE   H8Y14785   5.481   0.965   3.277  1.4724 -1.2306  1.4504
  136SOPE   C3914786   5.390   1.092   3.416  0.5560 -0.0343 -0.1211
  136SOPE   H9X14787   5.309   1.016   3.411 -0.2433  0.8403 -1.2422
  136SOPE   H9Y14788   5.336   1.188   3.428  0.0407 -0.3405  0.0764
  136SOPE  C31014789   5.474   1.067   3.537  0.1488  0.1983  0.1846
  136SOPE  H10X14790   5.551   1.147   3.542  0.8996 -0.5579  1.0098
  136SOPE  H10Y14791   5.528   0.971   3.524  0.5136  0.3411  0.6109
  136SOPE  C31114792   5.397   1.064   3.672 -0.5490 -0.4410 -0.2450
  136SOPE  H11X14793   5.327   0.980   3.655  1.0557 -1.6159 -1.2942
  136SOPE  H11Y14794   5.335   1.156   3.676 -1.2290 -0.6088 -3.5716
  136SOPE  C31214795   5.496   1.053   3.787  0.2873  0.1001 -1.0350
  136SOPE  H12X14796   5.538   1.155   3.780 -0.3056  0.5564  1.3182
  136SOPE  H12Y14797   5.568   0.972   3.762 -0.8768 -1.0033 -0.9113
  136SOPE  C31314798   5.416   1.017   3.913  0.1181  0.4421  0.7992
  136SOPE  H13X14799   5.398   0.907   3.918  0.4293  0.4124  1.2804
  136SOPE  H13Y14800   5.316   1.062   3.893  0.9614  1.2971 -1.9723
  136SOPE  C31414801   5.478   1.083   4.037 -0.8010 -0.3371 -0.3455
  136SOPE  H14X14802   5.538   1.174   4.017  0.6346 -1.2455 -0.3129
  136SOPE  H14Y14803   5.551   1.010   4.076  0.9512  1.0231 -0.9739
  136SOPE  C31514804   5.377   1.092   4.154  0.4335  0.2857  0.6544
  136SOPE  H15X14805   5.320   0.997   4.164 -1.1884  1.0630 -0.5973
  136SOPE  H15Y14806   5.287   1.151   4.126  0.6275  0.3264  0.1044
  136SOPE  C31614807   5.445   1.139   4.284 -0.2953  0.5142 -0.0682
  136SOPE  H16X14808   5.482   1.241   4.261 -0.4228  0.4005 -0.8074
  136SOPE  H16Y14809   5.537   1.078   4.296 -0.9156 -0.4559 -0.1466
  136SOPE  C31714810   5.347   1.123   4.401  0.1490 -0.0160  0.2155
  136SOPE  H17X14811   5.320   1.017   4.387 -0.9980  0.4084 -0.9640
  136SOPE  H17Y14812   5.261   1.191   4.387  0.2179  0.0098 -0.0981
  136SOPE  C31814813   5.400   1.149   4.545 -0.5685 -0.5161  0.3183
  136SOPE  H18X14814   5.478   1.228   4.548 -0.6848 -0.4127  0.7594
  136SOPE  H18Y14815   5.435   1.061   4.602 -0.5326 -1.0866 -0.5643
  136SOPE  H18Z14816   5.317   1.186   4.608 -0.3167 -0.8331  0.8430
  137POPC     N14817   3.423   2.422   6.234 -0.0337  0.0416  0.7476
  137POPC   C1214818   3.431   2.392   6.380  0.2863  0.0819 -0.2263
  137POPC  H12A14819   3.371   2.304   6.395 -0.5932  0.6814 -0.1316
  137POPC  H12B14820   3.380   2.460   6.447  0.9805 -1.1056  1.5782
  137POPC   C1314821   3.303   2.501   6.194  0.0670  1.1356 -0.2900
  137POPC  H13A14822   3.306   2.606   6.218 -1.5889  0.9782  0.7327
  137POPC  H13B14823   3.291   2.492   6.087  0.4692  0.3210 -0.2736
  137POPC  H13C14824   3.214   2.456   6.235  0.6505  1.2093  1.0786
  137POPC   C1414825   3.541   2.499   6.184  0.1005 -0.3770 -0.5516
  137POPC  H14A14826   3.523   2.528   6.081  1.1949  0.8818 -0.4230
  137POPC  H14B14827   3.557   2.591   6.237 -1.4516 -0.1171 -0.4928
  137POPC  H14C14828   3.634   2.445   6.196  1.2307  1.8273  1.1610
  137POPC   C1514829   3.412   2.298   6.157  0.3380  0.2977 -0.1532
  137POPC  H15A14830   3.510   2.253   6.164  0.8215  1.4265  0.8531
  137POPC  H15B14831   3.383   2.316   6.055 -2.5114  0.4620  0.6055
  137POPC  H15C14832   3.334   2.232   6.192  0.3592 -0.2806 -1.1623
  137POPC   C1114833   3.565   2.361   6.437 -0.0776  0.0999  0.0455
  137POPC  H11A14834   3.548   2.326   6.541 -2.7045  2.2750  0.4456
  137POPC  H11B14835   3.633   2.447   6.453 -1.1407  0.5849  2.2509
  137POPC     P14836   3.765   2.221   6.332 -0.3581  0.0220 -0.5926
  137POPC   O1314837   3.810   2.080   6.351 -0.5479  0.0635  0.2830
  137POPC   O1414838   3.839   2.329   6.407  0.7758  0.2054  0.0131
  137POPC   O1214839   3.613   2.247   6.363 -0.0644 -0.2877  1.4592
  137POPC   O1114840   3.760   2.263   6.181  0.0316 -0.2876 -0.0062
  137POPC    C114841   3.739   2.166   6.078 -0.1701  0.6033  0.2915
  137POPC    HA14842   3.707   2.219   5.986  1.5810 -1.5546 -1.6996
  137POPC    HB14843   3.653   2.102   6.107 -1.6157  2.8429  1.2052
  137POPC    C214844   3.873   2.097   6.039 -0.4870  0.3677  0.2210
  137POPC    HS14845   3.903   2.036   6.128  1.8420  0.2176 -0.5831
  137POPC   O2114846   3.974   2.191   6.001  0.4810 -0.2743  0.0251
  137POPC   C2114847   4.094   2.171   6.039 -0.1801  0.4609 -0.5555
  137POPC   O2214848   4.127   2.076   6.112 -0.2621 -0.2739 -0.3198
  137POPC   C2214849   4.183   2.292   6.003  1.0178  0.7728  0.6729
  137POPC   H2R14850   4.231   2.326   6.097  0.6897  0.9813  0.7650
  137POPC   H2S14851   4.120   2.378   5.972  0.4003  0.3859  0.8501
  137POPC    C314852   3.842   1.989   5.929 -0.2849 -0.3804 -0.6977
  137POPC    HX14853   3.753   1.941   5.975 -0.1863 -0.8633 -1.0031
  137POPC    HY14854   3.930   1.921   5.925  2.0252  2.2674  1.2136
  137POPC   O3114855   3.812   2.041   5.802 -0.1872  0.3431 -0.8195
  137POPC   C3114856   3.807   1.942   5.710  0.2402 -0.1614 -0.0369
  137POPC   O3214857   3.808   1.822   5.739  0.2826  0.1594  0.6205
  137POPC   C3214858   3.805   2.012   5.573  0.5256 -0.0846 -0.3274
  137POPC   H2X14859   3.905   2.058   5.561  1.1435  0.3859  4.4081
  137POPC   H2Y14860   3.723   2.086   5.566  0.6532 -0.1174 -2.6765
  137POPC   C2314861   4.273   2.248   5.885  0.7081  0.0090  0.4295
  137POPC   H3R14862   4.331   2.158   5.916 -0.7798 -1.1424 -0.0474
  137POPC   H3S14863   4.345   2.330   5.861 -1.4721  1.6065 -1.0242
  137POPC   C2414864   4.181   2.220   5.768  0.2774 -0.2861 -1.0449
  137POPC   H4R14865   4.128   2.317   5.763 -0.6238 -0.4093  2.9395
  137POPC   H4S14866   4.106   2.139   5.781 -2.6537  2.3758 -0.3609
  137POPC   C2514867   4.265   2.199   5.639  0.2968 -0.1200 -0.3762
  137POPC   H5R14868   4.334   2.285   5.624  1.7983 -1.3286 -0.5954
  137POPC   H5S14869   4.184   2.194   5.563  1.1467  0.0719 -1.3203
  137POPC   C2614870   4.324   2.060   5.635  0.1391  0.2814 -0.5254
  137POPC   H6R14871   4.239   1.990   5.651  0.2359 -0.1125 -1.6381
  137POPC   H6S14872   4.386   2.046   5.726 -2.7490 -2.2655  1.2715
  137POPC   C2714873   4.416   2.026   5.518 -0.5604  0.1968 -0.0343
  137POPC   H7R14874   4.450   1.921   5.522 -2.5511 -0.4981 -0.2245
  137POPC   H7S14875   4.499   2.099   5.530 -1.5370  1.4057 -0.3764
  137POPC   C2814876   4.369   2.072   5.380  0.4895 -0.2839  0.1256
  137POPC   H8R14877   4.458   2.065   5.313  1.7051 -0.5546  1.7116
  137POPC   H8S14878   4.332   2.177   5.383 -2.3056 -1.2088  1.2193
  137POPC   C2914879   4.258   1.985   5.330  0.4231 -0.1405  0.1274
  137POPC   H9114880   4.226   1.916   5.409  2.3074  1.1156  2.0883
  137POPC  C21014881   4.189   1.993   5.213  0.5387 -0.3481 -0.5822
  137POPC  H10114882   4.129   1.906   5.184  1.1826 -0.4187 -1.7453
  137POPC  C21114883   4.207   2.100   5.100  0.4300  0.1271 -0.5707
  137POPC  H11R14884   4.257   2.189   5.144 -1.8310  1.0054  0.3738
  137POPC  H11S14885   4.106   2.140   5.076  0.4128  0.3041 -0.2065
  137POPC  C21214886   4.273   2.033   4.979 -0.5804 -0.2938 -0.0118
  137POPC  H12R14887   4.210   1.946   4.948 -1.2173  1.1100 -3.0243
  137POPC  H12S14888   4.373   1.996   5.008 -1.0154 -1.1671  0.4393
  137POPC  C21314889   4.269   2.125   4.862 -0.3781 -0.1269 -0.0350
  137POPC  H13R14890   4.340   2.209   4.883  0.9918 -0.7225 -2.0382
  137POPC  H13S14891   4.171   2.170   4.837  0.0376  1.3901  0.9435
  137POPC  C21414892   4.325   2.065   4.734 -0.0292 -0.0338 -0.1029
  137POPC  H14R14893   4.295   2.131   4.650 -0.8247  0.8403  0.8424
  137POPC  H14S14894   4.273   1.969   4.715 -0.6029  0.2713 -0.0735
  137POPC  C21514895   4.470   2.027   4.744 -0.2080  0.5142 -0.0428
  137POPC  H15R14896   4.483   1.956   4.829  0.3116  1.4981  0.7138
  137POPC  H15S14897   4.526   2.118   4.772 -1.3793  0.6618  2.0601
  137POPC  C21614898   4.531   1.958   4.626  0.2035  0.0891 -0.2020
  137POPC  H16R14899   4.501   2.017   4.537  0.4863 -0.5297 -0.7155
  137POPC  H16S14900   4.481   1.860   4.611  0.1870  0.3900 -2.4067
  137POPC  C21714901   4.685   1.942   4.632  0.2603  0.1209 -0.1250
  137POPC  H17R14902   4.718   1.896   4.727  2.0302 -0.0160 -0.7623
  137POPC  H17S14903   4.721   2.047   4.632  0.0211  0.2439  2.1396
  137POPC  C21814904   4.732   1.870   4.506 -0.1755 -0.3970 -0.7245
  137POPC  H18R14905   4.699   1.764   4.508 -1.6095  0.0207 -1.0624
  137POPC  H18S14906   4.843   1.865   4.502  0.2357  3.1939  1.5734
  137POPC  H18T14907   4.683   1.907   4.413  0.7742 -0.6112 -1.3258
  137POPC   C3314908   3.779   1.915   5.457 -0.2702  0.6350 -0.4886
  137POPC   H3X14909   3.680   1.866   5.463 -0.5051  1.1378 -0.2060
  137POPC   H3Y14910   3.864   1.844   5.446 -0.5219  0.2111  0.2169
  137POPC   C3414911   3.766   1.997   5.327 -0.0369  0.9363  0.4648
  137POPC   H4X14912   3.838   2.080   5.314  2.2499 -0.7307  1.7183
  137POPC   H4Y14913   3.664   2.037   5.341 -1.1662 -1.0439 -1.3767
  137POPC   C3514914   3.753   1.904   5.205  0.1383 -0.2243 -0.2997
  137POPC   H5X14915   3.676   1.825   5.218  0.9259 -0.7355  1.6201
  137POPC   H5Y14916   3.854   1.864   5.183  0.7593  0.8391  0.5171
  137POPC   C3614917   3.718   1.989   5.082 -0.4277 -0.0464  0.2077
  137POPC   H6X14918   3.799   2.064   5.067 -0.3375 -0.5289 -2.1677
  137POPC   H6Y14919   3.620   2.036   5.105 -0.9565 -1.8574  1.9208
  137POPC   C3714920   3.724   1.906   4.955  0.0433  0.0142 -0.8214
  137POPC   H7X14921   3.664   1.813   4.965  1.7920 -0.9508  1.8883
  137POPC   H7Y14922   3.834   1.892   4.947  0.3512  2.2031 -0.9457
  137POPC   C3814923   3.679   1.990   4.835  0.3108 -0.0399  0.0788
  137POPC   H8X14924   3.748   2.077   4.830  0.6457 -0.3553 -1.0940
  137POPC   H8Y14925   3.574   2.025   4.834  0.8217  1.5988 -0.0176
  137POPC   C3914926   3.698   1.906   4.708  0.6601  0.4196  0.4567
  137POPC   H9X14927   3.633   1.817   4.726  2.6149 -1.0452  0.6179
  137POPC   H9Y14928   3.795   1.853   4.698 -0.6404 -1.7698 -1.4778
  137POPC  C31014929   3.665   1.974   4.574 -0.1643  0.5932 -0.5706
  137POPC  H10X14930   3.725   2.067   4.575  0.6733  0.1024  2.1327
  137POPC  H10Y14931   3.560   2.009   4.577 -0.4398 -0.1549  2.8178
  137POPC  C31114932   3.697   1.887   4.446 -0.6591  0.3127  0.3737
  137POPC  H11X14933   3.802   1.861   4.471 -0.2246  0.8650 -0.7811
  137POPC  H11Y14934   3.700   1.948   4.353  1.2547  2.4411  1.6880
  137POPC  C31214935   3.607   1.760   4.444  0.0719  0.4934  0.6125
  137POPC  H12X14936   3.502   1.792   4.461 -0.3122 -0.4785  0.1349
  137POPC  H12Y14937   3.629   1.684   4.522  0.3850 -2.2514 -1.9757
  137POPC  C31314938   3.612   1.677   4.312 -0.6741  0.4047 -0.1067
  137POPC  H13X14939   3.711   1.628   4.306 -0.5382  0.6231  0.2883
  137POPC  H13Y14940   3.599   1.731   4.216  0.3674  1.2313  0.1916
  137POPC  C31414941   3.511   1.559   4.318  0.6214 -0.0791 -0.1436
  137POPC  H14X14942   3.538   1.482   4.394 -1.4538 -1.8057 -1.0299
  137POPC  H14Y14943   3.494   1.515   4.218 -1.3462  0.8323 -0.2682
  137POPC  C31514944   3.355   1.598   4.348  0.6504  0.8526 -0.3553
  137POPC  H15X14945   3.320   1.670   4.270 -1.7808  0.7295  0.5411
  137POPC  H15Y14946   3.356   1.646   4.448 -1.7932  1.0222 -0.3615
  137POPC  C31614947   3.256   1.481   4.341 -0.5346  0.3855  0.8317
  137POPC  H16X14948   3.271   1.411   4.256 -4.1374 -2.1221  1.9825
  137POPC  H16Y14949   3.149   1.509   4.354 -1.3590 -1.2434 -1.8264
  137POPC  H16Z14950   3.287   1.418   4.428  2.1815 -1.3287 -1.2062
  138POPC     N14951   6.468   1.312   6.272 -0.6614 -0.8049 -0.1446
  138POPC   C1214952   6.387   1.237   6.168 -0.7622 -0.0787  0.6998
  138POPC  H12A14953   6.323   1.164   6.215 -0.4968 -1.2546 -0.6872
  138POPC  H12B14954   6.456   1.181   6.106 -2.4419  0.3287 -1.6762
  138POPC   C1314955   6.535   1.432   6.218 -0.2499 -0.2596 -0.1922
  138POPC  H13A14956   6.455   1.489   6.174 -1.2054 -0.9103  0.6600
  138POPC  H13B14957   6.585   1.488   6.296  0.5341 -0.7995 -0.2946
  138POPC  H13C14958   6.605   1.407   6.140 -1.9239 -3.8942 -0.7444
  138POPC   C1414959   6.378   1.349   6.380 -0.4159  1.2402  0.1013
  138POPC  H14A14960   6.328   1.262   6.421  1.1505  0.3656  0.2577
  138POPC  H14B14961   6.419   1.410   6.459 -0.6960  3.2126 -1.2178
  138POPC  H14C14962   6.298   1.412   6.346 -1.1591  1.1055  1.5630
  138POPC   C1514963   6.575   1.214   6.330  0.3729 -0.2563 -0.1816
  138POPC  H15A14964   6.641   1.263   6.400  0.4448 -1.3030  0.5099
  138POPC  H15B14965   6.634   1.168   6.252  0.4496  0.0344 -0.2968
  138POPC  H15C14966   6.529   1.129   6.378 -1.3455  0.3605 -0.6719
  138POPC   C1114967   6.300   1.320   6.069  0.6289 -0.3712  0.1404
  138POPC  H11A14968   6.254   1.257   5.990 -1.9754  2.5388 -0.8701
  138POPC  H11B14969   6.364   1.393   6.015  0.2688  0.5808  0.9650
  138POPC     P14970   6.065   1.327   6.195 -0.3605  0.0651 -0.0427
  138POPC   O1314971   6.032   1.384   6.325  0.0597  0.3845  0.3445
  138POPC   O1414972   6.080   1.177   6.179 -0.1147 -0.6674 -0.1626
  138POPC   O1214973   6.202   1.395   6.144 -0.0984  0.0023 -0.0437
  138POPC   O1114974   5.955   1.384   6.091  0.1909  0.2814  0.0414
  138POPC    C114975   5.975   1.453   5.965  0.0305  0.9026 -0.6937
  138POPC    HA14976   6.084   1.472   5.954  0.2174 -0.1511 -0.6862
  138POPC    HB14977   5.923   1.551   5.971 -1.4637  0.1072 -0.0959
  138POPC    C214978   5.909   1.389   5.838  0.4466  0.5253  0.0121
  138POPC    HS14979   5.964   1.436   5.755  0.5939 -1.4252 -1.0685
  138POPC   O2114980   5.767   1.411   5.823  0.4492  0.1320  0.0523
  138POPC   C2114981   5.729   1.526   5.778  0.2765  0.0214  0.3548
  138POPC   O2214982   5.803   1.623   5.755  0.3954  0.4665  0.1703
  138POPC   C2214983   5.581   1.539   5.780  0.8969 -0.5135 -0.7290
  138POPC   H2R14984   5.549   1.640   5.748  1.0588 -0.0539  0.5270
  138POPC   H2S14985   5.556   1.528   5.887  1.7966  0.5888 -0.3789
  138POPC    C314986   5.948   1.240   5.844  0.5524 -0.9319  0.2519
  138POPC    HX14987   5.894   1.188   5.926  0.7378  1.0318  1.6910
  138POPC    HY14988   6.056   1.241   5.873  0.6888  0.0942 -0.2214
  138POPC   O3114989   5.930   1.191   5.709 -0.9828 -0.4309  0.0937
  138POPC   C3114990   5.834   1.112   5.684 -0.4537  0.8005 -1.0757
  138POPC   O3214991   5.758   1.067   5.770  0.0047 -0.4452  0.3973
  138POPC   C3214992   5.837   1.076   5.533  0.2018  0.2001  0.2227
  138POPC   H2X14993   5.945   1.069   5.509 -0.2806 -0.8971 -1.8334
  138POPC   H2Y14994   5.794   1.161   5.476 -0.1600 -0.8421 -1.1190
  138POPC   C2314995   5.515   1.433   5.689 -0.0062  0.8577  0.3358
  138POPC   H3R14996   5.425   1.396   5.742  1.1044 -0.5617  1.3054
  138POPC   H3S14997   5.574   1.339   5.692 -1.5191 -0.1276  3.2290
  138POPC   C2414998   5.492   1.481   5.539  0.8855 -0.4683 -0.7450
  138POPC   H4R14999   5.437   1.577   5.547  1.5694 -0.1887  1.4562
  138POPC   H4S15000   5.418   1.404   5.509 -2.1764  1.2762  1.7332
  138POPC   C2515001   5.618   1.493   5.456  0.5195  0.7358  0.3640
  138POPC   H5R15002   5.696   1.414   5.464  0.0118  0.0026 -1.5868
  138POPC   H5S15003   5.655   1.596   5.475 -0.5272  1.1304  0.3348
  138POPC   C2615004   5.572   1.513   5.303  0.1478 -0.1768 -0.4252
  138POPC   H6R15005   5.490   1.589   5.308 -0.2475 -0.5844 -0.6505
  138POPC   H6S15006   5.530   1.418   5.266  1.0787 -0.6323 -0.3416
  138POPC   C2715007   5.686   1.570   5.212  1.0847  0.5192 -0.4479
  138POPC   H7R15008   5.758   1.491   5.183 -3.5544 -3.7835 -1.8075
  138POPC   H7S15009   5.738   1.653   5.263  1.4119  0.6546 -0.9978
  138POPC   C2815010   5.646   1.652   5.086  0.3145 -0.1354 -0.1186
  138POPC   H8R15011   5.733   1.704   5.040 -0.7485  0.8248 -1.1097
  138POPC   H8S15012   5.571   1.730   5.112  0.6293 -0.3987  1.6804
  138POPC   C2915013   5.580   1.551   4.997  0.3163 -0.2430 -0.6200
  138POPC   H9115014   5.486   1.509   5.034 -0.3525  0.9928 -0.8508
  138POPC  C21015015   5.638   1.506   4.884  0.1279  0.3239 -0.6988
  138POPC  H10115016   5.588   1.423   4.831  2.7623 -1.1554 -1.0571
  138POPC  C21115017   5.769   1.545   4.830  0.0089 -0.0327  0.1138
  138POPC  H11R15018   5.851   1.502   4.892  1.7412  2.1687 -0.5397
  138POPC  H11S15019   5.772   1.656   4.822 -0.7125  0.0102  0.3515
  138POPC  C21215020   5.814   1.494   4.689 -1.0319 -0.3204  0.0052
  138POPC  H12R15021   5.820   1.383   4.701  2.7167 -0.1680  0.8450
  138POPC  H12S15022   5.919   1.519   4.665 -0.8553 -1.5868 -0.6513
  138POPC  C21315023   5.730   1.536   4.573 -0.1241 -0.2457 -0.0692
  138POPC  H13R15024   5.734   1.646   4.566  0.8372 -0.0824  2.3569
  138POPC  H13S15025   5.621   1.517   4.586 -0.9081  2.6326 -1.5670
  138POPC  C21415026   5.775   1.480   4.439 -0.4481  0.9737  0.1390
  138POPC  H14R15027   5.703   1.502   4.357  0.3432 -0.3460 -0.9577
  138POPC  H14S15028   5.761   1.370   4.449  0.2930  0.7000 -1.5482
  138POPC  C21515029   5.910   1.514   4.391  1.0029  0.3006 -0.1789
  138POPC  H15R15030   5.932   1.456   4.299  0.9577 -1.9875  1.1764
  138POPC  H15S15031   5.983   1.476   4.466 -0.1023 -0.0126  0.7808
  138POPC  C21615032   5.924   1.667   4.370  0.0209  0.5351  0.4731
  138POPC  H16R15033   5.926   1.712   4.471 -0.4370  2.9117 -0.5016
  138POPC  H16S15034   5.836   1.697   4.309  0.8197 -3.0949 -2.8734
  138POPC  C21715035   6.058   1.716   4.304 -0.4537  0.1400  0.0321
  138POPC  H17R15036   6.064   1.678   4.199 -0.7632  2.3400 -0.8378
  138POPC  H17S15037   6.146   1.665   4.350  1.4459  1.5052 -1.8880
  138POPC  C21815038   6.073   1.865   4.307 -0.0913 -0.2245  0.1268
  138POPC  H18R15039   6.169   1.889   4.256 -0.5560  0.0206 -0.6521
  138POPC  H18S15040   6.062   1.908   4.409 -0.7162  0.6301 -0.2896
  138POPC  H18T15041   5.993   1.907   4.242  0.2881 -0.1629 -0.3010
  138POPC   C3315042   5.764   0.941   5.498 -0.3251  0.4690 -0.7849
  138POPC   H3X15043   5.659   0.950   5.533 -0.3863 -1.8093 -0.2046
  138POPC   H3Y15044   5.816   0.857   5.550  0.7088  0.7504 -1.3427
  138POPC   C3415045   5.761   0.924   5.347 -0.7072  0.1797  0.2266
  138POPC   H4X15046   5.690   0.840   5.329 -0.6384  0.1402  0.1392
  138POPC   H4Y15047   5.858   0.894   5.303 -0.6516 -0.8736  1.0267
  138POPC   C3515048   5.696   1.038   5.266 -0.8244  0.6650  0.0732
  138POPC   H5X15049   5.771   1.119   5.269 -0.8020  0.6420  0.1243
  138POPC   H5Y15050   5.607   1.084   5.314 -1.3878  1.0354 -1.2653
  138POPC   C3615051   5.659   1.014   5.121 -0.2925 -0.3059  0.5089
  138POPC   H6X15052   5.623   1.107   5.073  1.0440  1.1546  2.2230
  138POPC   H6Y15053   5.588   0.929   5.106  1.1049 -1.3295 -0.5826
  138POPC   C3715054   5.784   0.969   5.037 -0.8827 -0.5710  0.7241
  138POPC   H7X15055   5.819   0.869   5.069 -2.4658 -1.6222 -0.6410
  138POPC   H7Y15056   5.880   1.020   5.057 -0.1753 -0.8328 -1.6798
  138POPC   C3815057   5.746   0.963   4.885 -0.3201 -0.2906  0.2962
  138POPC   H8X15058   5.734   1.068   4.850  2.9696 -0.1328 -0.6800
  138POPC   H8Y15059   5.651   0.906   4.878 -0.1642 -0.3787 -1.8295
  138POPC   C3915060   5.845   0.896   4.795  0.3434 -0.2751  0.1793
  138POPC   H9X15061   5.848   0.787   4.818 -1.7256 -0.0908  1.6882
  138POPC   H9Y15062   5.944   0.943   4.809  0.3423 -0.4664  0.9044
  138POPC  C31015063   5.817   0.897   4.641 -0.0336  0.0993 -0.4289
  138POPC  H10X15064   5.717   0.857   4.614 -0.5265  0.1346  1.2387
  138POPC  H10Y15065   5.894   0.829   4.600 -1.5876  0.3875 -4.1588
  138POPC  C31115066   5.829   1.035   4.568 -0.2795  0.1081 -0.1675
  138POPC  H11X15067   5.935   1.067   4.572  0.5201 -2.3844  0.1359
  138POPC  H11Y15068   5.765   1.118   4.605  1.4926  1.6731 -0.4531
  138POPC  C31215069   5.800   1.015   4.415 -0.5697  0.2063 -0.3257
  138POPC  H12X15070   5.692   0.986   4.415 -0.6626  0.4445  1.4886
  138POPC  H12Y15071   5.858   0.926   4.382 -0.9142 -0.5512  1.0261
  138POPC  C31315072   5.839   1.130   4.329 -0.9476 -0.6631  0.4223
  138POPC  H13X15073   5.940   1.166   4.358 -1.0293 -0.9216  1.0463
  138POPC  H13Y15074   5.763   1.210   4.341 -2.6142 -1.2901 -4.1380
  138POPC  C31415075   5.851   1.079   4.180  0.0427 -0.3572 -0.1528
  138POPC  H14X15076   5.765   1.009   4.169 -1.3396  1.1098  0.8523
  138POPC  H14Y15077   5.935   1.007   4.174  0.5908  0.1475  1.0741
  138POPC  C31515078   5.857   1.183   4.062 -0.0915  0.2049 -0.0883
  138POPC  H15X15079   5.937   1.257   4.083 -2.2552  2.1872  1.7763
  138POPC  H15Y15080   5.759   1.236   4.068 -1.1013 -1.4217 -1.3574
  138POPC  C31615081   5.868   1.121   3.927 -0.3197  0.1648  0.3144
  138POPC  H16X15082   5.973   1.087   3.910 -1.1072 -2.3777 -0.0090
  138POPC  H16Y15083   5.846   1.199   3.851 -1.4731 -0.6428 -0.2133
  138POPC  H16Z15084   5.800   1.033   3.918 -0.7933  0.4382  1.1445
  139POPC     N15085   3.851   3.333   2.163 -0.4623  0.4692 -0.1027
  139POPC   C1215086   3.900   3.476   2.157 -0.0288  0.1585  0.2358
  139POPC  H12A15087   3.867   3.515   2.062 -0.5174 -1.1180 -0.1278
  139POPC  H12B15088   4.007   3.473   2.147  0.0954  0.7455  1.2531
  139POPC   C1315089   3.705   3.328   2.194  0.7453  0.2482  0.1866
  139POPC  H13A15090   3.661   3.230   2.205  0.7860  0.4246  2.4090
  139POPC  H13B15091   3.690   3.374   2.290 -1.4334 -0.7990  0.4110
  139POPC  H13C15092   3.642   3.391   2.132 -0.7687 -0.5051  0.9073
  139POPC   C1415093   3.883   3.258   2.037 -0.1486  0.4472  0.1132
  139POPC  H14A15094   3.828   3.166   2.029  1.4422 -0.7817  2.2854
  139POPC  H14B15095   3.840   3.316   1.957 -2.3693 -0.4036  0.6242
  139POPC  H14C15096   3.988   3.256   2.011 -0.2775 -1.6781 -0.3848
  139POPC   C1515097   3.924   3.258   2.267  0.3618  0.0492 -0.2317
  139POPC  H15A15098   3.915   3.151   2.261  2.0325 -0.1008 -0.6159
  139POPC  H15B15099   3.920   3.301   2.366  0.7148  1.0284 -0.6308
  139POPC  H15C15100   4.027   3.263   2.235  1.1513  0.5298  2.1648
  139POPC   C1115101   3.859   3.578   2.272  0.4234 -0.2553 -0.0443
  139POPC  H11A15102   3.912   3.673   2.251 -0.9162  0.5563  0.1382
  139POPC  H11B15103   3.892   3.540   2.371  1.6491 -1.5402 -0.9078
  139POPC     P15104   3.631   3.679   2.174 -0.3046  0.5655 -0.0912
  139POPC   O1315105   3.520   3.604   2.103  0.4288 -0.2156 -0.2001
  139POPC   O1415106   3.725   3.760   2.095  0.2417  0.2175  0.0845
  139POPC   O1215107   3.716   3.589   2.269 -0.2214  0.1203 -0.0744
  139POPC   O1115108   3.562   3.776   2.280  0.4632 -0.0956  0.2741
  139POPC    C115109   3.647   3.832   2.386 -0.0025  0.2395  0.0728
  139POPC    HA15110   3.676   3.936   2.360 -1.6977  0.4409 -1.2142
  139POPC    HB15111   3.738   3.772   2.404 -0.1763 -0.8233 -2.2889
  139POPC    C215112   3.560   3.843   2.515  0.0613  0.4709  0.2739
  139POPC    HS15113   3.469   3.896   2.480  0.2075 -0.3308 -1.4328
  139POPC   O2115114   3.631   3.933   2.604 -0.1642 -0.5841  0.5766
  139POPC   C2115115   3.550   3.979   2.692  0.0112 -0.2161 -0.2914
  139POPC   O2215116   3.428   3.964   2.678 -0.1413 -0.4713 -0.0798
  139POPC   C2215117   3.622   4.059   2.805  0.1629 -0.1429 -0.1750
  139POPC   H2R15118   3.695   4.128   2.758 -0.2310  1.0046  0.8126
  139POPC   H2S15119   3.674   3.998   2.881 -2.7779  0.3464  2.4694
  139POPC    C315120   3.511   3.705   2.570 -0.4821 -0.5870  0.8265
  139POPC    HX15121   3.439   3.661   2.498  0.2076  0.2684 -0.4127
  139POPC    HY15122   3.445   3.715   2.659 -1.3034 -0.6068  0.2348
  139POPC   O3115123   3.624   3.621   2.608  0.8015  0.0211 -0.1700
  139POPC   C3115124   3.617   3.494   2.574 -0.4769  0.3124 -0.0997
  139POPC   O3215125   3.518   3.432   2.531  0.4448 -0.1578 -0.3947
  139POPC   C3215126   3.749   3.420   2.612 -0.1794 -0.2048  0.9023
  139POPC   H2X15127   3.824   3.470   2.546 -2.8680  3.5027  0.3059
  139POPC   H2Y15128   3.742   3.311   2.593  1.0065 -0.2736  0.7322
  139POPC   C2315129   3.526   4.135   2.905 -0.4927  0.5313 -0.5806
  139POPC   H3R15130   3.458   4.213   2.864 -1.3477  0.6422  0.9748
  139POPC   H3S15131   3.588   4.201   2.969 -1.0689  0.4113  0.1082
  139POPC   C2415132   3.459   4.034   2.998 -0.0267 -1.1357 -0.2901
  139POPC   H4R15133   3.526   3.971   3.061  0.3004 -0.5261 -0.0271
  139POPC   H4S15134   3.407   3.956   2.938 -0.7732 -1.0837  0.2792
  139POPC   C2515135   3.352   4.107   3.089 -0.2843 -0.4478  0.1125
  139POPC   H5R15136   3.290   4.027   3.134  2.3144 -3.5815 -1.5110
  139POPC   H5S15137   3.281   4.174   3.036 -1.0689 -0.2191  1.4087
  139POPC   C2615138   3.418   4.194   3.200 -0.1836  0.0151  0.0612
  139POPC   H6R15139   3.491   4.272   3.168 -0.7448  0.7200  0.4679
  139POPC   H6S15140   3.471   4.123   3.267  0.6638  1.8629  1.4471
  139POPC   C2715141   3.305   4.265   3.275 -0.3599  0.0585  0.4965
  139POPC   H7R15142   3.259   4.335   3.203 -0.5730 -1.4322 -0.8753
  139POPC   H7S15143   3.343   4.314   3.367  2.4405 -0.7466 -0.1224
  139POPC   C2815144   3.185   4.178   3.309  0.7105 -0.3727 -0.2464
  139POPC   H8R15145   3.218   4.098   3.379 -1.2024 -1.0318 -0.0489
  139POPC   H8S15146   3.140   4.138   3.216  0.4664  2.0082 -1.2071
  139POPC   C2915147   3.073   4.253   3.380 -0.0901 -0.2480 -0.2868
  139POPC   H9115148   3.041   4.350   3.338  0.3034  1.1391  2.3580
  139POPC  C21015149   3.006   4.224   3.497 -0.2315 -0.0599 -0.3154
  139POPC  H10115150   2.906   4.268   3.513 -0.3642 -0.9022  1.3148
  139POPC  C21115151   3.028   4.104   3.593 -0.5828 -0.0139  0.0588
  139POPC  H11R15152   3.137   4.086   3.586 -0.6102  0.1919 -1.0678
  139POPC  H11S15153   2.986   4.008   3.555 -2.5562  1.4520 -1.6650
  139POPC  C21215154   2.962   4.105   3.732 -0.2378 -0.3750 -0.3701
  139POPC  H12R15155   2.992   4.016   3.792 -3.1734 -0.0234  1.8678
  139POPC  H12S15156   2.852   4.092   3.722 -0.3700  1.2537 -1.2322
  139POPC  C21315157   2.989   4.236   3.805  0.7618 -0.0688 -0.3878
  139POPC  H13R15158   2.944   4.326   3.759  1.1173  1.3772  1.9427
  139POPC  H13S15159   3.097   4.261   3.809  0.6507  0.3360  0.0673
  139POPC  C21415160   2.934   4.236   3.956 -0.1933  0.3557  0.0545
  139POPC  H14R15161   3.011   4.203   4.029  1.3946  1.6560 -0.9408
  139POPC  H14S15162   2.854   4.160   3.968 -0.2003  0.5893  1.7030
  139POPC  C21515163   2.885   4.379   3.998  0.4484 -0.5084 -0.2579
  139POPC  H15R15164   2.949   4.457   3.951  0.1591 -0.2052 -0.1489
  139POPC  H15S15165   2.896   4.387   4.108  2.4464 -1.9258 -0.2882
  139POPC  C21615166   2.735   4.401   3.957  0.0369  0.4918  0.1661
  139POPC  H16R15167   2.683   4.317   4.007  1.7072 -0.6625  0.0374
  139POPC  H16S15168   2.714   4.392   3.848 -1.1506 -1.0742  0.4872
  139POPC  C21715169   2.671   4.528   4.012 -0.2249  0.9500  0.1929
  139POPC  H17R15170   2.732   4.617   3.985 -0.9531  1.4666  0.2242
  139POPC  H17S15171   2.666   4.521   4.123 -1.4420  3.8221  0.4045
  139POPC  C21815172   2.531   4.549   3.965 -0.5704 -0.0055  0.8187
  139POPC  H18R15173   2.535   4.520   3.857 -0.3668 -1.9023  1.3046
  139POPC  H18S15174   2.496   4.654   3.972  0.9585  0.4996  1.4096
  139POPC  H18T15175   2.465   4.477   4.017 -1.1073  0.1165  0.3113
  139POPC   C3315176   3.787   3.455   2.763  0.4596  0.0993 -0.0608
  139POPC   H3X15177   3.773   3.564   2.780 -2.7408  0.0960 -1.8982
  139POPC   H3Y15178   3.896   3.435   2.769  0.8305  1.6251 -1.0021
  139POPC   C3415179   3.695   3.376   2.862  0.1999 -0.1210  0.1381
  139POPC   H4X15180   3.717   3.269   2.843 -0.8473 -0.1336 -1.1494
  139POPC   H4Y15181   3.589   3.390   2.832 -0.9547 -0.2335  3.7268
  139POPC   C3515182   3.712   3.411   3.008  0.6139 -0.6873  0.3197
  139POPC   H5X15183   3.681   3.517   3.022 -2.5555 -1.2239 -1.6297
  139POPC   H5Y15184   3.817   3.396   3.041  0.3438 -0.9362  1.0930
  139POPC   C3615185   3.624   3.320   3.101  0.8720  0.5001 -0.0556
  139POPC   H6X15186   3.631   3.211   3.077 -1.9334  0.6356 -2.0461
  139POPC   H6Y15187   3.518   3.342   3.076  0.4583 -1.8006 -0.6329
  139POPC   C3715188   3.646   3.357   3.245 -0.8254 -0.6947  0.0477
  139POPC   H7X15189   3.656   3.468   3.256 -0.3476 -0.9499  3.0855
  139POPC   H7Y15190   3.741   3.308   3.275 -0.2827  0.0449 -0.4332
  139POPC   C3815191   3.524   3.312   3.332  0.0637 -0.0515  0.4712
  139POPC   H8X15192   3.523   3.201   3.334 -0.8714 -0.0610  0.1280
  139POPC   H8Y15193   3.429   3.340   3.282  0.6732  0.7049 -0.2868
  139POPC   C3915194   3.519   3.357   3.482 -0.3949  1.1131  0.2533
  139POPC   H9X15195   3.439   3.304   3.539  1.0964 -2.4550 -0.6699
  139POPC   H9Y15196   3.495   3.465   3.490 -1.8632  1.0120 -1.7501
  139POPC  C31015197   3.658   3.322   3.544 -0.5384 -0.0562 -0.4635
  139POPC  H10X15198   3.735   3.366   3.477 -1.0093 -2.2586 -2.5974
  139POPC  H10Y15199   3.674   3.213   3.530  0.6274 -0.3103  2.1952
  139POPC  C31115200   3.670   3.357   3.698 -0.1400 -0.0493  0.4107
  139POPC  H11X15201   3.577   3.314   3.740 -0.2368 -1.0764 -0.7886
  139POPC  H11Y15202   3.673   3.466   3.718  2.2187  0.0179 -0.0226
  139POPC  C31215203   3.803   3.308   3.751 -0.4440 -0.7194 -0.0611
  139POPC  H12X15204   3.824   3.375   3.837  1.1105  0.3805 -1.2517
  139POPC  H12Y15205   3.884   3.332   3.678 -2.2520 -1.8885 -2.6064
  139POPC  C31315206   3.796   3.162   3.800  0.3990 -1.4150 -0.1988
  139POPC  H13X15207   3.902   3.131   3.815  0.6253  0.2308  2.2081
  139POPC  H13Y15208   3.747   3.101   3.721 -0.6665  1.4273 -1.8878
  139POPC  C31415209   3.724   3.161   3.939 -0.5364  0.6440 -0.5846
  139POPC  H14X15210   3.614   3.168   3.927 -1.2577 -4.5812  0.7147
  139POPC  H14Y15211   3.754   3.253   3.994 -0.8115 -0.2320  1.0726
  139POPC  C31515212   3.743   3.024   4.009 -0.6598 -1.0288  0.0517
  139POPC  H15X15213   3.743   2.938   3.938 -0.8049 -0.5853 -0.4892
  139POPC  H15Y15214   3.656   3.015   4.077 -0.9828 -0.7604 -0.3217
  139POPC  C31615215   3.873   3.015   4.089  0.1439 -0.0720 -0.4309
  139POPC  H16X15216   3.883   2.915   4.136 -1.5024  0.5385  1.3793
  139POPC  H16Y15217   3.872   3.082   4.178 -2.0441 -2.4394  1.4891
  139POPC  H16Z15218   3.961   3.047   4.029  1.6857 -1.3842  1.0171
  140POPC     N15219   1.488   5.487   1.721 -0.3007 -0.1403  0.1892
  140POPC   C1215220   1.595   5.469   1.823  0.2946 -0.5397 -0.0662
  140POPC  H12A15221   1.682   5.501   1.767  1.6771 -1.9525  1.2043
  140POPC  H12B15222   1.608   5.369   1.860 -0.9334 -1.5736 -2.2432
  140POPC   C1315223   1.481   5.629   1.693 -0.3008 -0.0978 -0.2433
  140POPC  H13A15224   1.488   5.683   1.786 -0.7921  2.1049 -1.4168
  140POPC  H13B15225   1.568   5.659   1.636 -1.2178  1.4257 -0.9066
  140POPC  H13C15226   1.390   5.668   1.649 -0.3926  0.2479  0.2516
  140POPC   C1415227   1.526   5.410   1.601  0.4226  0.2111  0.0034
  140POPC  H14A15228   1.535   5.303   1.614 -1.9046  0.0150  0.4729
  140POPC  H14B15229   1.452   5.416   1.522 -0.6479 -1.4087  0.8404
  140POPC  H14C15230   1.617   5.450   1.558 -0.5253  0.8105 -1.5056
  140POPC   C1515231   1.352   5.451   1.773 -0.2277  0.3866  0.1675
  140POPC  H15A15232   1.345   5.345   1.791 -1.5547  0.3062 -0.6607
  140POPC  H15B15233   1.277   5.475   1.699  1.5120  2.2605 -1.0968
  140POPC  H15C15234   1.344   5.510   1.863  1.0815  1.3765 -0.3505
  140POPC   C1115235   1.597   5.563   1.945 -1.1543  0.4900  0.2384
  140POPC  H11A15236   1.616   5.669   1.918  1.4667  0.6515  2.3004
  140POPC  H11B15237   1.684   5.534   2.008  0.3998  2.3952 -0.9117
  140POPC     P15238   1.413   5.684   2.077 -0.1323  0.0735  0.2900
  140POPC   O1315239   1.286   5.650   2.143 -0.2356 -0.3746  0.3438
  140POPC   O1415240   1.412   5.792   1.975  0.0394  0.7013  0.3415
  140POPC   O1215241   1.479   5.555   2.021 -0.5527  0.3061  0.4756
  140POPC   O1115242   1.518   5.733   2.190 -0.5370  0.4006  0.1721
  140POPC    C115243   1.580   5.642   2.286  0.5363  0.6186 -0.0397
  140POPC    HA15244   1.690   5.634   2.274  0.7246  0.3348  1.7057
  140POPC    HB15245   1.547   5.537   2.268  0.6304  0.9356 -2.4204
  140POPC    C215246   1.532   5.672   2.427 -0.3428 -0.5965 -0.6628
  140POPC    HS15247   1.603   5.616   2.491  0.6615 -1.1668 -2.2114
  140POPC   O2115248   1.397   5.634   2.449  0.3042  0.0395 -0.0372
  140POPC   C2115249   1.387   5.506   2.458 -0.1878 -0.7613  0.3959
  140POPC   O2215250   1.477   5.428   2.479  0.3715 -0.2239  0.1861
  140POPC   C2215251   1.239   5.465   2.442 -0.0195 -0.0148  0.0139
  140POPC   H2R15252   1.239   5.358   2.470  0.2965 -0.2872 -1.0005
  140POPC   H2S15253   1.214   5.480   2.335 -0.2862  1.3858  0.2517
  140POPC    C315254   1.557   5.818   2.460  0.2016 -0.1663 -0.0558
  140POPC    HX15255   1.482   5.871   2.397  1.4549  0.5686 -0.9901
  140POPC    HY15256   1.650   5.869   2.428 -0.4782  1.4198  0.4019
  140POPC   O3115257   1.551   5.842   2.602 -0.6350 -0.1218 -0.2531
  140POPC   C3115258   1.539   5.972   2.629  0.3304  0.1202  0.3534
  140POPC   O3215259   1.563   6.063   2.549  0.6252 -0.0282 -0.4355
  140POPC   C3215260   1.493   5.986   2.768  0.0227  0.0288  0.4179
  140POPC   H2X15261   1.573   5.981   2.845  1.5054 -0.4458 -1.0959
  140POPC   H2Y15262   1.418   5.905   2.780  2.0588 -1.7132  2.1774
  140POPC   C2315263   1.138   5.539   2.528 -0.2891  0.7067 -0.1198
  140POPC   H3R15264   1.057   5.463   2.519 -1.3182  1.6229  1.0217
  140POPC   H3S15265   1.107   5.636   2.485 -1.4689  0.9381  1.1661
  140POPC   C2415266   1.167   5.542   2.683  0.2586 -0.8156  0.8803
  140POPC   H4R15267   1.232   5.453   2.701  0.9304 -0.4415  0.3442
  140POPC   H4S15268   1.071   5.511   2.730 -0.2686 -1.4185 -0.5152
  140POPC   C2515269   1.232   5.671   2.737 -0.6061  0.5626 -0.4029
  140POPC   H5R15270   1.163   5.756   2.718 -2.4933 -1.2200 -2.0571
  140POPC   H5S15271   1.326   5.692   2.682 -0.0186 -0.2824  0.2415
  140POPC   C2615272   1.273   5.667   2.885 -0.0534 -0.0572 -0.1563
  140POPC   H6R15273   1.181   5.631   2.937  0.1695  0.5342  0.6728
  140POPC   H6S15274   1.287   5.770   2.925  0.8838  0.1682 -1.0319
  140POPC   C2715275   1.396   5.577   2.922  0.0469 -0.0135  0.0682
  140POPC   H7R15276   1.484   5.622   2.870  0.5919 -1.4219 -0.2735
  140POPC   H7S15277   1.376   5.481   2.870 -0.6417  1.2940 -2.2613
  140POPC   C2815278   1.428   5.566   3.071  0.2728 -0.3065 -0.4749
  140POPC   H8R15279   1.493   5.479   3.091  0.8374  0.4672  1.2924
  140POPC   H8S15280   1.335   5.538   3.125 -1.1344 -0.4686 -2.8639
  140POPC   C2915281   1.476   5.691   3.143 -0.4283  0.2752  0.2306
  140POPC   H9115282   1.570   5.735   3.104 -0.6493 -0.7206 -1.5436
  140POPC  C21015283   1.423   5.742   3.256  0.7747 -0.4046 -0.2403
  140POPC  H10115284   1.454   5.836   3.305  0.1792  0.3493 -1.2529
  140POPC  C21115285   1.308   5.678   3.335  0.2973 -0.3054  0.4061
  140POPC  H11R15286   1.216   5.677   3.272 -1.6120  3.5325  2.7348
  140POPC  H11S15287   1.283   5.751   3.414  3.7867 -0.0496  1.4319
  140POPC  C21215288   1.347   5.544   3.407  0.2513  0.4624  0.4173
  140POPC  H12R15289   1.378   5.467   3.334  0.8941  0.4955  0.6509
  140POPC  H12S15290   1.264   5.505   3.469  1.4862 -2.0532  0.5796
  140POPC  C21315291   1.465   5.563   3.501 -0.8725  0.1814 -0.0028
  140POPC  H13R15292   1.446   5.661   3.551 -4.4216 -0.2124 -0.3251
  140POPC  H13S15293   1.560   5.572   3.444 -0.9531  1.0993 -0.0128
  140POPC  C21415294   1.484   5.453   3.606 -0.5876 -0.5323  0.6622
  140POPC  H14R15295   1.525   5.357   3.566  0.3206  0.2102 -0.2208
  140POPC  H14S15296   1.385   5.428   3.648 -0.0583 -1.4201  1.4320
  140POPC  C21515297   1.569   5.513   3.718  0.8196 -0.1449  0.2297
  140POPC  H15R15298   1.533   5.470   3.814 -0.0037  1.5682  0.7298
  140POPC  H15S15299   1.549   5.622   3.714 -1.2935 -0.4865  0.4377
  140POPC  C21615300   1.716   5.488   3.689 -0.0460 -0.0811  0.4757
  140POPC  H16R15301   1.751   5.540   3.598 -0.6032  0.9194  0.8078
  140POPC  H16S15302   1.726   5.378   3.674  1.0898 -0.2247  2.0647
  140POPC  C21715303   1.817   5.527   3.800 -0.4874  0.0978 -0.1419
  140POPC  H17R15304   1.914   5.477   3.779 -0.2396 -0.3170  1.8152
  140POPC  H17S15305   1.789   5.473   3.893  0.5454  1.2865  0.8834
  140POPC  C21815306   1.825   5.671   3.812 -0.3755  0.4907  0.2044
  140POPC  H18R15307   1.920   5.702   3.861 -0.8685  2.1699  0.1770
  140POPC  H18S15308   1.740   5.715   3.868 -1.7552 -0.3889 -1.1146
  140POPC  H18T15309   1.819   5.724   3.714  1.2881 -1.4629 -1.0324
  140POPC   C3315310   1.424   6.118   2.810 -1.1599  0.1146  0.4008
  140POPC   H3X15311   1.402   6.174   2.716  0.2118 -0.6049 -0.3784
  140POPC   H3Y15312   1.492   6.182   2.870 -1.3263  0.6433  0.0429
  140POPC   C3415313   1.299   6.098   2.898 -0.0431  0.3005 -0.1894
  140POPC   H4X15314   1.329   6.050   2.993 -0.7115 -0.1249 -0.1866
  140POPC   H4Y15315   1.223   6.036   2.845  1.2986  0.9430 -3.0971
  140POPC   C3515316   1.215   6.219   2.937 -0.1774  0.8593 -0.3489
  140POPC   H5X15317   1.191   6.273   2.843  1.7130 -0.3425 -1.5931
  140POPC   H5Y15318   1.283   6.300   2.972  0.0773  1.0935 -1.3641
  140POPC   C3615319   1.101   6.193   3.030  0.2017 -0.2315  0.0979
  140POPC   H6X15320   1.024   6.128   2.983  1.0831 -0.5500 -0.9754
  140POPC   H6Y15321   1.061   6.294   3.049  0.9218  0.3480 -1.2941
  140POPC   C3715322   1.149   6.136   3.162  0.3125  0.3504  0.0253
  140POPC   H7X15323   1.235   6.198   3.197  0.7106 -0.0216 -0.2815
  140POPC   H7Y15324   1.185   6.031   3.151  1.1752  0.6043  0.2991
  140POPC   C3815325   1.044   6.129   3.280 -0.3073 -0.0340 -0.4660
  140POPC   H8X15326   0.953   6.086   3.233 -0.1351  1.5425 -2.3159
  140POPC   H8Y15327   1.012   6.231   3.310 -2.1356 -0.8033  0.3455
  140POPC   C3915328   1.098   6.050   3.389  0.3483 -0.3433 -0.5427
  140POPC   H9X15329   1.199   6.083   3.420  0.7589 -3.0441  1.3317
  140POPC   H9Y15330   1.094   5.944   3.354 -0.1778 -0.1048 -1.2279
  140POPC  C31015331   1.007   6.075   3.510  0.4330  0.1265 -0.5118
  140POPC  H10X15332   0.908   6.030   3.488  1.0544 -0.9107 -1.2856
  140POPC  H10Y15333   0.994   6.181   3.542 -0.0741 -0.0808 -0.0278
  140POPC  C31115334   1.055   5.990   3.630 -0.4761 -0.4530  0.3284
  140POPC  H11X15335   1.160   6.015   3.657 -0.5329 -0.8841  0.9804
  140POPC  H11Y15336   1.067   5.887   3.589  1.5695  0.3187 -1.1409
  140POPC  C31215337   0.961   5.975   3.752 -0.7549  0.2497  0.5188
  140POPC  H12X15338   0.885   5.895   3.747  0.3522 -0.7972 -0.2620
  140POPC  H12Y15339   0.928   6.077   3.781  2.1548  1.1433  1.0745
  140POPC  C31315340   1.050   5.936   3.869 -0.5059 -0.5847 -0.2106
  140POPC  H13X15341   1.139   6.001   3.878 -1.1985  0.7374 -2.1895
  140POPC  H13Y15342   1.088   5.832   3.857  0.8080 -0.3648  1.6277
  140POPC  C31415343   0.979   5.944   4.009 -0.4599  0.0560 -0.2995
  140POPC  H14X15344   0.894   5.875   4.025  2.1205 -2.9832  1.6878
  140POPC  H14Y15345   0.962   6.051   4.034  2.1441  0.6198 -0.6124
  140POPC  C31515346   1.081   5.909   4.117 -0.1050 -0.3391  0.2231
  140POPC  H15X15347   1.172   5.968   4.094 -0.1821  0.0002  0.7840
  140POPC  H15Y15348   1.111   5.803   4.102 -0.0983 -0.6392  2.0892
  140POPC  C31615349   1.029   5.930   4.260 -0.0466  0.7870 -0.0540
  140POPC  H16X15350   1.097   5.899   4.342 -1.1374 -0.8929  0.2635
  140POPC  H16Y15351   0.939   5.865   4.270  1.3970 -1.1761  0.8197
  140POPC  H16Z15352   0.995   6.036   4.266  1.7368  1.3261  1.5785
  141SAPS     N15353   4.117   3.304   6.448 -0.0398  0.0418 -0.0027
  141SAPS   HN115354   4.058   3.390   6.443  1.1823  1.0635  1.9163
  141SAPS   HN215355   4.067   3.224   6.406 -1.3659  1.4801 -1.2845
  141SAPS   HN315356   4.133   3.284   6.548  0.6346 -0.0229 -0.1175
  141SAPS   C1215357   4.245   3.328   6.368 -0.8720 -0.1170 -0.4105
  141SAPS  H12A15358   4.220   3.339   6.264  2.0313 -0.4060 -1.2181
  141SAPS   C1315359   4.313   3.463   6.405  0.8462  0.1889 -0.5588
  141SAPS  O13A15360   4.253   3.550   6.479 -0.0899  0.4573  0.0202
  141SAPS  O13B15361   4.396   3.498   6.326 -0.2730  0.1468  0.2711
  141SAPS   C1115362   4.340   3.204   6.393  0.5441 -0.0654 -0.4742
  141SAPS  H11A15363   4.351   3.194   6.503 -1.0281 -2.1017 -0.4437
  141SAPS  H11B15364   4.438   3.219   6.343  1.7032 -0.5011  1.5783
  141SAPS     P15365   4.235   3.020   6.215  0.0519 -0.3586 -0.0556
  141SAPS   O1315366   4.222   2.872   6.232 -0.2611 -0.9711  0.0362
  141SAPS   O1415367   4.119   3.099   6.174  0.0644 -0.0345 -0.3036
  141SAPS   O1215368   4.282   3.083   6.352  0.1262 -0.0497  0.0766
  141SAPS   O1115369   4.357   3.051   6.121  0.0719 -0.0280  0.8095
  141SAPS    C115370   4.483   2.992   6.149 -0.3329  0.3661 -0.2084
  141SAPS    HA15371   4.558   3.069   6.177  2.3164 -2.1118 -0.0521
  141SAPS    HB15372   4.480   2.917   6.231 -2.7667  1.4687  0.8179
  141SAPS    C215373   4.558   2.934   6.020  0.2449 -0.7578 -0.3535
  141SAPS    HS15374   4.662   2.919   6.055 -0.0385 -1.9103  0.0278
  141SAPS   O2115375   4.545   3.025   5.904  0.0610 -0.1040 -0.6045
  141SAPS   C2115376   4.637   3.118   5.908  0.1210  0.3093 -0.2393
  141SAPS   O2215377   4.720   3.135   5.994  0.2477 -0.1238 -0.1208
  141SAPS   C2215378   4.628   3.200   5.775  0.4625  0.2434 -0.3820
  141SAPS   H2R15379   4.678   3.137   5.698  0.1103 -1.4162  0.7046
  141SAPS   H2S15380   4.522   3.230   5.758  0.1950 -0.2938  0.3057
  141SAPS    C315381   4.496   2.797   5.985 -0.3276  0.1261 -0.0299
  141SAPS    HX15382   4.402   2.811   5.926 -0.9353  2.2529  1.3134
  141SAPS    HY15383   4.470   2.741   6.078  2.8046 -2.4550 -0.5790
  141SAPS   O3115384   4.585   2.724   5.903  0.1410  0.2521 -0.3644
  141SAPS   C3115385   4.551   2.591   5.881 -0.0601 -0.1542 -0.6046
  141SAPS   O3215386   4.458   2.531   5.936  0.6430 -1.0723  0.4002
  141SAPS   C3215387   4.661   2.520   5.806  0.3024  0.5523 -0.1701
  141SAPS   H2X15388   4.656   2.410   5.821  0.4038  0.4547 -0.8194
  141SAPS   H2Y15389   4.758   2.556   5.848  0.3726 -1.1445  1.2367
  141SAPS   C2315390   4.712   3.329   5.783  0.0179 -0.1768  0.5749
  141SAPS   H3R15391   4.820   3.306   5.788  0.8638  2.8171 -1.5062
  141SAPS   H3S15392   4.680   3.384   5.875 -2.6009 -2.5287  1.2306
  141SAPS   C2415393   4.698   3.433   5.664  0.1676 -0.1841  0.5646
  141SAPS   H4R15394   4.744   3.528   5.700  2.1218 -0.7061 -0.4149
  141SAPS   H4S15395   4.588   3.450   5.655  0.4792  1.2800 -0.9074
  141SAPS   C2515396   4.760   3.383   5.529  0.4256  1.1223 -0.3409
  141SAPS   H5R15397   4.862   3.345   5.544 -0.5317 -1.4905  0.0958
  141SAPS   C2615398   4.701   3.348   5.407  1.2294 -0.2938 -0.3079
  141SAPS   H6R15399   4.751   3.329   5.312 -1.4922 -2.2037 -1.4936
  141SAPS   C2715400   4.553   3.363   5.385  1.6275  0.0334  0.1241
  141SAPS   H7R15401   4.531   3.471   5.365  1.1838 -0.2663 -1.1183
  141SAPS   H7S15402   4.500   3.347   5.481 -0.2024  3.3088 -0.1608
  141SAPS   C2815403   4.498   3.276   5.272 -0.2805  0.2079 -0.0580
  141SAPS   H8R15404   4.497   3.173   5.310 -0.2191  0.3902  0.4402
  141SAPS   C2915405   4.474   3.316   5.145  0.2532 -0.0344  0.6542
  141SAPS   H9R15406   4.439   3.239   5.075  0.5821  0.6898 -0.3097
  141SAPS  C21015407   4.498   3.446   5.089 -0.0297 -0.4284  0.1039
  141SAPS  H10R15408   4.547   3.506   5.168  0.6397  2.8695 -2.5836
  141SAPS  H10S15409   4.405   3.503   5.070  0.2178  0.4488  1.3846
  141SAPS  C21115410   4.608   3.442   4.985 -0.0139  0.3744  0.3199
  141SAPS  H11R15411   4.707   3.432   5.032  0.8181  0.4711 -1.3443
  141SAPS  C21215412   4.591   3.446   4.851  0.0140 -0.3870  0.4261
  141SAPS  H12R15413   4.674   3.452   4.779 -1.6893 -1.2815 -1.7341
  141SAPS  C21315414   4.456   3.469   4.782  0.2187 -0.3569 -0.2712
  141SAPS  H13R15415   4.458   3.568   4.731 -0.2272 -1.0564 -1.6926
  141SAPS  H13S15416   4.375   3.476   4.857 -0.6881 -0.9153 -1.1722
  141SAPS  C21415417   4.433   3.359   4.679  0.3161  0.3464  0.0618
  141SAPS  H14R15418   4.366   3.274   4.699  0.3523 -0.4075 -2.5983
  141SAPS  C21515419   4.485   3.351   4.557 -0.0690  0.2115 -0.0218
  141SAPS  H15R15420   4.443   3.279   4.485 -0.1989  1.1207 -0.8865
  141SAPS  C21615421   4.582   3.446   4.495  0.5229 -0.2495  0.2628
  141SAPS  H16R15422   4.611   3.532   4.560 -0.3203 -0.7040  1.2636
  141SAPS  H16S15423   4.534   3.490   4.406 -0.7968 -1.8675  0.1280
  141SAPS  C21715424   4.715   3.365   4.467  0.5879 -0.5117  0.2894
  141SAPS  H17R15425   4.738   3.298   4.552  2.7005  1.1594  1.1262
  141SAPS  H17S15426   4.797   3.438   4.449  0.5192 -0.0088  1.8804
  141SAPS  C21815427   4.710   3.279   4.341 -0.5351 -0.2472 -0.9912
  141SAPS  H18R15428   4.653   3.337   4.265  0.5861  1.3706 -0.6457
  141SAPS  H18S15429   4.658   3.186   4.374 -1.3322  0.5841  0.1621
  141SAPS  C21915430   4.847   3.235   4.281  0.0077  0.3871  0.3303
  141SAPS  H19R15431   4.899   3.323   4.239  0.5826  0.2587  0.7643
  141SAPS  H19S15432   4.824   3.190   4.182  1.4422 -0.9184  0.5451
  141SAPS  C22015433   4.923   3.138   4.356  0.4711  0.4195 -0.2453
  141SAPS  H20R15434   4.853   3.057   4.385 -4.3016  3.2424 -2.6982
  141SAPS  H20S15435   4.960   3.181   4.451 -0.6734  0.2383  0.2882
  141SAPS  H20T15436   5.004   3.093   4.294 -3.7393 -3.5554 -3.6260
  141SAPS   C3315437   4.654   2.557   5.660 -0.7298 -0.3105 -0.1398
  141SAPS   H3X15438   4.744   2.615   5.633  0.0019 -1.8922 -1.2398
  141SAPS   H3Y15439   4.565   2.621   5.638 -0.1689  0.9233  1.0188
  141SAPS   C3415440   4.656   2.429   5.572  0.0322 -0.0070  0.1085
  141SAPS   H4X15441   4.563   2.370   5.591 -0.5787  0.4938 -1.1902
  141SAPS   H4Y15442   4.756   2.383   5.583  0.5494  0.7453 -1.1907
  141SAPS   C3515443   4.652   2.478   5.429 -0.1088 -0.0250  0.0045
  141SAPS   H5X15444   4.744   2.524   5.387 -1.0664 -0.8042 -3.2880
  141SAPS   H5Y15445   4.560   2.541   5.428  0.4500  0.8470  1.2153
  141SAPS   C3615446   4.642   2.352   5.345 -0.5583  0.3009 -0.0094
  141SAPS   H6X15447   4.546   2.300   5.368  0.2951 -0.3302  2.5229
  141SAPS   H6Y15448   4.721   2.286   5.388  0.2152  1.4903  0.4343
  141SAPS   C3715449   4.675   2.386   5.203  0.9954 -0.2626  0.5791
  141SAPS   H7X15450   4.783   2.411   5.191  0.4337  1.4223 -1.7638
  141SAPS   H7Y15451   4.624   2.476   5.163  0.6351 -0.5133  0.4735
  141SAPS   C3815452   4.643   2.267   5.104 -0.6829 -0.7433 -0.0493
  141SAPS   H8X15453   4.562   2.290   5.031 -0.0063  0.9825 -0.3181
  141SAPS   H8Y15454   4.619   2.170   5.152 -2.0691 -1.6999 -2.5062
  141SAPS   C3915455   4.766   2.229   5.027 -0.9526 -0.2172  0.2589
  141SAPS   H9X15456   4.752   2.128   4.982 -1.9340 -0.4022  0.9461
  141SAPS   H9Y15457   4.859   2.223   5.088  0.3817 -0.1725 -1.6824
  141SAPS  C31015458   4.786   2.314   4.898  0.2033 -0.6605 -0.0345
  141SAPS  H10X15459   4.703   2.288   4.830  0.5452 -1.4716 -0.1474
  141SAPS  H10Y15460   4.877   2.275   4.847  1.0593 -3.1136  3.1249
  141SAPS  C31115461   4.802   2.470   4.910 -0.1061  0.9299 -0.2095
  141SAPS  H11X15462   4.895   2.490   4.967  0.6040  3.4133 -2.0751
  141SAPS  H11Y15463   4.725   2.524   4.969  0.8639  2.9749 -0.7324
  141SAPS  C31215464   4.821   2.541   4.774 -0.0426  0.2941  0.6268
  141SAPS  H12X15465   4.891   2.476   4.716 -1.0512  0.7683 -1.2022
  141SAPS  H12Y15466   4.877   2.635   4.790  0.1303 -0.1733  3.1573
  141SAPS  C31315467   4.691   2.562   4.693 -0.8747 -0.4186 -0.6839
  141SAPS  H13X15468   4.617   2.618   4.754 -0.9820  1.1640 -2.2017
  141SAPS  H13Y15469   4.643   2.465   4.664 -1.2889 -0.6921  0.8241
  141SAPS  C31415470   4.712   2.647   4.567 -0.9143  0.6283 -0.6365
  141SAPS  H14X15471   4.749   2.744   4.607 -0.5082  0.3575 -0.3384
  141SAPS  H14Y15472   4.613   2.671   4.522 -0.2070  1.8111 -1.6106
  141SAPS  C31515473   4.809   2.593   4.458 -0.2440 -0.1247  0.0508
  141SAPS  H15X15474   4.768   2.493   4.431  1.7243 -0.6216 -1.3379
  141SAPS  H15Y15475   4.914   2.583   4.490 -0.2795  0.1305  0.2502
  141SAPS  C31615476   4.808   2.681   4.335  1.3713 -0.1052  0.3275
  141SAPS  H16X15477   4.830   2.786   4.364  0.3751 -0.1603  1.3472
  141SAPS  H16Y15478   4.704   2.675   4.297  1.2620  0.4390  0.5330
  141SAPS  C31715479   4.914   2.642   4.234  0.4592  0.0011 -0.2716
  141SAPS  H17X15480   4.906   2.533   4.212 -0.3684 -0.8192  3.4602
  141SAPS  H17Y15481   5.008   2.633   4.293 -1.0637 -1.0404  2.1202
  141SAPS  C31815482   4.916   2.718   4.098 -0.4379  0.4856 -0.6725
  141SAPS  H18X15483   4.965   2.673   4.009 -0.8573 -1.4303 -0.0071
  141SAPS  H18Y15484   4.964   2.817   4.112  0.5070 -0.1810  1.1629
  141SAPS  H18Z15485   4.811   2.742   4.070 -0.4970  0.3111 -0.6094
  142SAPS     N15486   2.739   1.989   6.397 -0.2479  0.0136  0.2688
  142SAPS   HN115487   2.771   1.914   6.331  0.5037 -0.4224  1.0984
  142SAPS   HN215488   2.641   1.961   6.415 -0.6166 -0.0151 -1.5491
  142SAPS   HN315489   2.739   2.080   6.347  0.8411 -0.7319 -1.1923
  142SAPS   C1215490   2.822   2.007   6.527  0.7739 -0.5700 -0.1359
  142SAPS  H12A15491   2.759   2.062   6.595  0.6812 -0.5985 -0.1981
  142SAPS   C1315492   2.864   1.870   6.594  1.2263 -0.3254  0.3145
  142SAPS  O13A15493   2.857   1.763   6.523  0.1628  0.5246 -0.3622
  142SAPS  O13B15494   2.907   1.867   6.709  0.5655  0.6048 -0.5490
  142SAPS   C1115495   2.956   2.080   6.492  0.4000 -0.6315 -0.1356
  142SAPS  H11A15496   3.020   2.012   6.433  1.5983 -0.5630  1.0343
  142SAPS  H11B15497   2.997   2.112   6.590 -1.1838  3.9848 -0.7284
  142SAPS     P15498   3.046   2.291   6.364 -0.3593 -0.0159 -0.4016
  142SAPS   O1315499   3.001   2.403   6.287  1.0505 -0.2182  0.1586
  142SAPS   O1415500   3.139   2.336   6.475  0.7629  0.2735  0.2604
  142SAPS   O1215501   2.932   2.201   6.421  0.2009  0.1598 -0.5676
  142SAPS   O1115502   3.126   2.194   6.268  0.2273  0.1753 -0.5765
  142SAPS    C115503   3.054   2.090   6.196  0.3180 -0.2496 -0.2791
  142SAPS    HA15504   3.093   1.992   6.232  0.7565  0.2266  0.5971
  142SAPS    HB15505   2.946   2.088   6.217  0.4391 -2.0998  0.3423
  142SAPS    C215506   3.074   2.109   6.043  0.9368 -0.3831 -0.1607
  142SAPS    HS15507   3.009   2.031   5.996  1.7524 -0.5470 -1.0393
  142SAPS   O2115508   3.212   2.100   6.016 -0.4269 -0.5189  0.5081
  142SAPS   C2115509   3.253   2.011   5.924  0.1658  0.3323  1.2976
  142SAPS   O2215510   3.172   1.948   5.857  0.3582 -0.6892  0.1153
  142SAPS   C2215511   3.399   2.009   5.916 -0.0510 -1.1718 -0.1923
  142SAPS   H2R15512   3.441   2.037   6.015  0.8159  1.9588 -1.3196
  142SAPS   H2S15513   3.439   1.906   5.906  1.6638 -0.5478 -0.0950
  142SAPS    C315514   3.019   2.250   5.990 -0.2169  0.0495  0.3679
  142SAPS    HX15515   3.066   2.339   6.039 -1.0270 -0.2952  1.8461
  142SAPS    HY15516   2.914   2.258   6.025 -0.6509 -1.3378 -0.5700
  142SAPS   O3115517   3.020   2.256   5.845 -0.1629  1.1029 -0.0631
  142SAPS   C3115518   3.123   2.316   5.797 -0.5617 -0.1837 -0.4924
  142SAPS   O3215519   3.219   2.348   5.860  0.3844  0.0878 -0.4288
  142SAPS   C3215520   3.104   2.329   5.645 -1.0198  0.5431  0.4187
  142SAPS   H2X15521   3.002   2.361   5.616 -0.7260 -0.4170 -1.9042
  142SAPS   H2Y15522   3.129   2.230   5.600 -0.1370  0.4200  1.1603
  142SAPS   C2315523   3.457   2.095   5.804 -0.6573  0.3202 -0.1024
  142SAPS   H3R15524   3.562   2.086   5.838 -1.9494 -0.4382  4.4717
  142SAPS   H3S15525   3.448   2.206   5.810  0.5908  0.3856  1.3906
  142SAPS   C2415526   3.444   2.030   5.665 -0.2722  0.3214 -0.2180
  142SAPS   H4R15527   3.495   2.093   5.589 -0.8671  0.2228 -0.7146
  142SAPS   H4S15528   3.333   2.039   5.655 -0.2512  1.7451  0.6522
  142SAPS   C2515529   3.487   1.887   5.641  0.4800 -0.2931 -0.3587
  142SAPS   H5R15530   3.567   1.850   5.705  1.5654  1.5164 -0.5897
  142SAPS   C2615531   3.427   1.810   5.551 -0.3630  0.5997 -0.1526
  142SAPS   H6R15532   3.466   1.708   5.540  1.3457  0.9593  1.9748
  142SAPS   C2715533   3.317   1.862   5.456 -0.4561 -0.1703 -0.1059
  142SAPS   H7R15534   3.339   1.821   5.355 -0.7685  1.0031 -0.6725
  142SAPS   H7S15535   3.319   1.971   5.438 -0.8144 -0.2925 -0.9158
  142SAPS   C2815536   3.175   1.830   5.499  0.0774 -0.1439 -0.1801
  142SAPS   H8R15537   3.178   1.819   5.609  0.1834  0.9705 -0.0573
  142SAPS   C2915538   3.057   1.827   5.430 -0.0009  0.3437 -0.6258
  142SAPS   H9R15539   2.967   1.817   5.492  0.2694 -1.1643 -0.4454
  142SAPS  C21015540   3.033   1.862   5.287  0.1829  0.0480 -0.3307
  142SAPS  H10R15541   2.980   1.773   5.246  1.4924  0.6496 -3.6875
  142SAPS  H10S15542   3.134   1.878   5.242  1.4388 -0.2416  2.1850
  142SAPS  C21115543   2.956   1.995   5.261 -0.5714  0.0667  0.0121
  142SAPS  H11R15544   2.958   2.070   5.341  0.6029  3.0620 -2.5835
  142SAPS  C21215545   2.899   2.039   5.147 -0.2973  0.0576  0.6480
  142SAPS  H12R15546   2.855   2.140   5.141 -0.0667  0.1231 -0.0320
  142SAPS  C21315547   2.887   1.957   5.020 -0.9379  0.4213  1.3372
  142SAPS  H13R15548   2.891   1.849   5.047  1.4434  0.3138  0.7479
  142SAPS  H13S15549   2.981   1.982   4.967 -1.2021  0.8134  1.0480
  142SAPS  C21415550   2.770   1.983   4.932 -0.3001 -1.0131  0.2373
  142SAPS  H14R15551   2.688   1.912   4.953 -1.4986  0.7581  1.9896
  142SAPS  C21515552   2.761   2.072   4.837  0.6813 -0.5391  0.9060
  142SAPS  H15R15553   2.681   2.065   4.761 -0.3312  2.9881  1.4450
  142SAPS  C21615554   2.869   2.166   4.792 -0.1788  0.8129 -0.1627
  142SAPS  H16R15555   2.964   2.110   4.790 -2.2448 -3.0905  1.2427
  142SAPS  H16S15556   2.883   2.242   4.872  1.2066 -0.9647  1.3743
  142SAPS  C21715557   2.843   2.226   4.654  0.0109 -0.4891 -0.2146
  142SAPS  H17R15558   2.834   2.149   4.575 -0.4332  1.7462 -2.4850
  142SAPS  H17S15559   2.941   2.259   4.612 -0.3143 -1.6284 -1.9477
  142SAPS  C21815560   2.721   2.319   4.634  0.2716 -0.3343 -0.0155
  142SAPS  H18R15561   2.760   2.422   4.653 -0.1048 -0.0228 -0.8969
  142SAPS  H18S15562   2.649   2.284   4.711  1.2408 -0.6903  0.7620
  142SAPS  C21915563   2.664   2.323   4.489  1.3053 -0.2302  0.2500
  142SAPS  H19R15564   2.588   2.242   4.481  1.1431 -0.0868  0.3227
  142SAPS  H19S15565   2.750   2.295   4.426  1.0300  1.5718 -1.0025
  142SAPS  C22015566   2.597   2.454   4.449  0.1418 -0.9501  0.5774
  142SAPS  H20R15567   2.513   2.483   4.515 -0.4894 -1.7640  0.1377
  142SAPS  H20S15568   2.561   2.443   4.345  2.2101 -1.9943 -0.0826
  142SAPS  H20T15569   2.675   2.533   4.440  0.9309 -1.8030 -0.3111
  142SAPS   C3315570   3.215   2.419   5.581  0.5099 -0.2596 -0.1094
  142SAPS   H3X15571   3.314   2.379   5.614  1.7163  0.6878 -2.3817
  142SAPS   H3Y15572   3.209   2.525   5.615 -1.0055 -0.4856  0.3761
  142SAPS   C3415573   3.208   2.443   5.424 -0.0696  0.1575  0.5077
  142SAPS   H4X15574   3.305   2.486   5.390  0.5966 -1.1977  0.6519
  142SAPS   H4Y15575   3.116   2.505   5.417  0.1968  0.6406  1.2051
  142SAPS   C3515576   3.206   2.308   5.349  0.0449  0.3263  0.1680
  142SAPS   H5X15577   3.104   2.264   5.352  0.1154  0.2221  2.0594
  142SAPS   H5Y15578   3.274   2.237   5.401 -1.3668 -0.1660  1.4262
  142SAPS   C3615579   3.228   2.329   5.198 -0.6320 -0.1846  0.1639
  142SAPS   H6X15580   3.323   2.384   5.179  0.2771 -1.9174 -0.6466
  142SAPS   H6Y15581   3.142   2.385   5.155  0.4618  1.2503 -0.2277
  142SAPS   C3715582   3.245   2.192   5.131 -0.9832 -0.1996  0.3181
  142SAPS   H7X15583   3.151   2.132   5.126 -0.7283 -0.7078  1.4110
  142SAPS   H7Y15584   3.322   2.135   5.186 -0.1733  1.1142  0.5718
  142SAPS   C3815585   3.296   2.203   4.981 -0.5070  0.2541 -0.3917
  142SAPS   H8X15586   3.270   2.108   4.930  2.2929 -0.6463 -0.3101
  142SAPS   H8Y15587   3.407   2.211   4.984 -0.6336  2.9946  0.5604
  142SAPS   C3915588   3.248   2.318   4.892  0.1651  0.5008 -0.8991
  142SAPS   H9X15589   3.291   2.415   4.923 -2.3052  2.2064 -2.3961
  142SAPS   H9Y15590   3.143   2.347   4.915  0.6057  0.3834  1.4878
  142SAPS  C31015591   3.276   2.309   4.741 -0.2830  0.2938 -0.3065
  142SAPS  H10X15592   3.237   2.399   4.687  2.7332  0.7693 -1.9125
  142SAPS  H10Y15593   3.222   2.220   4.702 -0.4641  0.4580 -0.4331
  142SAPS  C31115594   3.429   2.303   4.704 -0.1296  0.0011  0.0909
  142SAPS  H11X15595   3.474   2.212   4.749 -1.5079  0.1507  1.8781
  142SAPS  H11Y15596   3.490   2.389   4.740 -0.1237 -0.6645  1.7980
  142SAPS  C31215597   3.454   2.286   4.558  0.3640  0.2949  0.1324
  142SAPS  H12X15598   3.401   2.194   4.528  3.1324 -1.1929 -0.5105
  142SAPS  H12Y15599   3.564   2.277   4.546  0.5264  2.8523 -1.0981
  142SAPS  C31315600   3.413   2.398   4.459  0.6012  0.2327 -0.1750
  142SAPS  H13X15601   3.485   2.483   4.460 -0.7817  1.4609  0.9636
  142SAPS  H13Y15602   3.310   2.436   4.480 -0.0686 -0.8579 -1.3490
  142SAPS  C31415603   3.411   2.348   4.311 -0.0004 -0.4892 -0.1593
  142SAPS  H14X15604   3.471   2.255   4.309  0.5110 -0.1867  0.7042
  142SAPS  H14Y15605   3.451   2.428   4.246 -1.9059  0.9693  0.3736
  142SAPS  C31515606   3.271   2.320   4.251 -0.6793  0.4298 -0.2563
  142SAPS  H15X15607   3.209   2.265   4.325 -0.9743  2.7650  1.3274
  142SAPS  H15Y15608   3.280   2.249   4.166  1.5781  1.5579 -1.0339
  142SAPS  C31615609   3.202   2.441   4.197 -0.2658 -0.7938  0.1091
  142SAPS  H16X15610   3.266   2.469   4.110  0.5447 -1.5079  0.4576
  142SAPS  H16Y15611   3.196   2.522   4.273 -1.5070  1.1289 -1.9434
  142SAPS  C31715612   3.070   2.414   4.121  0.2310  0.4074 -0.2633
  142SAPS  H17X15613   3.085   2.342   4.038  1.2561  0.0143  0.2502
  142SAPS  H17Y15614   3.033   2.508   4.074 -2.5104 -0.5470 -0.1930
  142SAPS  C31815615   2.952   2.361   4.212 -0.3771 -0.1430  0.2138
  142SAPS  H18X15616   2.991   2.281   4.277  1.9730  0.9790  0.2801
  142SAPS  H18Y15617   2.874   2.323   4.141  3.1092 -0.9966 -3.5469
  142SAPS  H18Z15618   2.906   2.436   4.279 -1.1355 -1.0195  0.6941
  143SAPS     N15619   3.290   5.044   6.470  0.0307  0.1047 -0.3745
  143SAPS   HN115620   3.223   4.971   6.502 -1.9406  0.8372 -2.4901
  143SAPS   HN215621   3.290   5.044   6.366  0.0294 -1.7987 -0.4091
  143SAPS   HN315622   3.376   5.011   6.518 -1.6862  0.7450  3.5811
  143SAPS   C1215623   3.251   5.172   6.532  0.6287 -0.3705  0.9554
  143SAPS  H12A15624   3.152   5.202   6.499  0.6621 -0.9588  0.2820
  143SAPS   C1315625   3.248   5.165   6.684 -0.5279  0.1215  0.8241
  143SAPS  O13A15626   3.295   5.063   6.740 -0.1228  0.4541  0.1573
  143SAPS  O13B15627   3.225   5.273   6.757 -0.1199 -0.2225  0.2998
  143SAPS   C1115628   3.340   5.293   6.479  0.0950  0.4804 -0.7512
  143SAPS  H11A15629   3.446   5.278   6.507  0.0162  0.9224 -0.1939
  143SAPS  H11B15630   3.306   5.389   6.524  2.1163  0.6697  0.4698
  143SAPS     P15631   3.422   5.398   6.249  0.5653  0.0827  0.1271
  143SAPS   O1315632   3.562   5.363   6.278  0.3036 -0.2177  0.1080
  143SAPS   O1415633   3.384   5.384   6.109  0.4427  0.2066 -0.3486
  143SAPS   O1215634   3.333   5.305   6.337 -0.2833 -0.1991 -0.0747
  143SAPS   O1115635   3.380   5.539   6.314 -0.3381  0.1288 -0.1907
  143SAPS    C115636   3.261   5.607   6.298 -0.4872  0.7226  0.7039
  143SAPS    HA15637   3.251   5.680   6.381 -0.3440 -0.8044  2.1144
  143SAPS    HB15638   3.271   5.671   6.208 -0.1983 -0.9432 -0.4996
  143SAPS    C215639   3.136   5.521   6.300  0.8305  0.8606 -0.3660
  143SAPS    HS15640   3.153   5.452   6.386 -0.7012  0.6468 -0.1950
  143SAPS   O2115641   3.124   5.444   6.177  0.4370  1.0640 -0.3952
  143SAPS   C2115642   3.064   5.322   6.195  0.5337 -0.4444 -0.1213
  143SAPS   O2215643   3.000   5.288   6.295 -0.2212  0.3270 -0.0091
  143SAPS   C2215644   3.080   5.232   6.083  0.1997  0.1793  0.5127
  143SAPS   H2R15645   3.179   5.242   6.034  0.6792 -2.0874  0.8976
  143SAPS   H2S15646   3.069   5.128   6.119 -1.2070  0.1493  0.0794
  143SAPS    C315647   3.005   5.597   6.328  0.0937  0.8445 -0.9689
  143SAPS    HX15648   3.014   5.658   6.420 -2.1434 -2.0348  1.3826
  143SAPS    HY15649   2.919   5.529   6.347 -0.7611  1.8170 -1.2734
  143SAPS   O3115650   2.971   5.678   6.215  0.1353 -0.8981  0.3133
  143SAPS   C3115651   2.861   5.657   6.142  0.4611 -0.0944 -0.0771
  143SAPS   O3215652   2.769   5.583   6.168 -0.0107 -0.1574  0.0061
  143SAPS   C3215653   2.877   5.748   6.017  0.4473 -0.1835 -0.2527
  143SAPS   H2X15654   2.981   5.739   5.980  0.7275  2.1944 -0.2477
  143SAPS   H2Y15655   2.870   5.849   6.065 -1.9003 -0.2418 -0.3333
  143SAPS   C2315656   2.984   5.274   5.970  0.3475 -0.1196  1.2121
  143SAPS   H3R15657   2.987   5.384   5.953 -0.4573 -0.3009 -0.2186
  143SAPS   H3S15658   2.888   5.241   6.014  0.7532 -2.5688  0.4212
  143SAPS   C2415659   3.009   5.195   5.840  0.0545  0.2066  0.2497
  143SAPS   H4R15660   3.006   5.086   5.860 -2.3498 -0.0812 -1.2302
  143SAPS   H4S15661   3.106   5.233   5.803  0.4054 -0.5657  0.3533
  143SAPS   C2515662   2.910   5.222   5.735  0.1678  0.3316 -0.3225
  143SAPS   H5R15663   2.807   5.214   5.772  0.0480  0.0216 -0.7152
  143SAPS   C2615664   2.936   5.271   5.611 -0.9220 -0.0734 -0.2154
  143SAPS   H6R15665   2.848   5.289   5.547  0.0291 -0.1221 -1.5870
  143SAPS   C2715666   3.067   5.306   5.545 -0.4139 -1.0253  0.1415
  143SAPS   H7R15667   3.058   5.294   5.435  0.2903 -1.0842  0.0854
  143SAPS   H7S15668   3.142   5.232   5.579  0.5534 -0.5159 -0.8104
  143SAPS   C2815669   3.123   5.446   5.574 -0.1650  0.5449  0.0951
  143SAPS   H8R15670   3.131   5.473   5.680  1.1401  3.3665 -0.6456
  143SAPS   C2915671   3.186   5.522   5.483 -0.4908 -0.0358  0.5165
  143SAPS   H9R15672   3.212   5.624   5.517 -0.4677 -0.3297  1.4076
  143SAPS  C21015673   3.225   5.495   5.343 -0.0806  0.3610  0.1177
  143SAPS  H10R15674   3.259   5.389   5.348 -1.9400 -0.3114 -0.3641
  143SAPS  H10S15675   3.318   5.547   5.312  0.7263 -0.7439  0.6444
  143SAPS  C21115676   3.125   5.516   5.235 -0.7379 -0.2074  0.9073
  143SAPS  H11R15677   3.018   5.513   5.262 -0.7595 -2.5345  0.7786
  143SAPS  C21215678   3.150   5.517   5.102 -0.1069  0.3652  0.3632
  143SAPS  H12R15679   3.060   5.534   5.041  0.5470  1.1611 -0.3935
  143SAPS  C21315680   3.280   5.483   5.036 -0.2480  0.2066  0.5212
  143SAPS  H13R15681   3.309   5.376   5.041 -0.1152  0.2856  1.6427
  143SAPS  H13S15682   3.367   5.532   5.086 -0.2688  2.6173 -1.5708
  143SAPS  C21415683   3.271   5.541   4.895  0.1331  0.5881 -0.0743
  143SAPS  H14R15684   3.298   5.647   4.883 -0.4747  0.7022 -0.5453
  143SAPS  C21515685   3.243   5.481   4.781 -0.4333 -0.0164  0.0013
  143SAPS  H15R15686   3.235   5.545   4.691 -0.8543 -0.9405 -0.6349
  143SAPS  C21615687   3.193   5.344   4.767 -0.1644  0.3565 -0.1388
  143SAPS  H16R15688   3.211   5.288   4.861  1.0893  0.5375 -0.2608
  143SAPS  H16S15689   3.255   5.285   4.696  2.0713 -1.2274  2.9382
  143SAPS  C21715690   3.045   5.326   4.744  0.0442  0.4548  0.2043
  143SAPS  H17R15691   2.981   5.385   4.813 -1.5063  0.5760 -1.2788
  143SAPS  H17S15692   3.023   5.217   4.756  0.4011  0.0835 -2.0023
  143SAPS  C21815693   3.005   5.358   4.598 -0.2634  0.6948 -0.2445
  143SAPS  H18R15694   3.055   5.453   4.569  1.2136  0.5325  1.5409
  143SAPS  H18S15695   2.895   5.370   4.610 -0.3642 -0.5200  0.2068
  143SAPS  C21915696   3.032   5.240   4.496  0.9228 -0.0830  0.2936
  143SAPS  H19R15697   3.005   5.144   4.546  0.2238  0.6204  1.3058
  143SAPS  H19S15698   3.138   5.226   4.467 -0.4576 -3.9074 -4.1212
  143SAPS  C22015699   2.961   5.262   4.370 -0.1693 -0.3274 -0.1835
  143SAPS  H20R15700   2.855   5.244   4.397 -0.0645 -1.7635 -0.6212
  143SAPS  H20S15701   2.989   5.191   4.289  1.1749  1.2150 -1.1273
  143SAPS  H20T15702   2.976   5.364   4.329  0.5063 -1.3326 -2.6291
  143SAPS   C3315703   2.774   5.736   5.900  0.6874 -0.3853  0.7029
  143SAPS   H3X15704   2.796   5.822   5.833  1.0643 -0.8781  0.1801
  143SAPS   H3Y15705   2.672   5.762   5.935  1.4411  0.5447  2.2952
  143SAPS   C3415706   2.782   5.607   5.816  0.4113  0.5888  0.1919
  143SAPS   H4X15707   2.737   5.525   5.876 -0.5039  1.7867  1.1957
  143SAPS   H4Y15708   2.888   5.578   5.800  0.0284 -0.1358 -1.0782
  143SAPS   C3515709   2.705   5.607   5.684  0.0909  0.7613  0.9584
  143SAPS   H5X15710   2.604   5.652   5.688  1.5773  4.3220  2.5054
  143SAPS   H5Y15711   2.684   5.503   5.652  0.8297  1.2052 -1.1137
  143SAPS   C3615712   2.770   5.698   5.575  0.1296  0.4607 -0.2725
  143SAPS   H6X15713   2.874   5.662   5.556  1.5497  2.5564  2.7091
  143SAPS   H6Y15714   2.778   5.803   5.609  0.2326 -0.0534  1.4119
  143SAPS   C3715715   2.677   5.702   5.453  0.0732  0.0305  0.6213
  143SAPS   H7X15716   2.596   5.777   5.463  0.6320  0.6387  0.6756
  143SAPS   H7Y15717   2.645   5.597   5.440  0.0512  0.1233 -0.1424
  143SAPS   C3815718   2.761   5.754   5.331 -0.1731  0.5163  0.6813
  143SAPS   H8X15719   2.859   5.702   5.326  0.1748  1.2088  0.2660
  143SAPS   H8Y15720   2.789   5.860   5.347  0.7315  0.4432 -0.3141
  143SAPS   C3915721   2.673   5.751   5.201 -0.3364 -0.2354  0.6801
  143SAPS   H9X15722   2.584   5.817   5.204 -1.0855 -1.1633 -0.2563
  143SAPS   H9Y15723   2.633   5.648   5.200  0.9534 -0.7737  1.6994
  143SAPS  C31015724   2.758   5.769   5.078 -0.4086 -0.1525 -0.0222
  143SAPS  H10X15725   2.852   5.709   5.083 -0.5555 -0.6082 -1.8978
  143SAPS  H10Y15726   2.782   5.878   5.068  0.3396 -0.1611  1.3885
  143SAPS  C31115727   2.694   5.716   4.951 -0.2120 -0.3535 -0.0478
  143SAPS  H11X15728   2.592   5.760   4.941 -0.9957 -2.2189 -0.8264
  143SAPS  H11Y15729   2.665   5.609   4.961  0.3101 -0.4341  0.6733
  143SAPS  C31215730   2.787   5.735   4.836 -0.4937 -0.3801 -0.5227
  143SAPS  H12X15731   2.884   5.681   4.840  0.3122  1.0682  0.1211
  143SAPS  H12Y15732   2.809   5.842   4.820 -0.2704 -0.2730  0.4479
  143SAPS  C31315733   2.725   5.684   4.696  0.3066  0.3393 -0.0554
  143SAPS  H13X15734   2.634   5.746   4.675  0.6678  0.5873 -0.9299
  143SAPS  H13Y15735   2.690   5.579   4.704 -0.1212  0.5893  2.1395
  143SAPS  C31415736   2.816   5.712   4.579 -0.1641  0.3106  0.1675
  143SAPS  H14X15737   2.909   5.655   4.602  1.5159  2.8642  0.2323
  143SAPS  H14Y15738   2.843   5.820   4.577 -3.2967  1.3144  2.7022
  143SAPS  C31515739   2.751   5.682   4.443 -0.5323  0.5873 -0.2246
  143SAPS  H15X15740   2.670   5.758   4.436 -0.3269  0.7994 -0.3222
  143SAPS  H15Y15741   2.702   5.582   4.447  0.6500 -0.1924 -2.8848
  143SAPS  C31615742   2.844   5.696   4.325 -0.0284  0.5601  0.3057
  143SAPS  H16X15743   2.801   5.653   4.232  1.5408 -2.7499  0.9460
  143SAPS  H16Y15744   2.931   5.630   4.347  0.3977  0.9426 -0.2046
  143SAPS  C31715745   2.889   5.842   4.296 -0.1266  0.0028  0.4432
  143SAPS  H17X15746   2.926   5.879   4.393 -0.3818 -2.8875  1.7581
  143SAPS  H17Y15747   2.799   5.905   4.279 -0.9032 -1.3747 -0.9095
  143SAPS  C31815748   2.996   5.857   4.185 -0.2708 -0.3550 -0.4332
  143SAPS  H18X15749   2.968   5.805   4.091 -1.9512 -0.8069  0.2866
  143SAPS  H18Y15750   3.094   5.811   4.208  0.3927  0.5596 -1.3530
  143SAPS  H18Z15751   3.013   5.966   4.168  1.0821 -0.5271 -0.2936
  144SAPS     N15752   3.920   0.130   6.369  0.5243  0.2206  0.1666
  144SAPS   HN115753   3.978   0.203   6.415  2.1443 -1.7516  1.4929
  144SAPS   HN215754   3.940   0.038   6.414 -1.3949 -0.4277 -0.2351
  144SAPS   HN315755   3.940   0.129   6.266 -0.7342  0.9037 -0.0925
  144SAPS   C1215756   3.781   0.153   6.402  0.1909  0.0922  0.1290
  144SAPS  H12A15757   3.720   0.124   6.318  0.3217 -0.2248  0.1434
  144SAPS   C1315758   3.730   0.065   6.516  0.3740 -0.1744 -0.0620
  144SAPS  O13A15759   3.800  -0.026   6.560 -0.1585 -0.5210 -0.0788
  144SAPS  O13B15760   3.612   0.084   6.558 -0.3077 -0.1611  0.4809
  144SAPS   C1115761   3.757   0.305   6.423  0.5558  0.3519 -0.4180
  144SAPS  H11A15762   3.826   0.346   6.500  1.1779  0.4799 -1.0439
  144SAPS  H11B15763   3.656   0.323   6.467  1.0998 -0.2799  1.1910
  144SAPS     P15764   3.635   0.380   6.213 -0.5522  0.4562  0.2182
  144SAPS   O1315765   3.579   0.244   6.202 -0.4039 -0.2463 -0.0160
  144SAPS   O1415766   3.541   0.482   6.260  0.4658  0.0619 -0.5919
  144SAPS   O1215767   3.767   0.388   6.299  0.2057 -0.1120 -0.0691
  144SAPS   O1115768   3.706   0.417   6.073  0.5013  0.2255  0.0175
  144SAPS    C115769   3.823   0.350   6.042  0.4366 -0.0283  1.2541
  144SAPS    HA15770   3.909   0.407   6.084 -0.4418  0.9300  1.8006
  144SAPS    HB15771   3.826   0.243   6.072 -1.5109 -0.3946  0.2861
  144SAPS    C215772   3.832   0.336   5.880  0.6212 -0.6158 -0.2224
  144SAPS    HS15773   3.925   0.285   5.849  0.2760 -1.7290  0.5185
  144SAPS   O2115774   3.822   0.457   5.814  0.3722  0.1295  0.7356
  144SAPS   C2115775   3.914   0.548   5.846 -0.3736  0.3708 -0.2041
  144SAPS   O2215776   4.010   0.529   5.913  0.0606  0.1707  0.2080
  144SAPS   C2215777   3.861   0.679   5.778  0.1230 -0.1910 -0.0478
  144SAPS   H2R15778   3.838   0.655   5.672 -1.2090  1.2412 -0.1267
  144SAPS   H2S15779   3.765   0.702   5.830 -0.2911 -0.1625 -0.8200
  144SAPS    C315780   3.718   0.240   5.833  0.3539  0.6276  0.5541
  144SAPS    HX15781   3.620   0.262   5.879 -1.1014 -1.4725 -1.2852
  144SAPS    HY15782   3.744   0.134   5.855  0.7554  0.3675 -0.9808
  144SAPS   O3115783   3.705   0.256   5.693 -1.0598  0.1537  0.8369
  144SAPS   C3115784   3.611   0.334   5.647  0.2684 -0.0693 -0.3162
  144SAPS   O3215785   3.526   0.397   5.707  0.0751  0.3786  0.4193
  144SAPS   C3215786   3.632   0.346   5.497  0.0536  0.6570  0.1648
  144SAPS   H2X15787   3.627   0.245   5.450  2.1810  0.1733  0.8778
  144SAPS   H2Y15788   3.727   0.403   5.488 -0.0607  0.7254 -0.7002
  144SAPS   C2315789   3.966   0.781   5.805  0.5922  0.2716  0.3266
  144SAPS   H3R15790   4.017   0.775   5.903 -0.8990  2.4876  1.3193
  144SAPS   H3S15791   3.920   0.881   5.788  0.3404 -0.1596 -1.8854
  144SAPS   C2415792   4.060   0.790   5.683  0.6439 -0.1892  0.6340
  144SAPS   H4R15793   4.002   0.808   5.589  1.2258 -0.4242  0.2224
  144SAPS   H4S15794   4.111   0.695   5.654  1.2490  1.0374 -2.8305
  144SAPS   C2515795   4.159   0.896   5.714  0.0529  0.3114  0.6510
  144SAPS   H5R15796   4.221   0.880   5.804  1.4383 -0.2090 -0.3676
  144SAPS   C2615797   4.181   1.009   5.640 -0.3644  0.4849 -0.7540
  144SAPS   H6R15798   4.255   1.086   5.667 -0.0777 -0.3356  0.9382
  144SAPS   C2715799   4.108   1.036   5.513  0.2503  0.5580  0.5675
  144SAPS   H7R15800   3.999   1.030   5.534 -0.7406  0.6892 -3.5963
  144SAPS   H7S15801   4.123   0.958   5.435 -0.0460  0.7069  0.3598
  144SAPS   C2815802   4.148   1.171   5.453 -0.2164  0.0527 -0.1880
  144SAPS   H8R15803   4.194   1.240   5.525 -0.2436  0.8572 -0.9132
  144SAPS   C2915804   4.147   1.201   5.318  0.2299  0.1886  0.2548
  144SAPS   H9R15805   4.180   1.300   5.281  1.5214 -0.2091  0.3232
  144SAPS  C21015806   4.101   1.113   5.208 -0.1626  0.4612  0.5875
  144SAPS  H10R15807   4.012   1.055   5.241 -0.4168  2.1037  3.0681
  144SAPS  H10S15808   4.180   1.038   5.189  0.3360  0.7996  1.2644
  144SAPS  C21115809   4.086   1.183   5.078  0.5824 -0.4228  0.6623
  144SAPS  H11R15810   4.145   1.276   5.065  0.8681 -0.7041 -0.1433
  144SAPS  C21215811   4.022   1.136   4.970  0.0549 -0.8793 -0.0639
  144SAPS  H12R15812   4.017   1.194   4.877  0.1554 -4.6538 -2.6114
  144SAPS  C21315813   3.970   0.989   4.971 -0.8653 -0.2164 -0.0929
  144SAPS  H13R15814   3.893   0.991   5.052 -1.3700  2.2884 -0.5533
  144SAPS  H13S15815   4.054   0.920   4.995 -1.0808 -0.5292 -0.2433
  144SAPS  C21415816   3.896   0.956   4.842  0.6795  0.0360 -0.1616
  144SAPS  H14R15817   3.786   0.951   4.845  0.6633 -0.6908 -1.4212
  144SAPS  C21515818   3.952   0.924   4.727  0.1463 -0.1591  0.1812
  144SAPS  H15R15819   3.884   0.889   4.649  0.6120 -1.8948  0.5131
  144SAPS  C21615820   4.108   0.913   4.712  0.5638  0.3241  0.4882
  144SAPS  H16R15821   4.141   0.807   4.720  1.7408  0.6414 -0.0715
  144SAPS  H16S15822   4.140   0.973   4.800 -1.1655 -0.6779  1.8819
  144SAPS  C21715823   4.161   0.964   4.573 -0.0606  0.5295 -0.2936
  144SAPS  H17R15824   4.270   0.985   4.581 -0.0012 -0.2857  1.6415
  144SAPS  H17S15825   4.104   1.057   4.555 -3.1045 -0.1907  4.0023
  144SAPS  C21815826   4.145   0.865   4.455  0.7740  0.0425 -0.4717
  144SAPS  H18R15827   4.043   0.834   4.485  0.6655  2.1837  1.7202
  144SAPS  H18S15828   4.230   0.793   4.462  0.2461 -0.6100 -0.7497
  144SAPS  C21915829   4.143   0.932   4.321 -0.1520  0.3290 -0.3675
  144SAPS  H19R15830   4.251   0.947   4.300  0.8322 -3.6963  1.0205
  144SAPS  H19S15831   4.091   1.029   4.337  0.7594  0.8119 -0.2431
  144SAPS  C22015832   4.087   0.842   4.211  0.1500  0.4026  0.6484
  144SAPS  H20R15833   4.124   0.866   4.109 -1.1492 -2.5777 -0.6348
  144SAPS  H20S15834   3.976   0.845   4.202  0.0806 -1.6249  0.4104
  144SAPS  H20T15835   4.128   0.739   4.219 -0.2905  0.0635 -1.0272
  144SAPS   C3315836   3.516   0.432   5.434 -0.1010  0.4907 -0.5155
  144SAPS   H3X15837   3.535   0.537   5.465 -0.9468  0.9492 -1.4845
  144SAPS   H3Y15838   3.414   0.397   5.463  0.2608 -2.5345 -2.4680
  144SAPS   C3415839   3.535   0.428   5.282 -0.7085 -0.1253 -0.2414
  144SAPS   H4X15840   3.540   0.327   5.236  0.5836  0.7278 -2.1275
  144SAPS   H4Y15841   3.639   0.466   5.269 -1.3260  1.3131 -1.1839
  144SAPS   C3515842   3.443   0.516   5.200  0.1526  0.5020  0.6932
  144SAPS   H5X15843   3.476   0.619   5.226 -1.8345  1.4250 -0.2199
  144SAPS   H5Y15844   3.337   0.500   5.228  0.0229 -0.1260 -0.1200
  144SAPS   C3615845   3.456   0.489   5.051  0.2516 -0.6315 -0.2052
  144SAPS   H6X15846   3.460   0.380   5.030 -2.1265 -0.5745 -1.4162
  144SAPS   H6Y15847   3.553   0.530   5.016 -1.1862  3.1923 -0.1744
  144SAPS   C3715848   3.339   0.553   4.969  0.3580 -0.1217  0.3313
  144SAPS   H7X15849   3.344   0.664   4.972 -0.6726 -0.0901  1.4137
  144SAPS   H7Y15850   3.245   0.528   5.021  0.1841 -1.8301 -0.7172
  144SAPS   C3815851   3.325   0.499   4.826  0.7879 -0.7423 -0.6479
  144SAPS   H8X15852   3.298   0.391   4.822  1.4938 -0.9945  0.6991
  144SAPS   H8Y15853   3.421   0.499   4.770 -0.4586  0.4943 -2.9190
  144SAPS   C3915854   3.218   0.579   4.750 -0.1934  0.1497  0.2931
  144SAPS   H9X15855   3.257   0.681   4.734  1.4237 -0.2076  1.6062
  144SAPS   H9Y15856   3.130   0.581   4.818 -1.2282 -0.5268 -0.9687
  144SAPS  C31015857   3.189   0.498   4.621  0.4252 -0.3864 -0.0699
  144SAPS  H10X15858   3.143   0.399   4.641 -2.5204  0.8655 -0.1268
  144SAPS  H10Y15859   3.285   0.474   4.569 -0.3458  1.6333 -2.6282
  144SAPS  C31115860   3.115   0.570   4.509 -0.3806  0.0373 -0.6507
  144SAPS  H11X15861   3.099   0.495   4.428  0.5621  0.5890 -1.3717
  144SAPS  H11Y15862   3.182   0.649   4.469  0.8622 -0.7208 -0.1569
  144SAPS  C31215863   2.978   0.626   4.548 -0.0113  0.3390 -0.5772
  144SAPS  H12X15864   2.995   0.692   4.636 -0.4231  0.7908 -0.8315
  144SAPS  H12Y15865   2.905   0.544   4.567  0.7746 -0.3806 -0.5601
  144SAPS  C31315866   2.921   0.710   4.433 -1.2098 -0.1628 -0.0513
  144SAPS  H13X15867   2.933   0.641   4.346  2.0236 -1.6192  1.3840
  144SAPS  H13Y15868   2.982   0.801   4.417  1.3704 -1.7278  0.2519
  144SAPS  C31415869   2.772   0.753   4.442  0.5118  0.1832 -0.3524
  144SAPS  H14X15870   2.748   0.819   4.529  0.8360  0.2829 -0.3344
  144SAPS  H14Y15871   2.701   0.668   4.447  0.1819  0.5138  1.1743
  144SAPS  C31515872   2.726   0.826   4.316 -0.7054 -0.6836  0.0928
  144SAPS  H15X15873   2.788   0.917   4.303 -0.3121 -0.6796  1.7684
  144SAPS  H15Y15874   2.621   0.856   4.339  0.1328  1.8870  0.9300
  144SAPS  C31615875   2.719   0.746   4.186  0.3283  0.7816 -0.2583
  144SAPS  H16X15876   2.653   0.656   4.191  0.0990  0.9991  1.2652
  144SAPS  H16Y15877   2.820   0.704   4.170  0.1516 -0.1478  0.9093
  144SAPS  C31715878   2.656   0.837   4.077  0.5535 -0.1168 -0.3511
  144SAPS  H17X15879   2.717   0.929   4.059 -1.6365  1.3253 -0.7827
  144SAPS  H17Y15880   2.554   0.867   4.107 -0.9797 -3.8510 -1.2987
  144SAPS  C31815881   2.649   0.758   3.950  0.6408 -0.4271 -0.0042
  144SAPS  H18X15882   2.752   0.719   3.938  1.1228 -0.1177  2.4901
  144SAPS  H18Y15883   2.625   0.825   3.865  0.5892 -1.0524 -0.4877
  144SAPS  H18Z15884   2.575   0.675   3.939 -1.1982  1.2342 -0.6630
  145SAPS     N15885   3.218   4.856   6.876  0.8734 -0.3301  0.5883
  145SAPS   HN115886   3.211   4.857   6.980 -0.1243  0.3069  0.5199
  145SAPS   HN215887   3.251   4.944   6.833  0.8692 -1.2990 -1.4926
  145SAPS   HN315888   3.122   4.851   6.837  0.7450 -4.3218  0.9439
  145SAPS   C1215889   3.280   4.732   6.820 -0.0188  0.1214  0.3537
  145SAPS  H12A15890   3.385   4.753   6.829  0.4750 -1.7037 -0.6068
  145SAPS   C1315891   3.251   4.599   6.903  0.0067 -0.7365  0.1991
  145SAPS  O13A15892   3.163   4.607   6.998  0.3122 -0.0669 -0.0400
  145SAPS  O13B15893   3.313   4.490   6.875 -0.5876  0.2028  0.5497
  145SAPS   C1115894   3.229   4.714   6.670 -0.0830 -0.4491 -0.3715
  145SAPS  H11A15895   3.276   4.627   6.620  0.3417 -1.2560  1.3314
  145SAPS  H11B15896   3.267   4.802   6.614 -1.9518  0.9294  0.4226
  145SAPS     P15897   2.996   4.810   6.617 -0.2380 -0.4642 -0.2043
  145SAPS   O1315898   2.876   4.753   6.552  0.2179 -0.8091  0.2500
  145SAPS   O1415899   2.980   4.897   6.734 -0.2127 -0.3007  0.0951
  145SAPS   O1215900   3.084   4.690   6.657 -0.4168 -0.4167 -0.0559
  145SAPS   O1115901   3.081   4.882   6.510  0.1507 -0.1569  0.4835
  145SAPS    C115902   3.030   4.890   6.377  0.2131  0.5775 -0.1960
  145SAPS    HA15903   2.922   4.915   6.373  0.4362  1.8750  1.0926
  145SAPS    HB15904   3.084   4.975   6.330 -0.4645  1.0048 -0.2233
  145SAPS    C215905   3.051   4.757   6.294  0.3812  0.5659 -0.4856
  145SAPS    HS15906   2.985   4.686   6.349  2.8567  0.5579  2.7263
  145SAPS   O2115907   3.188   4.722   6.299 -0.1993  0.5401  0.1560
  145SAPS   C2115908   3.206   4.591   6.314  0.8618 -0.0380  0.5850
  145SAPS   O2215909   3.125   4.503   6.296  0.4661 -0.2270 -0.4167
  145SAPS   C2215910   3.349   4.555   6.319 -0.3328  0.3015  0.1902
  145SAPS   H2R15911   3.407   4.649   6.335 -1.2069  0.7591  0.8041
  145SAPS   H2S15912   3.358   4.486   6.406 -1.0048 -2.0214 -1.4919
  145SAPS    C315913   3.009   4.760   6.143  0.4506 -0.2727 -1.3853
  145SAPS    HX15914   3.070   4.825   6.076 -2.2045 -0.5917 -4.3325
  145SAPS    HY15915   2.913   4.814   6.131  0.2809 -0.3305 -0.3782
  145SAPS   O3115916   3.002   4.630   6.084  0.2540  0.1846  0.2863
  145SAPS   C3115917   2.888   4.565   6.103 -0.2606 -0.2560  0.3792
  145SAPS   O3215918   2.802   4.601   6.182 -0.8850 -0.1312 -0.3775
  145SAPS   C3215919   2.894   4.444   6.011  0.1099 -0.8067 -0.1808
  145SAPS   H2X15920   2.891   4.361   6.085 -0.4745  0.2175  0.9749
  145SAPS   H2Y15921   2.994   4.446   5.963  1.1439  0.8144  1.8585
  145SAPS   C2315922   3.407   4.487   6.197  0.5553 -0.5306 -0.1605
  145SAPS   H3R15923   3.374   4.382   6.207 -1.8232  0.2857  1.2697
  145SAPS   H3S15924   3.518   4.488   6.204  0.5287 -1.0097  0.4753
  145SAPS   C2415925   3.362   4.537   6.063 -0.1922 -1.0078  0.7052
  145SAPS   H4R15926   3.253   4.547   6.043 -0.1326  3.2410  1.4338
  145SAPS   H4S15927   3.401   4.463   5.991 -2.3300 -1.8909  0.3963
  145SAPS   C2515928   3.417   4.674   6.033 -0.0270  0.4779  0.8472
  145SAPS   H5R15929   3.504   4.706   6.092  0.2032 -0.0977  0.8252
  145SAPS   C2615930   3.380   4.766   5.943  0.1884  0.1466 -0.0655
  145SAPS   H6R15931   3.436   4.861   5.946 -0.1837  0.3821 -0.4217
  145SAPS   C2715932   3.266   4.748   5.847  0.2462  0.0806 -0.4391
  145SAPS   H7R15933   3.189   4.676   5.884  0.1323  0.9482  1.0849
  145SAPS   H7S15934   3.304   4.701   5.754 -0.6505 -0.1650 -0.6923
  145SAPS   C2815935   3.194   4.868   5.797  0.3109 -0.1738  0.4832
  145SAPS   H8R15936   3.118   4.903   5.869 -2.4795 -0.4459 -2.1676
  145SAPS   C2915937   3.194   4.924   5.673 -0.4315 -0.4896 -0.2668
  145SAPS   H9R15938   3.138   5.018   5.661  1.2180  0.7647  1.2884
  145SAPS  C21015939   3.262   4.877   5.545  0.2772  0.1626 -0.5551
  145SAPS  H10R15940   3.182   4.821   5.493 -2.0198  2.1401  0.6920
  145SAPS  H10S15941   3.346   4.804   5.555  1.0785  0.9099 -1.5678
  145SAPS  C21115942   3.312   4.994   5.462  0.3211  0.1004 -0.3384
  145SAPS  H11R15943   3.399   5.045   5.506  0.1079 -0.3308  0.5919
  145SAPS  C21215944   3.259   5.040   5.350  0.0934 -0.3022  1.1954
  145SAPS  H12R15945   3.296   5.132   5.301  0.0039 -1.1463 -0.5525
  145SAPS  C21315946   3.136   4.983   5.274 -0.5144  0.1127  0.5236
  145SAPS  H13R15947   3.049   5.039   5.314  0.2240  0.9440  0.9901
  145SAPS  H13S15948   3.119   4.879   5.309 -2.3187  0.4512  0.7364
  145SAPS  C21415949   3.148   4.996   5.122 -0.2530  0.3357 -0.8175
  145SAPS  H14R15950   3.250   4.976   5.083 -0.2018  1.9556 -1.6145
  145SAPS  C21515951   3.054   5.038   5.030 -0.0658  0.2329 -0.0105
  145SAPS  H15R15952   3.078   5.030   4.923  0.2949 -2.9630  0.2071
  145SAPS  C21615953   2.912   5.082   5.069  0.1853 -0.8102  0.1497
  145SAPS  H16R15954   2.867   5.023   5.152 -2.2983 -0.6313 -0.9675
  145SAPS  H16S15955   2.851   5.059   4.979 -0.8267 -1.8533  1.0685
  145SAPS  C21715956   2.897   5.225   5.111  0.0159 -0.3013 -0.4928
  145SAPS  H17R15957   2.940   5.299   5.039 -1.2863  1.5844  0.5729
  145SAPS  H17S15958   2.955   5.251   5.202 -1.7552  1.7473  0.1485
  145SAPS  C21815959   2.753   5.256   5.142 -0.4084  0.6419 -0.0823
  145SAPS  H18R15960   2.680   5.257   5.058 -1.1782  1.5449  0.5818
  145SAPS  H18S15961   2.749   5.357   5.188 -1.0482  0.4866  0.2218
  145SAPS  C21915962   2.700   5.186   5.273 -0.5902  0.8207 -0.3245
  145SAPS  H19R15963   2.783   5.163   5.344 -0.1471 -0.3229 -1.1690
  145SAPS  H19S15964   2.656   5.091   5.238 -0.0962  1.9051 -4.3758
  145SAPS  C22015965   2.593   5.263   5.346  0.0967  0.0873  0.1156
  145SAPS  H20R15966   2.631   5.364   5.374  2.1897  0.3670 -3.1317
  145SAPS  H20S15967   2.559   5.224   5.444 -0.4848  1.2969  0.4214
  145SAPS  H20T15968   2.507   5.280   5.278 -1.2075 -0.2432  1.6433
  145SAPS   C3315969   2.781   4.436   5.917  0.0710  0.2652  0.1590
  145SAPS   H3X15970   2.686   4.450   5.974  0.2024 -0.8129  0.6681
  145SAPS   H3Y15971   2.778   4.342   5.859 -2.0402 -0.2885  1.0321
  145SAPS   C3415972   2.773   4.545   5.814 -0.3460  0.4360 -0.2585
  145SAPS   H4X15973   2.758   4.644   5.862  1.6931  0.7969 -0.2769
  145SAPS   H4Y15974   2.687   4.529   5.745  1.1306 -0.9070 -1.8837
  145SAPS   C3515975   2.902   4.551   5.726  0.2552  0.8113  0.2899
  145SAPS   H5X15976   2.954   4.453   5.732  1.1548  0.9951 -2.7587
  145SAPS   H5Y15977   2.965   4.634   5.763 -1.6730  1.6512  1.8867
  145SAPS   C3615978   2.862   4.556   5.578  0.1854 -0.0033  0.1156
  145SAPS   H6X15979   2.787   4.478   5.554  1.9307 -1.3916 -1.0988
  145SAPS   H6Y15980   2.950   4.518   5.522 -0.1526 -0.0054 -0.4296
  145SAPS   C3715981   2.824   4.693   5.517 -0.0208  0.7248 -0.7584
  145SAPS   H7X15982   2.906   4.758   5.555 -0.0780 -0.2683  1.1759
  145SAPS   H7Y15983   2.731   4.726   5.568 -0.1536 -0.4359 -0.2146
  145SAPS   C3815984   2.805   4.712   5.369 -0.2209 -0.3466  0.5002
  145SAPS   H8X15985   2.833   4.813   5.334 -0.0298 -0.6078 -0.1129
  145SAPS   H8Y15986   2.698   4.695   5.346 -0.1069  0.2807 -0.5212
  145SAPS   C3915987   2.898   4.627   5.275 -0.2523 -0.3803 -0.0806
  145SAPS   H9X15988   2.871   4.519   5.280 -1.0313 -0.2242 -0.6444
  145SAPS   H9Y15989   3.000   4.648   5.314 -0.7139  0.0998  0.9041
  145SAPS  C31015990   2.877   4.689   5.134 -0.2255  0.1855  0.3107
  145SAPS  H10X15991   2.870   4.799   5.127 -1.0888  0.0575 -4.2417
  145SAPS  H10Y15992   2.784   4.648   5.089 -1.4351  0.1003  2.7535
  145SAPS  C31115993   3.000   4.664   5.042 -0.1418 -0.7568 -0.5470
  145SAPS  H11X15994   3.041   4.570   5.086  0.6753  1.4003  3.8244
  145SAPS  H11Y15995   3.077   4.740   5.063 -2.2292  2.5767 -3.8284
  145SAPS  C31215996   2.967   4.679   4.894  0.7736  0.5275 -0.2639
  145SAPS  H12X15997   2.934   4.785   4.894 -1.0282  0.0335  2.1235
  145SAPS  H12Y15998   2.877   4.620   4.869  1.2312 -1.3744  2.2739
  145SAPS  C31315999   3.074   4.648   4.794 -0.3122 -0.2059 -0.8156
  145SAPS  H13X16000   3.097   4.539   4.804 -2.7733 -0.7271 -0.1600
  145SAPS  H13Y16001   3.168   4.696   4.828  0.7256 -2.8854  0.4246
  145SAPS  C31416002   3.050   4.690   4.641  0.4187 -0.0520  0.1381
  145SAPS  H14X16003   3.015   4.596   4.593  1.1089  0.2154 -0.9044
  145SAPS  H14Y16004   3.144   4.721   4.590  0.1849  2.1271  0.9262
  145SAPS  C31516005   2.957   4.813   4.620  0.1834 -0.6024 -0.4044
  145SAPS  H15X16006   2.998   4.902   4.673  0.4824 -0.0480 -1.5553
  145SAPS  H15Y16007   2.854   4.806   4.662 -0.4044 -0.8013 -1.8267
  145SAPS  C31616008   2.943   4.874   4.481  0.4281  0.0191  0.2657
  145SAPS  H16X16009   3.044   4.911   4.453 -0.2854 -0.3843 -3.3707
  145SAPS  H16Y16010   2.867   4.956   4.483  0.4312  0.0209  0.3163
  145SAPS  C31716011   2.898   4.779   4.366 -0.0440  0.0783  0.3028
  145SAPS  H17X16012   2.949   4.681   4.364 -1.3651 -0.6246 -2.2063
  145SAPS  H17Y16013   2.913   4.838   4.273 -2.8314 -1.5417 -1.3255
  145SAPS  C31816014   2.746   4.761   4.364  0.3763 -0.2520  0.5822
  145SAPS  H18X16015   2.710   4.721   4.460  0.9388  0.5055  1.1207
  145SAPS  H18Y16016   2.724   4.687   4.284  0.3343 -1.0335  1.3154
  145SAPS  H18Z16017   2.693   4.854   4.334 -0.5756 -1.1692 -0.6702
  146SAPS     N16018   5.243   0.678   6.845  0.3189  0.5714  0.4474
  146SAPS   HN116019   5.175   0.749   6.881  1.3790  1.5083  0.6539
  146SAPS   HN216020   5.330   0.690   6.900  1.6652 -0.9543 -1.2447
  146SAPS   HN316021   5.263   0.704   6.746  1.0541  0.1958  0.4909
  146SAPS   C1216022   5.190   0.539   6.855  0.0915 -0.5313 -0.5734
  146SAPS  H12A16023   5.259   0.486   6.790  0.9792  0.5588 -0.5343
  146SAPS   C1316024   5.195   0.481   6.998  0.5110 -0.3023 -0.0343
  146SAPS  O13A16025   5.251   0.542   7.098 -0.0468  0.6622  0.5599
  146SAPS  O13B16026   5.160   0.361   7.010 -0.4578  0.5472 -0.4434
  146SAPS   C1116027   5.045   0.519   6.798  0.1355  0.0383 -0.1878
  146SAPS  H11A16028   4.965   0.555   6.866  1.9964 -1.0446  2.7321
  146SAPS  H11B16029   5.036   0.410   6.777  3.8735 -0.4460  0.0812
  146SAPS     P16030   4.894   0.558   6.587  0.0994  0.0601 -0.0855
  146SAPS   O1316031   4.897   0.424   6.534  0.2644 -0.3165  0.4747
  146SAPS   O1416032   4.770   0.597   6.665 -0.8982  0.0246  0.5146
  146SAPS   O1216033   5.032   0.576   6.667  0.1822 -0.4441  0.1340
  146SAPS   O1116034   4.897   0.647   6.467  0.1088  0.3012  0.1965
  146SAPS    C116035   4.990   0.744   6.447  0.2986  0.0794 -0.2387
  146SAPS    HA16036   4.968   0.826   6.519 -0.5461 -1.2896  1.1200
  146SAPS    HB16037   5.095   0.715   6.470  0.6914  0.1514 -1.8106
  146SAPS    C216038   4.963   0.804   6.304 -0.0513  0.1427 -0.6632
  146SAPS    HS16039   4.860   0.845   6.310 -0.0378  0.0048  0.9082
  146SAPS   O2116040   4.974   0.695   6.210 -0.1405  0.3144 -0.0788
  146SAPS   C2116041   4.878   0.688   6.122  0.3790  0.4541  0.0953
  146SAPS   O2216042   4.782   0.767   6.109 -0.5599  0.5068  0.8663
  146SAPS   C2216043   4.910   0.563   6.044 -0.8319 -0.0536 -0.1631
  146SAPS   H2R16044   5.019   0.557   6.024 -0.9138  0.6312 -0.9100
  146SAPS   H2S16045   4.877   0.478   6.107  2.7841 -1.8847 -0.4674
  146SAPS    C316046   5.068   0.911   6.253  0.5220  0.2120  0.1602
  146SAPS    HX16047   5.163   0.858   6.231 -1.4196 -2.2485 -3.3024
  146SAPS    HY16048   5.081   0.991   6.329 -1.7628  1.3494 -0.5567
  146SAPS   O3116049   5.033   0.966   6.130  0.5319 -0.3504  0.0150
  146SAPS   C3116050   4.946   1.065   6.123  0.3169 -0.4723  0.2965
  146SAPS   O3216051   4.878   1.112   6.209 -0.2173 -0.3202 -0.3063
  146SAPS   C3216052   4.931   1.111   5.974  0.4390 -0.5150  0.3296
  146SAPS   H2X16053   4.870   1.047   5.906 -0.2695  2.7187 -2.3652
  146SAPS   H2Y16054   5.035   1.119   5.936 -0.2969 -2.2957 -2.2858
  146SAPS   C2316055   4.840   0.550   5.906 -0.4158 -0.5698 -0.3919
  146SAPS   H3R16056   4.735   0.515   5.912 -0.2206 -1.0874  0.1589
  146SAPS   H3S16057   4.879   0.455   5.864 -0.2374 -0.5470 -0.2791
  146SAPS   C2416058   4.851   0.674   5.819  0.4370  0.5231 -0.3901
  146SAPS   H4R16059   4.796   0.758   5.868 -1.9138 -1.6847  1.0272
  146SAPS   H4S16060   4.785   0.655   5.732  0.9928  1.1494 -0.9607
  146SAPS   C2516061   4.987   0.723   5.773  0.2924  0.2716  0.0213
  146SAPS   H5R16062   5.063   0.745   5.849  1.1647 -1.6329 -0.2465
  146SAPS   C2616063   5.012   0.756   5.643 -0.4061  0.1209  0.1234
  146SAPS   H6R16064   5.112   0.793   5.615 -0.9715  0.9713 -0.8747
  146SAPS   C2716065   4.920   0.750   5.516  0.3159  0.1959  0.1026
  146SAPS   H7R16066   4.909   0.847   5.463 -0.2135 -0.1780 -0.4914
  146SAPS   H7S16067   4.816   0.726   5.548  1.3680 -0.6746  3.2799
  146SAPS   C2816068   4.980   0.646   5.421  0.0855  0.2226  0.3198
  146SAPS   H8R16069   5.027   0.558   5.468 -0.0797 -1.0702 -1.8303
  146SAPS   C2916070   4.960   0.654   5.287 -0.6934  0.6738 -0.0698
  146SAPS   H9R16071   4.987   0.561   5.235  0.0669 -0.1673  1.7564
  146SAPS  C21016072   4.872   0.752   5.206  0.5366  0.8267 -0.1014
  146SAPS  H10R16073   4.917   0.854   5.208  0.8588  0.7042 -0.9005
  146SAPS  H10S16074   4.771   0.760   5.253 -0.2185  0.4541 -1.6077
  146SAPS  C21116075   4.843   0.699   5.074  0.2693  0.3179  0.1318
  146SAPS  H11R16076   4.808   0.595   5.077  0.9835 -0.0408 -2.0316
  146SAPS  C21216077   4.840   0.764   4.955 -0.2248 -0.3470 -0.8342
  146SAPS  H12R16078   4.828   0.709   4.860 -0.0151  1.3321 -1.8674
  146SAPS  C21316079   4.889   0.907   4.935  0.5228  0.6298  0.3368
  146SAPS  H13R16080   4.874   0.969   5.026  1.5655  1.0929  0.2092
  146SAPS  H13S16081   4.831   0.951   4.851 -1.2163 -0.0582  1.1361
  146SAPS  C21416082   5.041   0.907   4.900  0.3664 -0.3575 -0.0095
  146SAPS  H14R16083   5.097   0.827   4.951 -0.4977 -0.5433  0.6775
  146SAPS  C21516084   5.101   0.995   4.816 -0.2381  0.4138  0.1971
  146SAPS  H15R16085   5.210   0.984   4.810 -0.0149  1.7269  1.4688
  146SAPS  C21616086   5.033   1.107   4.738  0.0539 -0.3244 -0.0473
  146SAPS  H16R16087   5.084   1.203   4.761 -1.2094 -0.6651  5.6401
  146SAPS  H16S16088   4.939   1.133   4.790  0.6236  1.3418  0.2173
  146SAPS  C21716089   4.996   1.077   4.592 -0.2435 -0.1165 -0.1049
  146SAPS  H17R16090   5.091   1.052   4.539 -0.6854 -2.5000  0.1151
  146SAPS  H17S16091   4.956   1.175   4.560  1.7691  1.0459  0.7126
  146SAPS  C21816092   4.901   0.957   4.569  0.5256 -0.5340 -0.0027
  146SAPS  H18R16093   4.804   0.967   4.623  0.3886  2.7273 -0.6059
  146SAPS  H18S16094   4.950   0.860   4.589 -1.4309 -1.7062 -0.5897
  146SAPS  C21916095   4.856   0.953   4.422  0.2223  0.0766  0.2584
  146SAPS  H19R16096   4.945   0.933   4.358 -0.5404 -2.2313 -0.1769
  146SAPS  H19S16097   4.803   1.047   4.397  0.0207  0.0064  0.4242
  146SAPS  C22016098   4.757   0.842   4.386 -0.3384  0.7571  0.0600
  146SAPS  H20R16099   4.760   0.766   4.467  0.1393  0.8798  0.1640
  146SAPS  H20S16100   4.785   0.797   4.289 -0.4732  0.1525  0.3010
  146SAPS  H20T16101   4.654   0.884   4.381 -1.1616 -1.2815 -1.4708
  146SAPS   C3316102   4.865   1.252   5.979 -0.7159 -0.2045  0.2766
  146SAPS   H3X16103   4.904   1.312   6.064 -0.2624 -1.0452  0.6740
  146SAPS   H3Y16104   4.757   1.239   5.999 -0.9134  0.6580 -0.1986
  146SAPS   C3416105   4.894   1.327   5.855 -0.0256 -0.8874  0.2866
  146SAPS   H4X16106   4.802   1.342   5.795  0.0999  1.4596  0.5662
  146SAPS   H4Y16107   4.942   1.248   5.794  0.5588  0.8602 -1.6406
  146SAPS   C3516108   4.989   1.445   5.867  0.6619 -0.2457 -0.4629
  146SAPS   H5X16109   5.063   1.430   5.949  0.9022  1.7625 -0.2563
  146SAPS   H5Y16110   4.930   1.532   5.901  0.7683 -0.6530  0.8473
  146SAPS   C3616111   5.066   1.475   5.736 -0.3736  0.1198  0.0045
  146SAPS   H6X16112   5.139   1.394   5.718 -0.7940 -0.4337  0.7137
  146SAPS   H6Y16113   5.131   1.564   5.750 -2.7553  2.0844 -0.6057
  146SAPS   C3716114   4.980   1.487   5.613 -0.0558 -0.6383  0.2312
  146SAPS   H7X16115   4.898   1.562   5.616  1.8891  1.8436 -2.4980
  146SAPS   H7Y16116   4.922   1.393   5.603  0.3532 -0.7980 -0.7381
  146SAPS   C3816117   5.053   1.508   5.486  0.2876  0.1516  0.2711
  146SAPS   H8X16118   5.144   1.444   5.488  0.5535  0.5386  0.6630
  146SAPS   H8Y16119   5.103   1.606   5.470  1.4820 -0.2453  1.3608
  146SAPS   C3916120   4.961   1.482   5.363 -0.5743  0.4531 -0.3330
  146SAPS   H9X16121   4.886   1.564   5.366 -0.2198  0.7936 -0.7003
  146SAPS   H9Y16122   4.903   1.388   5.376  1.6515 -0.8685  0.4821
  146SAPS  C31016123   5.032   1.476   5.222 -0.0261 -0.0271 -0.5164
  146SAPS  H10X16124   5.078   1.576   5.209  2.9928 -1.2769 -0.0625
  146SAPS  H10Y16125   4.955   1.470   5.142  0.2604 -0.0261 -0.7948
  146SAPS  C31116126   5.133   1.368   5.205  0.2571 -0.0516  0.1101
  146SAPS  H11X16127   5.222   1.397   5.264 -1.8346  3.1888  2.0273
  146SAPS  H11Y16128   5.159   1.381   5.098  0.5226 -2.2161 -0.1328
  146SAPS  C31216129   5.081   1.227   5.226 -0.0420  0.4768 -0.1007
  146SAPS  H12X16130   4.994   1.214   5.159  2.4836  0.8946 -3.7783
  146SAPS  H12Y16131   5.034   1.220   5.327 -0.9653  0.3505 -0.5280
  146SAPS  C31316132   5.177   1.113   5.186  0.1553  0.1215  0.0904
  146SAPS  H13X16133   5.177   1.100   5.076  2.3709 -0.6075  0.1269
  146SAPS  H13Y16134   5.133   1.021   5.229  2.3943 -1.0881 -0.0715
  146SAPS  C31416135   5.320   1.128   5.231 -0.6398 -0.5894 -0.3350
  146SAPS  H14X16136   5.372   1.204   5.169  2.6088 -1.1549  1.5012
  146SAPS  H14Y16137   5.365   1.029   5.212  0.5739  0.0931 -1.1068
  146SAPS  C31516138   5.341   1.174   5.376  0.2498  0.6327  0.2555
  146SAPS  H15X16139   5.289   1.269   5.403 -0.1938  0.5546 -0.3203
  146SAPS  H15Y16140   5.448   1.203   5.392 -0.0132  2.7176 -1.2445
  146SAPS  C31616141   5.303   1.075   5.482 -0.3629  0.1320 -0.3078
  146SAPS  H16X16142   5.372   0.989   5.493 -1.9448 -1.1224  0.1171
  146SAPS  H16Y16143   5.202   1.029   5.474  0.1679 -1.1843  0.3604
  146SAPS  C31716144   5.288   1.145   5.610  0.2959 -0.2308  0.1087
  146SAPS  H17X16145   5.217   1.230   5.614  0.9961  0.3361  0.8864
  146SAPS  H17Y16146   5.381   1.202   5.630 -0.2531  1.3986 -1.6431
  146SAPS  C31816147   5.272   1.059   5.733 -0.8162  0.1792  0.3273
  146SAPS  H18X16148   5.340   0.971   5.731 -0.5776  0.3222  1.4648
  146SAPS  H18Y16149   5.169   1.015   5.739 -1.2749  1.3524  1.4159
  146SAPS  H18Z16150   5.289   1.123   5.821 -1.3798  2.5275 -1.1809
  147SAPS     N16151   0.726   4.068   6.639 -0.2688  0.2166 -0.0481
  147SAPS   HN116152   0.622   4.063   6.651 -0.1371 -0.1475  1.0799
  147SAPS   HN216153   0.765   4.007   6.713 -2.4985  0.2918  1.3102
  147SAPS   HN316154   0.761   4.165   6.653  2.7981 -0.5452 -1.6186
  147SAPS   C1216155   0.764   4.026   6.495 -0.3216 -0.2941 -0.4779
  147SAPS  H12A16156   0.868   4.047   6.479 -0.2343 -0.2753  0.1149
  147SAPS   C1316157   0.729   3.876   6.475 -1.3250  0.6229 -0.1411
  147SAPS  O13A16158   0.707   3.804   6.573 -0.1909 -0.0686  0.4071
  147SAPS  O13B16159   0.775   3.834   6.369  0.3964 -0.4566 -0.4383
  147SAPS   C1116160   0.692   4.110   6.389 -0.3247 -0.4587 -0.2656
  147SAPS  H11A16161   0.583   4.124   6.407 -0.1595  0.8923 -0.2027
  147SAPS  H11B16162   0.693   4.058   6.291  0.1251  0.1351 -0.5755
  147SAPS     P16163   0.841   4.293   6.259  0.2001  0.4813  0.1103
  147SAPS   O1316164   0.773   4.414   6.206 -0.3498  0.1995  0.6917
  147SAPS   O1416165   0.981   4.304   6.309  0.4170  0.1934 -0.4442
  147SAPS   O1216166   0.754   4.235   6.377 -0.3918  0.0703 -0.0116
  147SAPS   O1116167   0.839   4.183   6.144  0.6856  0.1292  0.3470
  147SAPS    C116168   0.938   4.078   6.140  0.6508 -0.2047 -0.5805
  147SAPS    HA16169   1.038   4.126   6.136  0.8340 -0.5071  0.2000
  147SAPS    HB16170   0.925   4.008   6.224 -1.0883 -2.4072 -2.5460
  147SAPS    C216171   0.908   3.992   6.012  0.1533  0.6257  0.0838
  147SAPS    HS16172   1.003   3.936   5.994 -0.0474 -0.3243  1.7570
  147SAPS   O2116173   0.868   4.067   5.900 -0.4289  0.2861 -0.2615
  147SAPS   C2116174   0.957   4.139   5.842 -0.1909  0.0503  0.0701
  147SAPS   O2216175   1.072   4.155   5.881 -0.0511  0.4287  0.8730
  147SAPS   C2216176   0.899   4.191   5.708 -0.8815 -0.1229 -0.1898
  147SAPS   H2R16177   0.816   4.119   5.687 -2.4099  1.3930  0.4098
  147SAPS   H2S16178   0.862   4.293   5.733  0.2970 -0.0454  1.4195
  147SAPS    C316179   0.798   3.887   6.036  0.1522 -0.3198  0.3641
  147SAPS    HX16180   0.709   3.949   6.062 -0.9592 -1.3532 -0.7706
  147SAPS    HY16181   0.813   3.817   6.121 -0.2200 -0.7011  0.1249
  147SAPS   O3116182   0.791   3.808   5.912  0.1243 -0.6165 -0.2722
  147SAPS   C3116183   0.671   3.779   5.864  1.2377 -0.0972 -0.6975
  147SAPS   O3216184   0.569   3.825   5.918 -0.6092  0.3339  0.1799
  147SAPS   C3216185   0.688   3.701   5.736 -0.7640  0.3694 -0.2165
  147SAPS   H2X16186   0.619   3.614   5.740 -0.9237  0.3836 -1.8921
  147SAPS   H2Y16187   0.796   3.680   5.723 -0.6028  1.5394 -0.8706
  147SAPS   C2316188   1.003   4.191   5.591  0.4785 -0.0336  0.0922
  147SAPS   H3R16189   0.940   4.231   5.509 -1.6250  1.8801  2.4932
  147SAPS   H3S16190   1.036   4.085   5.579  0.8183 -0.4317  3.4911
  147SAPS   C2416191   1.123   4.289   5.599 -0.0620  0.2456 -0.4280
  147SAPS   H4R16192   1.160   4.280   5.494  2.1310  0.4014  0.2788
  147SAPS   H4S16193   1.196   4.241   5.668  0.2015  0.2063 -0.7263
  147SAPS   C2516194   1.083   4.433   5.635  0.8857 -0.2202  0.2492
  147SAPS   H5R16195   1.064   4.455   5.741 -0.3213 -0.9440  0.2082
  147SAPS   C2616196   1.052   4.535   5.549 -0.0384 -0.2971 -0.5481
  147SAPS   H6R16197   1.040   4.638   5.584  0.9609  0.2315 -1.7147
  147SAPS   C2716198   1.034   4.537   5.395 -0.1746  0.0900  0.3120
  147SAPS   H7R16199   1.081   4.448   5.347 -0.1358 -0.6467  1.6507
  147SAPS   H7S16200   1.088   4.626   5.357 -2.5205  1.7431  0.6885
  147SAPS   C2816201   0.886   4.546   5.369 -0.2637  0.9710 -0.0820
  147SAPS   H8R16202   0.820   4.498   5.443 -0.4422 -0.4885 -1.1342
  147SAPS   C2916203   0.834   4.595   5.257  0.1682 -0.2133 -0.6001
  147SAPS   H9R16204   0.732   4.566   5.230  0.6477 -1.4122 -1.1772
  147SAPS  C21016205   0.907   4.639   5.138 -0.0164 -0.3593 -0.1671
  147SAPS  H10R16206   0.934   4.544   5.087 -0.0916  0.8536 -2.6109
  147SAPS  H10S16207   1.001   4.693   5.159  0.0061 -0.8574  1.0452
  147SAPS  C21116208   0.837   4.729   5.035  0.4599 -0.4417  0.0326
  147SAPS  H11R16209   0.858   4.835   5.054 -1.0252  0.3725 -2.3687
  147SAPS  C21216210   0.733   4.691   4.952 -0.4438 -0.2528  0.1494
  147SAPS  H12R16211   0.693   4.771   4.888 -1.0923  0.6773  1.6611
  147SAPS  C21316212   0.671   4.552   4.937  0.4795  0.2961 -0.2168
  147SAPS  H13R16213   0.718   4.472   4.998 -2.0762 -0.9235  0.2708
  147SAPS  H13S16214   0.676   4.523   4.830  1.9451 -0.3768  0.0137
  147SAPS  C21416215   0.525   4.554   4.989 -0.3090 -0.4601  0.3814
  147SAPS  H14R16216   0.489   4.655   5.017  0.6576 -0.6952  2.6600
  147SAPS  C21516217   0.451   4.441   5.015 -0.2892  0.0356  0.0920
  147SAPS  H15R16218   0.351   4.447   5.061  0.1774  0.6304  1.0555
  147SAPS  C21616219   0.493   4.297   4.995  0.8830  0.6267 -0.3679
  147SAPS  H16R16220   0.593   4.287   4.947 -0.1941  0.1300 -2.6991
  147SAPS  H16S16221   0.431   4.255   4.912  1.4003  0.1186 -0.5015
  147SAPS  C21716222   0.477   4.204   5.117  0.3939  0.0851 -0.1159
  147SAPS  H17R16223   0.483   4.098   5.085  0.1182 -0.3677  1.3002
  147SAPS  H17S16224   0.378   4.216   5.165 -0.2945 -1.5055 -1.0514
  147SAPS  C21816225   0.588   4.234   5.222 -0.3569 -0.9087 -0.7674
  147SAPS  H18R16226   0.587   4.343   5.242  0.1662 -1.2767  1.5548
  147SAPS  H18S16227   0.695   4.219   5.195  0.6713  0.8483  1.9700
  147SAPS  C21916228   0.558   4.151   5.347 -0.6270 -0.9775  0.2677
  147SAPS  H19R16229   0.569   4.045   5.317 -2.1375 -0.9596 -0.4696
  147SAPS  H19S16230   0.452   4.160   5.379 -0.1381  0.7935  1.5544
  147SAPS  C22016231   0.654   4.188   5.457 -0.0939 -0.4056 -0.2599
  147SAPS  H20R16232   0.632   4.141   5.555  0.8171 -0.0530  0.1227
  147SAPS  H20S16233   0.663   4.298   5.471  0.4819 -0.6606  1.6737
  147SAPS  H20T16234   0.754   4.142   5.438  0.0010 -1.4681  2.3659
  147SAPS   C3316235   0.662   3.794   5.614  0.1979 -0.0714 -0.1472
  147SAPS   H3X16236   0.730   3.881   5.615 -1.5071  1.4108  3.1386
  147SAPS   H3Y16237   0.562   3.842   5.624  0.4427  0.0773  1.9871
  147SAPS   C3416238   0.676   3.720   5.484  0.2007 -0.6633 -0.0898
  147SAPS   H4X16239   0.776   3.672   5.470  0.6698 -0.2095  1.5072
  147SAPS   H4Y16240   0.679   3.800   5.407  0.8097 -2.1897 -1.7542
  147SAPS   C3516241   0.565   3.621   5.463  0.3341  0.0528 -0.3591
  147SAPS   H5X16242   0.465   3.658   5.494  0.8619 -0.8360  2.8050
  147SAPS   H5Y16243   0.594   3.529   5.518  2.6883 -0.2913 -2.0203
  147SAPS   C3616244   0.543   3.580   5.313 -0.6144  0.2905 -0.0021
  147SAPS   H6X16245   0.474   3.493   5.313  0.8437 -0.9150 -0.3755
  147SAPS   H6Y16246   0.640   3.549   5.269  0.2009  2.7671 -0.1087
  147SAPS   C3716247   0.480   3.689   5.229  0.3024 -0.4488  0.1422
  147SAPS   H7X16248   0.531   3.787   5.244  0.1582 -0.3652  0.0861
  147SAPS   H7Y16249   0.377   3.705   5.267  0.9238  1.0651  1.3318
  147SAPS   C3816250   0.472   3.667   5.081  0.0448  0.1040 -0.3637
  147SAPS   H8X16251   0.406   3.580   5.060 -1.1773  0.5314  1.4457
  147SAPS   H8Y16252   0.573   3.639   5.042  0.5608  1.9422 -0.4483
  147SAPS   C3916253   0.408   3.791   5.021  0.0286 -0.7890 -0.0924
  147SAPS   H9X16254   0.471   3.882   5.033  1.0476 -1.3218 -1.1650
  147SAPS   H9Y16255   0.308   3.799   5.068 -0.1173  2.9519 -0.6684
  147SAPS  C31016256   0.381   3.755   4.869  0.0234 -0.1292 -0.3225
  147SAPS  H10X16257   0.330   3.656   4.867  1.4663 -0.9315  0.9850
  147SAPS  H10Y16258   0.475   3.723   4.820 -1.6313 -2.3016 -2.3323
  147SAPS  C31116259   0.306   3.857   4.791 -0.6816  0.0809 -0.2468
  147SAPS  H11X16260   0.212   3.887   4.844 -0.8588 -1.6557  0.4667
  147SAPS  H11Y16261   0.280   3.826   4.687 -1.9876  1.5723 -0.4109
  147SAPS  C31216262   0.381   3.993   4.759  0.4216  0.1024 -0.3852
  147SAPS  H12X16263   0.472   3.963   4.703 -0.2977 -1.0453 -0.9916
  147SAPS  H12Y16264   0.421   4.043   4.850  2.1063  0.0281 -1.0616
  147SAPS  C31316265   0.303   4.091   4.671  0.5753  0.3309  0.3868
  147SAPS  H13X16266   0.362   4.185   4.662  1.0328  0.2195  2.0344
  147SAPS  H13Y16267   0.210   4.116   4.727  1.1586  0.0733  1.4829
  147SAPS  C31416268   0.267   4.037   4.532 -0.5120  0.1689 -0.2620
  147SAPS  H14X16269   0.207   3.945   4.549 -1.4972  1.0062  0.9550
  147SAPS  H14Y16270   0.359   3.998   4.482 -0.1385  0.9224 -0.1740
  147SAPS  C31516271   0.176   4.127   4.455 -0.3092  0.1617  0.1856
  147SAPS  H15X16272   0.084   4.157   4.511  0.6253  0.0963  1.8117
  147SAPS  H15Y16273   0.140   4.080   4.361 -1.8432 -1.0106  1.3018
  147SAPS  C31616274   0.244   4.259   4.408 -0.8004  0.3299 -0.6888
  147SAPS  H16X16275   0.340   4.239   4.354 -1.2228  1.3022 -1.8526
  147SAPS  H16Y16276   0.261   4.320   4.499 -2.5675 -0.6649  0.3559
  147SAPS  C31716277   0.173   4.332   4.302 -0.2886 -0.4764  0.7691
  147SAPS  H17X16278   0.076   4.375   4.336 -1.8519 -1.0406 -2.5262
  147SAPS  H17Y16279   0.157   4.266   4.214  0.5451  1.2470 -0.7598
  147SAPS  C31816280   0.261   4.444   4.246 -0.7120 -0.5335 -0.0637
  147SAPS  H18X16281   0.220   4.491   4.154  1.3726 -0.9411 -1.2603
  147SAPS  H18Y16282   0.361   4.409   4.213 -0.8789  0.8126 -2.2044
  147SAPS  H18Z16283   0.253   4.534   4.311 -2.2559  0.6999 -1.8374
  148SAPS     N16284   2.014   4.875   6.265  0.2311 -0.7766 -0.3196
  148SAPS   HN116285   2.075   4.959   6.258  2.0324 -1.8725  1.2533
  148SAPS   HN216286   1.981   4.844   6.171  1.5601  0.8454 -1.3808
  148SAPS   HN316287   1.943   4.896   6.337  0.8099  0.5834 -0.1099
  148SAPS   C1216288   2.101   4.768   6.332  0.1886 -0.6041  0.5059
  148SAPS  H12A16289   2.189   4.764   6.269 -0.3383 -0.0090 -0.2849
  148SAPS   C1316290   2.142   4.799   6.479 -0.4584 -0.2371 -0.2224
  148SAPS  O13A16291   2.106   4.911   6.532  0.0123  0.1264  0.9980
  148SAPS  O13B16292   2.208   4.724   6.555  0.3663 -0.7935  0.5037
  148SAPS   C1116293   2.029   4.633   6.342 -0.4144  0.0309 -0.4063
  148SAPS  H11A16294   2.094   4.559   6.393 -1.8534 -1.1395 -0.1977
  148SAPS  H11B16295   2.021   4.592   6.238 -1.2553 -0.0696 -0.3062
  148SAPS     P16296   1.821   4.519   6.440 -0.0788 -0.0606 -0.1230
  148SAPS   O1316297   1.909   4.430   6.520  0.3567  0.0903 -0.2940
  148SAPS   O1416298   1.694   4.562   6.505  0.1730  0.3089  0.0637
  148SAPS   O1216299   1.898   4.653   6.394 -0.4727 -0.1383 -0.4119
  148SAPS   O1116300   1.787   4.445   6.308 -0.2265  0.1802  0.4146
  148SAPS    C116301   1.671   4.470   6.233  0.7196  0.8060 -0.7984
  148SAPS    HA16302   1.660   4.376   6.174 -0.1515 -0.1045  0.7091
  148SAPS    HB16303   1.583   4.492   6.298 -0.2902 -0.2226 -1.7680
  148SAPS    C216304   1.695   4.579   6.123  0.3208  0.4210  0.0417
  148SAPS    HS16305   1.732   4.669   6.178  1.1438 -1.2446  2.4148
  148SAPS   O2116306   1.569   4.621   6.064 -0.0092 -0.0829  0.2357
  148SAPS   C2116307   1.568   4.742   6.012  0.2058 -0.0176 -0.0260
  148SAPS   O2216308   1.650   4.829   6.034 -0.1648  0.2798 -0.2647
  148SAPS   C2216309   1.454   4.740   5.925  1.2723 -0.2479 -0.1457
  148SAPS   H2R16310   1.460   4.638   5.880 -1.6061  0.4661 -2.4562
  148SAPS   H2S16311   1.360   4.750   5.982  1.9972 -0.3192  1.1117
  148SAPS    C316312   1.795   4.532   6.014 -0.0251  0.3690  0.6667
  148SAPS    HX16313   1.756   4.438   5.969 -0.2298  1.1638 -0.8981
  148SAPS    HY16314   1.891   4.504   6.062 -0.1283 -1.6945 -0.2154
  148SAPS   O3116315   1.804   4.616   5.892 -0.0126  0.5574 -0.4331
  148SAPS   C3116316   1.872   4.733   5.915 -0.3833  0.2111  0.4184
  148SAPS   O3216317   1.935   4.754   6.021  0.1790 -0.5197 -0.0024
  148SAPS   C3216318   1.876   4.831   5.800 -0.4180  0.1525  0.3451
  148SAPS   H2X16319   1.983   4.839   5.771 -0.5070 -1.1314 -0.4058
  148SAPS   H2Y16320   1.829   4.930   5.822  0.1468  0.3888  0.5032
  148SAPS   C2316321   1.446   4.852   5.824  0.3838 -0.3148 -0.3813
  148SAPS   H3R16322   1.520   4.844   5.742 -1.6156 -0.6511 -2.2585
  148SAPS   H3S16323   1.468   4.946   5.879  1.3254 -0.2266 -0.8889
  148SAPS   C2416324   1.298   4.869   5.755  0.1213  0.4275 -0.1617
  148SAPS   H4R16325   1.228   4.866   5.841  0.3002  1.7152  0.0544
  148SAPS   H4S16326   1.270   4.783   5.691  1.0616 -1.0230  1.2820
  148SAPS   C2516327   1.290   5.004   5.689 -0.5598  0.1286 -0.8945
  148SAPS   H5R16328   1.313   5.086   5.758 -0.0517 -1.2493  0.6618
  148SAPS   C2616329   1.267   5.025   5.560  0.0004  0.3013 -0.0201
  148SAPS   H6R16330   1.282   5.127   5.523 -1.5302  0.8495  0.7913
  148SAPS   C2716331   1.243   4.934   5.445  0.4650 -0.6221  0.0930
  148SAPS   H7R16332   1.267   4.828   5.470 -2.3859 -1.6160 -0.8559
  148SAPS   H7S16333   1.295   4.972   5.355  1.7339 -0.5349  0.8522
  148SAPS   C2816334   1.099   4.903   5.410 -0.0199 -1.1726 -1.0701
  148SAPS   H8R16335   1.052   4.830   5.478  0.1814 -0.9523 -0.6872
  148SAPS   C2916336   1.023   4.958   5.314  0.1422  0.3020 -0.1676
  148SAPS   H9R16337   0.921   4.919   5.308 -0.1514  1.2263 -2.0918
  148SAPS  C21016338   1.062   5.068   5.223 -0.7723  0.0459  0.4010
  148SAPS  H10R16339   1.136   5.134   5.274  1.4087 -0.3544 -2.0352
  148SAPS  H10S16340   0.988   5.147   5.198 -0.0482 -0.2036 -2.8735
  148SAPS  C21116341   1.125   5.006   5.100 -0.5877 -0.4089  0.2773
  148SAPS  H11R16342   1.090   4.912   5.056  1.5357 -0.1149 -2.3230
  148SAPS  C21216343   1.198   5.075   5.006 -0.6439  0.4204  0.3447
  148SAPS  H12R16344   1.224   5.015   4.917 -2.2625  2.0326 -1.3127
  148SAPS  C21316345   1.242   5.216   5.002 -0.4360 -0.5516 -0.9511
  148SAPS  H13R16346   1.332   5.229   4.937  1.0998 -0.5942  1.0489
  148SAPS  H13S16347   1.286   5.245   5.100 -1.3713 -0.7752 -0.4628
  148SAPS  C21416348   1.121   5.303   4.973 -0.3197 -0.0354  0.5880
  148SAPS  H14R16349   1.035   5.288   5.039  0.2261  0.8569  1.5335
  148SAPS  C21516350   1.117   5.409   4.892 -0.3335  0.3641  1.1535
  148SAPS  H15R16351   1.023   5.463   4.875  0.1539  1.9632  3.2094
  148SAPS  C21616352   1.236   5.451   4.811  0.7922  0.5396  0.1517
  148SAPS  H16R16353   1.309   5.367   4.797 -1.2261 -1.3703  0.5992
  148SAPS  H16S16354   1.298   5.534   4.851  0.0919  0.8867  0.5151
  148SAPS  C21716355   1.195   5.503   4.669 -0.1947  0.4901  0.4361
  148SAPS  H17R16356   1.143   5.601   4.670 -1.7519 -0.2858 -0.6439
  148SAPS  H17S16357   1.121   5.433   4.624 -0.5160  1.0266  0.1235
  148SAPS  C21816358   1.322   5.509   4.579  0.1594 -0.1499  0.0770
  148SAPS  H18R16359   1.352   5.402   4.573  2.2403  0.4701 -2.5534
  148SAPS  H18S16360   1.405   5.569   4.623  0.2643 -1.1122  1.2694
  148SAPS  C21916361   1.308   5.547   4.428 -0.2063 -0.0862  0.6327
  148SAPS  H19R16362   1.221   5.498   4.379  0.2394  0.0937 -0.3654
  148SAPS  H19S16363   1.395   5.498   4.380 -0.2933 -0.8345  1.2050
  148SAPS  C22016364   1.313   5.700   4.401  0.1266  0.1340 -0.4719
  148SAPS  H20R16365   1.413   5.744   4.422  0.4279 -1.1446  0.9011
  148SAPS  H20S16366   1.261   5.749   4.486 -2.1312 -0.8112 -1.2287
  148SAPS  H20T16367   1.285   5.735   4.299  0.1444  0.3936 -0.3896
  148SAPS   C3316368   1.823   4.773   5.665  0.1036  0.4945  0.1158
  148SAPS   H3X16369   1.726   4.724   5.682  0.7519 -1.3257 -1.0990
  148SAPS   H3Y16370   1.894   4.693   5.633  0.9696  0.7042  1.4145
  148SAPS   C3416371   1.798   4.880   5.553  0.2921 -0.3720 -0.2340
  148SAPS   H4X16372   1.904   4.882   5.517  0.9604 -0.1988  1.6190
  148SAPS   H4Y16373   1.777   4.981   5.595  0.0376 -0.8076  0.7122
  148SAPS   C3516374   1.706   4.843   5.441 -0.4056 -0.1442  0.6488
  148SAPS   H5X16375   1.608   4.819   5.487  0.6495 -1.8336  2.1777
  148SAPS   H5Y16376   1.754   4.758   5.387 -1.4179  0.2360 -0.9204
  148SAPS   C3616377   1.688   4.950   5.330  0.2057  0.1347  0.2874
  148SAPS   H6X16378   1.792   4.973   5.298 -0.5060 -0.2918 -2.5479
  148SAPS   H6Y16379   1.644   5.040   5.377 -0.8993  0.9589 -2.2118
  148SAPS   C3716380   1.622   4.910   5.197  0.2947  0.5550 -0.1097
  148SAPS   H7X16381   1.515   4.896   5.224 -0.0406 -1.1508 -2.0831
  148SAPS   H7Y16382   1.667   4.810   5.180 -0.8926  0.1101 -0.8048
  148SAPS   C3816383   1.642   4.996   5.073 -0.1505  0.3900  0.0197
  148SAPS   H8X16384   1.748   5.023   5.054 -0.3900  0.2384 -1.7775
  148SAPS   H8Y16385   1.600   5.098   5.075  2.2150  1.5698 -2.9288
  148SAPS   C3916386   1.573   4.932   4.951  0.6247 -0.0140  0.0363
  148SAPS   H9X16387   1.464   4.932   4.975  0.1680  1.6024 -1.8482
  148SAPS   H9Y16388   1.609   4.828   4.938  0.5468 -0.0767  0.3192
  148SAPS  C31016389   1.604   5.024   4.837 -0.8462 -0.2906  0.6870
  148SAPS  H10X16390   1.712   5.050   4.826 -0.9973 -0.1504 -0.6963
  148SAPS  H10Y16391   1.553   5.123   4.846 -1.5811 -0.5452 -0.4494
  148SAPS  C31116392   1.547   4.980   4.699  0.4977 -0.5112 -0.2198
  148SAPS  H11X16393   1.578   4.875   4.680  0.5208 -0.2133 -1.9798
  148SAPS  H11Y16394   1.597   5.041   4.620  1.2674 -1.9730 -0.9012
  148SAPS  C31216395   1.397   4.979   4.676  0.5598 -0.0530 -0.2654
  148SAPS  H12X16396   1.371   5.085   4.697 -1.7359  0.1560 -3.4472
  148SAPS  H12Y16397   1.346   4.918   4.753  0.9773 -0.0164  0.0422
  148SAPS  C31316398   1.334   4.948   4.534  0.3202 -0.7384 -0.5947
  148SAPS  H13X16399   1.392   5.002   4.456  0.4147  0.8623  0.5202
  148SAPS  H13Y16400   1.233   4.993   4.536 -0.2904 -1.8693  3.2411
  148SAPS  C31416401   1.328   4.792   4.511  0.7833  0.5762  0.0347
  148SAPS  H14X16402   1.316   4.752   4.613 -0.3607  2.1952  0.5798
  148SAPS  H14Y16403   1.428   4.763   4.470 -0.1182  0.2327 -2.0671
  148SAPS  C31516404   1.205   4.740   4.424 -0.0240  0.9259  0.4716
  148SAPS  H15X16405   1.199   4.796   4.328  0.6453 -1.7498 -1.2140
  148SAPS  H15Y16406   1.110   4.761   4.479  1.0229  1.6286  2.0802
  148SAPS  C31616407   1.221   4.588   4.391  0.1502 -0.7133 -0.0752
  148SAPS  H16X16408   1.192   4.541   4.488 -0.6482  0.1414  0.1241
  148SAPS  H16Y16409   1.329   4.578   4.368 -0.1046 -1.3902 -1.0463
  148SAPS  C31716410   1.138   4.539   4.275  0.0038  0.3715 -0.8513
  148SAPS  H17X16411   1.034   4.577   4.289 -0.2431 -0.8831  1.1025
  148SAPS  H17Y16412   1.135   4.428   4.274 -0.9172  0.3638  0.1742
  148SAPS  C31816413   1.202   4.578   4.141 -0.2457 -0.1042 -0.0522
  148SAPS  H18X16414   1.168   4.510   4.060 -2.8263  0.4422  0.4822
  148SAPS  H18Y16415   1.312   4.569   4.154  0.0702  1.7447 -1.0100
  148SAPS  H18Z16416   1.185   4.685   4.117 -1.1968  0.5912  3.2206
  149SAPS     N16417   0.475   1.572   6.597  0.1176 -1.2353 -0.1295
  149SAPS   HN116418   0.499   1.658   6.649  2.2745 -0.0067 -2.9053
  149SAPS   HN216419   0.559   1.544   6.542  2.1698 -0.7719  2.5861
  149SAPS   HN316420   0.396   1.592   6.532  0.2984  0.9115  0.2421
  149SAPS   C1216421   0.447   1.465   6.693 -0.1145 -0.2932  0.1482
  149SAPS  H12A16422   0.539   1.454   6.748 -0.4939  1.1930  1.1352
  149SAPS   C1316423   0.346   1.496   6.795  0.1776  0.4586  0.0214
  149SAPS  O13A16424   0.287   1.611   6.784 -0.0738 -0.1890 -0.4504
  149SAPS  O13B16425   0.296   1.405   6.866 -0.6338 -0.0111  0.8696
  149SAPS   C1116426   0.422   1.332   6.615 -0.5574 -0.0142 -0.0190
  149SAPS  H11A16427   0.327   1.359   6.565 -1.5440 -0.0536  1.7408
  149SAPS  H11B16428   0.403   1.252   6.691 -1.0950 -0.6802 -0.8374
  149SAPS     P16429   0.545   1.184   6.440  0.2521 -0.1017  0.2462
  149SAPS   O1316430   0.683   1.188   6.397 -0.5416 -0.1379  0.3170
  149SAPS   O1416431   0.484   1.060   6.488  0.5434 -0.1963  0.1758
  149SAPS   O1216432   0.535   1.298   6.546 -0.0717  0.0740  0.0698
  149SAPS   O1116433   0.452   1.233   6.322 -0.2721 -0.4064 -0.0085
  149SAPS    C116434   0.456   1.367   6.277 -0.5583  0.3083  0.1116
  149SAPS    HA16435   0.407   1.433   6.352 -0.4766 -1.7710  2.0849
  149SAPS    HB16436   0.563   1.391   6.256 -0.2558 -1.0734 -0.0202
  149SAPS    C216437   0.392   1.388   6.139 -1.1207 -1.0579  1.2799
  149SAPS    HS16438   0.282   1.395   6.151 -0.8207  2.5910  3.4281
  149SAPS   O2116439   0.431   1.286   6.050 -0.4454 -0.1369 -0.3289
  149SAPS   C2116440   0.350   1.281   5.939  0.1273  0.6506  0.2761
  149SAPS   O2216441   0.246   1.339   5.933  0.5072  0.6195  0.0795
  149SAPS   C2216442   0.404   1.177   5.838  0.5948  0.4682  0.0821
  149SAPS   H2R16443   0.511   1.198   5.821  0.3838  0.8764 -0.8162
  149SAPS   H2S16444   0.388   1.078   5.886  0.7678  0.7123  0.6540
  149SAPS    C316445   0.448   1.527   6.091  0.0073  0.2721  0.5160
  149SAPS    HX16446   0.549   1.511   6.049 -0.4369 -0.9973 -0.1084
  149SAPS    HY16447   0.458   1.597   6.177  0.8174 -2.4515  2.8253
  149SAPS   O3116448   0.363   1.591   5.988  0.0118  0.4871 -0.0456
  149SAPS   C3116449   0.253   1.660   6.030  0.2963  0.7943 -0.6476
  149SAPS   O3216450   0.212   1.652   6.143 -0.4805 -0.6013 -0.4955
  149SAPS   C3216451   0.192   1.742   5.914 -0.3938 -0.1725  0.1139
  149SAPS   H2X16452   0.224   1.847   5.931  0.0062 -0.6153  2.4386
  149SAPS   H2Y16453   0.088   1.768   5.945 -0.5225 -0.1235 -0.3571
  149SAPS   C2316454   0.332   1.194   5.701 -0.0110  0.3221 -1.0624
  149SAPS   H3R16455   0.221   1.201   5.700 -0.0093  0.7015 -2.6688
  149SAPS   H3S16456   0.360   1.106   5.639 -0.7693 -0.6005 -0.1279
  149SAPS   C2416457   0.378   1.318   5.629 -0.2227  0.1034  0.4980
  149SAPS   H4R16458   0.488   1.332   5.642 -0.3578 -0.0019  1.9506
  149SAPS   H4S16459   0.342   1.415   5.671  2.8757  1.9489 -0.7361
  149SAPS   C2516460   0.340   1.307   5.486  0.3839 -0.3246  1.3098
  149SAPS   H5R16461   0.265   1.230   5.460  1.9068 -2.0761  1.8815
  149SAPS   C2616462   0.401   1.379   5.389 -0.5492  0.2096  0.6835
  149SAPS   H6R16463   0.379   1.361   5.282  1.6826  0.7992  0.0649
  149SAPS   C2716464   0.503   1.494   5.408  0.1867 -0.1159  0.3111
  149SAPS   H7R16465   0.551   1.501   5.508 -1.0883 -0.8326  0.9910
  149SAPS   H7S16466   0.465   1.596   5.387  3.1127  0.6269 -1.9729
  149SAPS   C2816467   0.618   1.479   5.318 -0.3097  0.5441  0.0964
  149SAPS   H8R16468   0.699   1.409   5.343  0.3074  0.1606 -2.6852
  149SAPS   C2916469   0.633   1.541   5.195  0.4667 -1.1754 -0.4831
  149SAPS   H9R16470   0.720   1.525   5.131  0.0215  1.0554 -1.7272
  149SAPS  C21016471   0.537   1.630   5.139  0.3933 -0.1684 -0.1757
  149SAPS  H10R16472   0.444   1.643   5.198  0.3766  0.7020 -0.3723
  149SAPS  H10S16473   0.502   1.589   5.041  2.0205  3.1771 -2.3406
  149SAPS  C21116474   0.583   1.766   5.107 -0.2976 -0.4748  0.0345
  149SAPS  H11R16475   0.616   1.822   5.195 -3.2481 -0.7029  1.4080
  149SAPS  C21216476   0.600   1.824   4.986 -0.2240 -0.6838 -0.4963
  149SAPS  H12R16477   0.637   1.927   4.980 -0.4126 -0.4962  1.1838
  149SAPS  C21316478   0.564   1.766   4.849  0.3397  0.2637 -0.1629
  149SAPS  H13R16479   0.487   1.685   4.855 -0.9739  1.4455 -0.5590
  149SAPS  H13S16480   0.646   1.710   4.799 -0.3228 -0.3379 -0.5974
  149SAPS  C21416481   0.486   1.865   4.759  0.7923  0.2141  0.0375
  149SAPS  H14R16482   0.467   1.967   4.796 -0.9999  0.5708 -1.7260
  149SAPS  C21516483   0.442   1.842   4.631 -0.0049 -0.0547  0.0450
  149SAPS  H15R16484   0.377   1.910   4.574 -1.1714 -0.9983  0.2083
  149SAPS  C21616485   0.463   1.716   4.554  0.2221  0.9176  0.1918
  149SAPS  H16R16486   0.375   1.649   4.552  1.2994 -0.5391 -0.9635
  149SAPS  H16S16487   0.540   1.652   4.602 -1.4474  0.1385  1.9402
  149SAPS  C21716488   0.500   1.733   4.404 -0.0119 -0.2637 -0.0441
  149SAPS  H17R16489   0.603   1.774   4.395  0.2615 -0.9708 -0.2060
  149SAPS  H17S16490   0.426   1.803   4.361 -0.3713 -0.2140  0.6354
  149SAPS  C21816491   0.503   1.593   4.346  0.8437 -0.0727 -0.0656
  149SAPS  H18R16492   0.398   1.556   4.342  1.2529 -1.3472 -4.4339
  149SAPS  H18S16493   0.558   1.533   4.422 -0.3684  0.3432  1.1654
  149SAPS  C21916494   0.578   1.571   4.217  0.0693 -0.7460  0.8590
  149SAPS  H19R16495   0.675   1.626   4.222 -0.3799  0.2956 -1.1112
  149SAPS  H19S16496   0.519   1.613   4.133  1.0407 -1.5243 -0.2493
  149SAPS  C22016497   0.611   1.433   4.172 -0.0372  0.3964  0.3778
  149SAPS  H20R16498   0.675   1.384   4.249 -0.4275  1.1523  1.1974
  149SAPS  H20S16499   0.673   1.447   4.080  1.8018  1.8626  1.7552
  149SAPS  H20T16500   0.525   1.371   4.140  0.7938 -0.5794 -0.0338
  149SAPS   C3316501   0.231   1.695   5.780 -0.0995  0.0102  0.5943
  149SAPS   H3X16502   0.177   1.599   5.769  0.3533 -0.4824  2.4243
  149SAPS   H3Y16503   0.337   1.666   5.760 -1.1414 -1.7990 -3.2661
  149SAPS   C3416504   0.185   1.794   5.673  0.8650  0.0573  0.6802
  149SAPS   H4X16505   0.239   1.891   5.681 -2.2830  1.9242  0.9328
  149SAPS   H4Y16506   0.081   1.816   5.707  0.7245 -1.9201  1.6708
  149SAPS   C3516507   0.199   1.743   5.530 -0.0644  0.0428  0.7899
  149SAPS   H5X16508   0.166   1.637   5.528  3.0312 -0.9901  0.1079
  149SAPS   H5Y16509   0.307   1.743   5.506 -0.8205 -0.2852 -3.2235
  149SAPS   C3616510   0.104   1.816   5.432  0.1610 -0.1916 -0.6352
  149SAPS   H6X16511   0.124   1.925   5.423 -2.0988  0.4585  1.2609
  149SAPS   H6Y16512   0.000   1.801   5.469  0.1755  1.0691 -0.0171
  149SAPS   C3716513   0.101   1.766   5.286 -0.3394  0.0208  0.1187
  149SAPS   H7X16514   0.202   1.797   5.250 -0.3935  1.3849  1.0606
  149SAPS   H7Y16515   0.021   1.808   5.222  1.2977  1.4572 -1.1007
  149SAPS   C3816516   0.091   1.617   5.272  0.2183 -0.0199  0.9315
  149SAPS   H8X16517   0.008   1.565   5.323 -0.8431 -0.8585 -1.5236
  149SAPS   H8Y16518   0.185   1.573   5.312  0.1097 -1.9275 -0.7426
  149SAPS   C3916519   0.083   1.579   5.119  0.2951  0.2714  0.3952
  149SAPS   H9X16520   0.074   1.468   5.120 -1.9167  0.3986  0.5249
  149SAPS   H9Y16521   0.175   1.607   5.064  1.2038 -0.4746  1.5088
  149SAPS  C31016522  -0.046   1.619   5.043 -0.2350 -0.1246  1.2625
  149SAPS  H10X16523  -0.030   1.720   4.999  2.2573 -0.0412  2.2001
  149SAPS  H10Y16524  -0.132   1.602   5.110  0.7693  0.7440  2.8351
  149SAPS  C31116525  -0.065   1.534   4.915  0.2179  0.2793  0.3096
  149SAPS  H11X16526  -0.169   1.533   4.877  0.0585  1.2097  0.6884
  149SAPS  H11Y16527  -0.041   1.431   4.950 -0.3543  0.5297  1.5265
  149SAPS  C31216528   0.035   1.573   4.809  0.1784 -0.1201  0.8546
  149SAPS  H12X16529   0.141   1.547   4.828  1.0614  2.7107  0.2626
  149SAPS  H12Y16530   0.043   1.683   4.806 -1.5416  0.0058 -0.5386
  149SAPS  C31316531  -0.004   1.512   4.675 -0.3884  0.2877  0.0520
  149SAPS  H13X16532  -0.095   1.565   4.642 -1.2631 -0.3569  1.3488
  149SAPS  H13Y16533  -0.026   1.403   4.684 -1.8738  0.5615  0.0066
  149SAPS  C31416534   0.103   1.522   4.568 -0.1366  0.7290 -0.5153
  149SAPS  H14X16535   0.190   1.456   4.588 -0.3718  0.5695 -0.0040
  149SAPS  H14Y16536   0.137   1.627   4.576  0.4147  0.4519  1.2511
  149SAPS  C31516537   0.068   1.471   4.426  0.3805 -0.4799  0.3786
  149SAPS  H15X16538   0.165   1.463   4.372  0.3191  0.4020  0.1132
  149SAPS  H15Y16539  -0.006   1.530   4.369 -0.7701 -2.3870 -0.1624
  149SAPS  C31616540   0.016   1.330   4.425 -0.8996  0.3618 -0.2180
  149SAPS  H16X16541   0.067   1.279   4.509  0.3088  0.4371 -0.8863
  149SAPS  H16Y16542  -0.094   1.325   4.441 -0.6029 -0.1228  2.0691
  149SAPS  C31716543   0.057   1.256   4.295  0.2318  0.2110  0.0156
  149SAPS  H17X16544  -0.005   1.164   4.294  0.5613 -0.0210  0.5947
  149SAPS  H17Y16545   0.161   1.220   4.283  0.3680  0.7672 -0.5179
  149SAPS  C31816546   0.018   1.336   4.170  0.4343  0.1598 -0.2169
  149SAPS  H18X16547   0.008   1.275   4.077  2.0241 -0.2175 -0.1638
  149SAPS  H18Y16548   0.083   1.423   4.148  3.4697 -1.8045  0.4552
  149SAPS  H18Z16549  -0.083   1.379   4.189 -1.6847 -4.6393  1.0738
  150SAPS     N16550   0.957   5.321   6.207 -0.3891 -0.2784 -0.5100
  150SAPS   HN116551   1.031   5.249   6.222 -1.8781 -2.0367 -1.1822
  150SAPS   HN216552   0.872   5.287   6.157 -2.4403  1.3878  1.6601
  150SAPS   HN316553   0.999   5.393   6.144  0.4265 -0.2862  0.0154
  150SAPS   C1216554   0.908   5.388   6.329 -0.7744  0.3761  0.7128
  150SAPS  H12A16555   0.866   5.315   6.397  1.0975 -0.9746  0.5073
  150SAPS   C1316556   1.019   5.467   6.403  0.1949 -0.3712 -0.7486
  150SAPS  O13A16557   1.141   5.471   6.363  0.2682 -0.0623  0.0633
  150SAPS  O13B16558   0.988   5.537   6.503  0.2424 -0.0409  0.1036
  150SAPS   C1116559   0.792   5.482   6.291 -0.8584  0.2034 -0.1310
  150SAPS  H11A16560   0.843   5.559   6.229  0.0651  0.2736  0.6929
  150SAPS  H11B16561   0.763   5.536   6.383 -0.2175  0.9649 -0.3593
  150SAPS     P16562   0.538   5.485   6.232  0.5376  0.3911  0.3431
  150SAPS   O1316563   0.462   5.431   6.353 -0.3945 -0.1196  0.5551
  150SAPS   O1416564   0.545   5.628   6.213 -0.5917  0.0594  0.9613
  150SAPS   O1216565   0.678   5.415   6.230 -0.1399 -0.0871  0.8300
  150SAPS   O1116566   0.458   5.417   6.117  0.2915 -0.3476  0.2737
  150SAPS    C116567   0.470   5.284   6.078 -0.5294  0.2839  0.0418
  150SAPS    HA16568   0.506   5.216   6.158  1.8385 -0.1075 -1.2642
  150SAPS    HB16569   0.372   5.248   6.039 -1.3482  2.6279 -0.2260
  150SAPS    C216570   0.565   5.288   5.954 -0.0030  0.0682 -0.0303
  150SAPS    HS16571   0.651   5.356   5.974  1.7538 -2.0700  0.0628
  150SAPS   O2116572   0.488   5.327   5.839  0.3740  0.3828 -0.0725
  150SAPS   C2116573   0.552   5.395   5.746  0.2414 -0.8677  0.0480
  150SAPS   O2216574   0.671   5.419   5.745  0.4402  0.3999  0.5591
  150SAPS   C2216575   0.453   5.428   5.641 -0.0883  0.1778 -0.4788
  150SAPS   H2R16576   0.445   5.333   5.583  3.4580 -0.2965 -0.4284
  150SAPS   H2S16577   0.359   5.457   5.693 -0.4333  1.2823 -1.6807
  150SAPS    C316578   0.621   5.148   5.913 -0.5345 -0.4395 -0.4664
  150SAPS    HX16579   0.540   5.085   5.869 -0.6008 -0.4210 -0.3705
  150SAPS    HY16580   0.653   5.095   6.005 -2.7238 -1.3168 -0.1443
  150SAPS   O3116581   0.732   5.148   5.822 -0.3637  0.4531  0.0975
  150SAPS   C3116582   0.850   5.206   5.860 -0.4867 -0.0715  0.2890
  150SAPS   O3216583   0.865   5.271   5.960 -0.2677 -0.2362 -0.1791
  150SAPS   C3216584   0.950   5.191   5.746  0.1886 -0.7736  0.6165
  150SAPS   H2X16585   0.899   5.148   5.657 -0.5029 -0.5373  0.8875
  150SAPS   H2Y16586   1.016   5.108   5.777  1.3826 -0.3052 -0.5701
  150SAPS   C2316587   0.490   5.545   5.545 -0.0594  0.2221 -0.6753
  150SAPS   H3R16588   0.584   5.507   5.500  1.4189  0.0173  2.3047
  150SAPS   H3S16589   0.519   5.634   5.605  1.9338  0.9338 -2.5731
  150SAPS   C2416590   0.369   5.574   5.464 -0.0957 -0.3414  0.3068
  150SAPS   H4R16591   0.387   5.675   5.421  0.9600  0.5608  2.6971
  150SAPS   H4S16592   0.275   5.591   5.521  1.0347  0.2959  2.0539
  150SAPS   C2516593   0.341   5.468   5.359 -0.2866 -0.0715  0.5871
  150SAPS   H5R16594   0.333   5.369   5.405  1.3287 -0.7938 -0.5708
  150SAPS   C2616595   0.327   5.479   5.224  0.3801 -0.0792 -0.5631
  150SAPS   H6R16596   0.306   5.391   5.161  2.4362 -1.0369  0.0289
  150SAPS   C2716597   0.326   5.605   5.147  0.5354 -1.1590 -0.0063
  150SAPS   H7R16598   0.369   5.589   5.046  0.2407  0.9346 -0.5084
  150SAPS   H7S16599   0.384   5.687   5.195 -0.3876  0.1051 -0.9711
  150SAPS   C2816600   0.178   5.661   5.142  0.2301 -1.1331  0.4848
  150SAPS   H8R16601   0.140   5.691   5.241 -0.0709 -0.3545  0.1434
  150SAPS   C2916602   0.114   5.680   5.027  1.1074  0.9824  0.0592
  150SAPS   H9R16603   0.010   5.713   5.039  0.1807 -1.6668  0.1336
  150SAPS  C21016604   0.164   5.671   4.891  0.3289 -0.1266  0.2933
  150SAPS  H10R16605   0.079   5.647   4.824  0.7859  1.8014 -1.0536
  150SAPS  H10S16606   0.235   5.588   4.873 -0.8356 -0.9278 -0.7426
  150SAPS  C21116607   0.225   5.803   4.856  0.2710 -0.1969 -0.0799
  150SAPS  H11R16608   0.303   5.831   4.928 -0.7584  1.6195  0.3911
  150SAPS  C21216609   0.218   5.870   4.737  0.1769 -0.1292 -1.2269
  150SAPS  H12R16610   0.249   5.975   4.733  0.5999 -0.2480 -1.1838
  150SAPS  C21316611   0.139   5.832   4.620 -0.0465 -0.9350  0.0404
  150SAPS  H13R16612   0.115   5.723   4.618 -0.2429 -0.8836 -1.9832
  150SAPS  H13S16613   0.197   5.862   4.531  0.7289  0.6003  1.0124
  150SAPS  C21416614   0.009   5.914   4.619  0.4706  0.1942  0.5285
  150SAPS  H14R16615  -0.069   5.885   4.691 -0.1867 -2.2245 -1.0179
  150SAPS  C21516616  -0.002   6.037   4.557  0.5687 -0.3831 -0.0820
  150SAPS  H15R16617  -0.096   6.091   4.575  1.4213  1.1398 -0.0388
  150SAPS  C21616618   0.107   6.118   4.485 -1.1120 -0.0659 -0.6562
  150SAPS  H16R16619   0.208   6.086   4.520 -0.7885  0.9730 -0.6191
  150SAPS  H16S16620   0.090   6.223   4.516 -0.8261  0.0443 -0.8789
  150SAPS  C21716621   0.095   6.111   4.334 -1.0245 -0.0294  0.2147
  150SAPS  H17R16622  -0.008   6.137   4.301 -1.9713 -1.6756  1.6768
  150SAPS  H17S16623   0.127   6.007   4.314 -1.7568 -0.4722  1.2207
  150SAPS  C21816624   0.177   6.220   4.278  0.0308  0.0702 -0.4066
  150SAPS  H18R16625   0.279   6.190   4.309 -0.6654  0.0782  2.1914
  150SAPS  H18S16626   0.161   6.317   4.329  1.9881  0.4338 -0.4114
  150SAPS  C21916627   0.157   6.248   4.136 -0.1458  0.1999  0.1905
  150SAPS  H19R16628   0.055   6.288   4.119 -1.1127 -2.2787 -0.3533
  150SAPS  H19S16629   0.165   6.147   4.090  0.0904 -0.0098  0.6786
  150SAPS  C22016630   0.263   6.342   4.079  0.3538  0.0049  0.6125
  150SAPS  H20R16631   0.362   6.291   4.075 -0.4000 -1.5411  0.6564
  150SAPS  H20S16632   0.260   6.440   4.131 -1.4180  1.1558 -1.4805
  150SAPS  H20T16633   0.234   6.358   3.973 -1.6271 -0.1314  1.0894
  150SAPS   C3316634   1.006   5.330   5.713  0.0399  0.2670  0.3158
  150SAPS   H3X16635   1.103   5.354   5.761 -1.2943  2.5140  2.0695
  150SAPS   H3Y16636   0.939   5.408   5.755  2.5475  1.7154  1.9115
  150SAPS   C3416637   1.012   5.356   5.554 -0.7840  0.4571  0.1029
  150SAPS   H4X16638   1.054   5.269   5.499 -0.6096  0.2514  0.5554
  150SAPS   H4Y16639   1.075   5.446   5.533  0.8992 -0.9425 -1.2351
  150SAPS   C3516640   0.877   5.405   5.492 -0.0145 -0.7965 -0.5316
  150SAPS   H5X16641   0.849   5.503   5.536 -0.6183 -0.3005 -1.9580
  150SAPS   H5Y16642   0.790   5.340   5.518 -1.3167  0.1250 -2.3381
  150SAPS   C3616643   0.898   5.429   5.347  0.2618 -0.3487  0.4529
  150SAPS   H6X16644   0.917   5.342   5.281  0.5300  0.6492 -0.8304
  150SAPS   H6Y16645   0.992   5.489   5.342 -0.0808  0.1018 -1.0597
  150SAPS   C3716646   0.777   5.498   5.281  0.1859  0.1138  0.8661
  150SAPS   H7X16647   0.739   5.581   5.345  2.6637  1.3097  0.9214
  150SAPS   H7Y16648   0.687   5.436   5.266  1.3042 -1.2976 -0.2978
  150SAPS   C3816649   0.815   5.574   5.151  0.0020  0.0289 -0.6707
  150SAPS   H8X16650   0.888   5.513   5.093 -1.3018 -1.1627 -1.1233
  150SAPS   H8Y16651   0.864   5.670   5.175 -0.9602  0.8268 -1.7679
  150SAPS   C3916652   0.698   5.618   5.065  0.4832  0.5522 -0.4442
  150SAPS   H9X16653   0.646   5.706   5.109 -1.8926 -0.8275 -0.3323
  150SAPS   H9Y16654   0.628   5.537   5.035  0.8151  1.3678 -3.7871
  150SAPS  C31016655   0.738   5.671   4.924  0.1785  0.5941  0.2940
  150SAPS  H10X16656   0.813   5.595   4.892  0.0206  0.7302 -0.4125
  150SAPS  H10Y16657   0.783   5.771   4.939  0.2554  0.2229  3.1318
  150SAPS  C31116658   0.619   5.683   4.829 -0.3725 -0.8273 -0.6069
  150SAPS  H11X16659   0.547   5.759   4.868  2.1668  2.7582 -2.2751
  150SAPS  H11Y16660   0.570   5.584   4.828  0.1569 -1.0901 -1.0098
  150SAPS  C31216661   0.654   5.704   4.680  0.3732 -0.3798  0.1170
  150SAPS  H12X16662   0.709   5.799   4.665 -1.3560  0.8219  1.0355
  150SAPS  H12Y16663   0.563   5.704   4.616  0.7771 -0.8485 -0.4696
  150SAPS  C31316664   0.746   5.594   4.622  0.1773 -0.3007  0.1351
  150SAPS  H13X16665   0.706   5.495   4.653  0.0032 -0.2646  0.0280
  150SAPS  H13Y16666   0.848   5.612   4.662 -0.3309 -2.4134  2.6530
  150SAPS  C31416667   0.744   5.608   4.468  0.4716 -0.6867 -0.9710
  150SAPS  H14X16668   0.740   5.716   4.445 -2.3893 -1.0089 -2.4734
  150SAPS  H14Y16669   0.650   5.557   4.436 -0.0765  1.4939 -3.1366
  150SAPS  C31516670   0.873   5.543   4.400  0.3060 -0.0947 -0.4650
  150SAPS  H15X16671   0.906   5.472   4.478 -2.1232  0.7531  1.4872
  150SAPS  H15Y16672   0.948   5.625   4.402 -1.4569  1.5956  1.4710
  150SAPS  C31616673   0.851   5.484   4.258 -0.4485  0.7673  0.0812
  150SAPS  H16X16674   0.948   5.500   4.206 -0.2679  1.8807  0.7344
  150SAPS  H16Y16675   0.776   5.539   4.198 -1.0570  0.8318  0.8832
  150SAPS  C31716676   0.841   5.332   4.249 -0.2470  0.6269 -0.5792
  150SAPS  H17X16677   0.939   5.288   4.278  0.2543  2.4815  0.7020
  150SAPS  H17Y16678   0.824   5.294   4.146  0.7334  1.2272 -0.9747
  150SAPS  C31816679   0.714   5.274   4.319 -0.1103 -0.6102 -0.4578
  150SAPS  H18X16680   0.694   5.174   4.277 -0.0321  0.2633 -2.6913
  150SAPS  H18Y16681   0.638   5.349   4.287  0.6513  1.2728  1.8012
  150SAPS  H18Z16682   0.711   5.275   4.431 -0.6194 -3.2098 -0.3865
  151SAPS     N16683   4.327   4.897   2.087 -0.0837 -0.1843  0.3393
  151SAPS   HN116684   4.379   4.808   2.100  0.0045 -0.0913  0.6314
  151SAPS   HN216685   4.283   4.902   1.993 -2.8644  0.6289  1.5982
  151SAPS   HN316686   4.385   4.982   2.100 -0.8885  0.1159  2.1772
  151SAPS   C1216687   4.220   4.900   2.191  0.0796 -0.5274  0.5972
  151SAPS  H12A16688   4.267   4.899   2.288 -1.3966 -1.8916  1.3449
  151SAPS   C1316689   4.139   5.027   2.177 -0.3937  0.6494 -0.0332
  151SAPS  O13A16690   4.179   5.114   2.100 -0.0852  0.3201  0.3700
  151SAPS  O13B16691   4.065   5.059   2.271 -0.1360 -0.4000  0.0997
  151SAPS   C1116692   4.133   4.771   2.180 -0.8511 -0.0244  0.0339
  151SAPS  H11A16693   4.063   4.776   2.094  0.8063 -0.6460 -1.4239
  151SAPS  H11B16694   4.070   4.769   2.271 -1.5394  0.7409 -0.4119
  151SAPS     P16695   4.226   4.554   2.267  0.5752  0.5047  0.5172
  151SAPS   O1316696   4.094   4.496   2.285  0.4045 -0.7638  0.3785
  151SAPS   O1416697   4.322   4.447   2.230  0.1023 -0.4576 -0.2184
  151SAPS   O1216698   4.221   4.657   2.153 -0.0481  0.2843 -0.5898
  151SAPS   O1116699   4.265   4.631   2.400 -0.4700  0.0036 -0.4736
  151SAPS    C116700   4.206   4.623   2.526  0.0433 -0.6211 -0.4282
  151SAPS    HA16701   4.224   4.716   2.585  0.3930 -0.7127 -0.3879
  151SAPS    HB16702   4.097   4.632   2.507  0.0889 -0.2392 -0.5111
  151SAPS    C216703   4.226   4.495   2.612 -0.2266 -0.9152  0.1105
  151SAPS    HS16704   4.200   4.407   2.550 -2.9430  0.6845 -1.2188
  151SAPS   O2116705   4.134   4.512   2.726  0.3758 -0.6065 -0.0373
  151SAPS   C2116706   4.105   4.399   2.775  0.2040 -0.0257  0.2941
  151SAPS   O2216707   4.104   4.294   2.717  0.6781 -0.3486  0.0666
  151SAPS   C2216708   4.052   4.408   2.913 -0.5306  0.1710 -0.4389
  151SAPS   H2R16709   4.120   4.453   2.989 -2.2094 -0.1913  1.3701
  151SAPS   H2S16710   3.962   4.473   2.905 -3.0069 -3.0703 -1.3076
  151SAPS    C316711   4.376   4.479   2.664  0.0488  0.0662  0.5719
  151SAPS    HX16712   4.389   4.561   2.738 -0.8593 -0.4516  1.3375
  151SAPS    HY16713   4.446   4.487   2.578  3.1059 -1.4702  2.7271
  151SAPS   O3116714   4.386   4.353   2.739 -0.1383  0.4356 -0.6183
  151SAPS   C3116715   4.421   4.248   2.677  1.3976 -0.3240 -0.5430
  151SAPS   O3216716   4.440   4.234   2.560 -0.0531  0.2142 -0.2948
  151SAPS   C3216717   4.436   4.128   2.776 -0.3594 -0.5308  0.6741
  151SAPS   H2X16718   4.361   4.053   2.741 -0.7932 -0.0783  0.6219
  151SAPS   H2Y16719   4.401   4.174   2.871  0.8687  3.0463 -0.4627
  151SAPS   C2316720   4.012   4.274   2.984 -1.0934 -0.4644 -0.3712
  151SAPS   H3R16721   4.101   4.211   3.004  0.2860  1.6740  0.6513
  151SAPS   H3S16722   3.947   4.226   2.907  0.6299  1.7780 -3.4875
  151SAPS   C2416723   3.943   4.297   3.118  0.1169  0.5181  0.1373
  151SAPS   H4R16724   3.944   4.197   3.167  1.9347  0.8469  0.8550
  151SAPS   H4S16725   3.839   4.329   3.098 -0.5501 -1.0169  0.9846
  151SAPS   C2516726   4.021   4.393   3.210 -0.5381  0.0159  1.0370
  151SAPS   H5R16727   3.986   4.497   3.210 -0.3604  0.0929 -0.2658
  151SAPS   C2616728   4.098   4.359   3.313  0.2037  0.0611  0.1089
  151SAPS   H6R16729   4.145   4.443   3.367  0.3232 -0.6845  1.1835
  151SAPS   C2716730   4.136   4.215   3.347  0.1900 -0.9251  0.5064
  151SAPS   H7R16731   4.204   4.171   3.272 -1.0164 -0.2594 -1.0295
  151SAPS   H7S16732   4.043   4.155   3.336 -0.5754  0.3843 -0.4922
  151SAPS   C2816733   4.194   4.199   3.481  0.1213  0.0775  0.0005
  151SAPS   H8R16734   4.302   4.198   3.500  0.3095  4.8677  0.3965
  151SAPS   C2916735   4.112   4.217   3.592 -0.4839  0.2316 -0.3148
  151SAPS   H9R16736   4.160   4.216   3.691 -1.5951 -0.5842  0.2304
  151SAPS  C21016737   3.969   4.257   3.603  0.5604 -0.0239  0.0601
  151SAPS  H10R16738   3.912   4.201   3.525 -0.8070 -0.5278  1.3839
  151SAPS  H10S16739   3.962   4.364   3.575  0.9628 -0.3336 -1.3198
  151SAPS  C21116740   3.907   4.235   3.735  0.2493  0.0088 -0.0946
  151SAPS  H11R16741   3.976   4.258   3.817  0.3211 -1.8992  0.4309
  151SAPS  C21216742   3.783   4.189   3.760 -0.3434 -0.2923  0.2286
  151SAPS  H12R16743   3.752   4.169   3.863 -3.3353  1.7464 -0.1449
  151SAPS  C21316744   3.674   4.165   3.661 -1.1195 -0.2580 -0.1140
  151SAPS  H13R16745   3.584   4.122   3.711 -1.3058  0.7542  0.4482
  151SAPS  H13S16746   3.705   4.073   3.608  0.3778 -1.2309  2.2574
  151SAPS  C21416747   3.629   4.283   3.577 -0.0875  0.2804 -0.2394
  151SAPS  H14R16748   3.698   4.283   3.492  1.9241  2.5118  1.2587
  151SAPS  C21516749   3.518   4.359   3.581 -0.1678  0.3443 -0.1516
  151SAPS  H15R16750   3.504   4.440   3.508  2.7629  1.9973  0.9034
  151SAPS  C21616751   3.416   4.353   3.695  0.0585 -0.2501  0.1423
  151SAPS  H16R16752   3.361   4.257   3.693  1.5472 -1.1388  0.1356
  151SAPS  H16S16753   3.345   4.438   3.697 -0.9059 -1.0386  0.1487
  151SAPS  C21716754   3.482   4.362   3.844 -0.0092 -0.3846 -0.0794
  151SAPS  H17R16755   3.564   4.438   3.850 -1.2753  1.0206 -0.0202
  151SAPS  H17S16756   3.530   4.269   3.881 -0.8945 -0.3270  1.2653
  151SAPS  C21816757   3.382   4.402   3.953  0.5141 -0.3533 -0.3683
  151SAPS  H18R16758   3.285   4.348   3.945  0.0358  0.2712  0.9790
  151SAPS  H18S16759   3.366   4.511   3.942  1.5417 -0.1824 -0.2763
  151SAPS  C21916760   3.432   4.373   4.095 -0.4356 -0.1836 -0.4963
  151SAPS  H19R16761   3.508   4.451   4.116 -0.2625 -0.1317 -1.2703
  151SAPS  H19S16762   3.477   4.272   4.089 -1.5523 -0.6484 -1.8044
  151SAPS  C22016763   3.306   4.380   4.191 -0.8292  0.1484  0.4976
  151SAPS  H20R16764   3.337   4.364   4.296  0.9799 -0.8176 -0.1536
  151SAPS  H20S16765   3.240   4.293   4.170  0.8638 -0.5044 -2.9267
  151SAPS  H20T16766   3.259   4.480   4.177  0.6066  0.5623 -2.0184
  151SAPS   C3316767   4.579   4.063   2.775  0.5169  0.2556 -0.3829
  151SAPS   H3X16768   4.657   4.123   2.827 -0.3426  1.2818 -0.2456
  151SAPS   H3Y16769   4.608   4.043   2.670 -0.7602 -4.0732 -0.1111
  151SAPS   C3416770   4.562   3.932   2.846 -0.3933 -0.3582  0.3899
  151SAPS   H4X16771   4.488   3.863   2.799 -0.1385 -0.5039  0.1986
  151SAPS   H4Y16772   4.516   3.947   2.946  0.9559  0.6175  0.9044
  151SAPS   C3516773   4.692   3.843   2.857  0.5404 -0.4094 -0.5683
  151SAPS   H5X16774   4.751   3.838   2.764  3.9378  0.2815  1.3910
  151SAPS   H5Y16775   4.657   3.740   2.881  1.0245 -0.7827 -1.4296
  151SAPS   C3616776   4.786   3.874   2.983  0.1630  0.0157  0.2234
  151SAPS   H6X16777   4.838   3.967   2.951 -0.9365  0.5656  0.0201
  151SAPS   H6Y16778   4.864   3.794   2.987 -0.3688 -0.4577  1.5212
  151SAPS   C3716779   4.731   3.882   3.128 -0.7726 -0.2536  0.1055
  151SAPS   H7X16780   4.641   3.948   3.133 -2.1359 -1.7481 -2.5885
  151SAPS   H7Y16781   4.811   3.936   3.183 -0.9984  0.9456 -0.7040
  151SAPS   C3816782   4.711   3.735   3.187  0.3485  0.0680  0.4868
  151SAPS   H8X16783   4.804   3.676   3.173  0.1428  0.1656 -1.6850
  151SAPS   H8Y16784   4.636   3.689   3.120 -0.4415 -0.0864  1.4715
  151SAPS   C3916785   4.658   3.740   3.329 -0.3912 -0.7865  0.1144
  151SAPS   H9X16786   4.559   3.790   3.340 -0.3168 -0.5773 -0.1571
  151SAPS   H9Y16787   4.722   3.795   3.400 -0.2516 -0.9963  0.1520
  151SAPS  C31016788   4.631   3.592   3.386 -0.3995 -0.1921  0.5475
  151SAPS  H10X16789   4.722   3.530   3.372 -0.9691 -0.8733 -0.2309
  151SAPS  H10Y16790   4.551   3.549   3.323 -0.7681  0.6414  0.4242
  151SAPS  C31116791   4.592   3.587   3.530  0.7043  0.0406 -0.2125
  151SAPS  H11X16792   4.507   3.653   3.556 -1.7071 -2.8222 -0.3298
  151SAPS  H11Y16793   4.681   3.630   3.582 -0.4125  2.3945 -0.1168
  151SAPS  C31216794   4.556   3.447   3.575  0.2034  0.5534  0.1736
  151SAPS  H12X16795   4.639   3.377   3.554  0.7062  1.0800  0.3660
  151SAPS  H12Y16796   4.478   3.405   3.508  0.8073 -0.6674  0.2196
  151SAPS  C31316797   4.526   3.426   3.733 -0.5090 -0.0579  0.3924
  151SAPS  H13X16798   4.457   3.506   3.768  0.3823  0.1073  1.8604
  151SAPS  H13Y16799   4.621   3.447   3.787  0.2184 -0.8734 -0.5353
  151SAPS  C31416800   4.462   3.293   3.768  0.3178  0.9582  0.6476
  151SAPS  H14X16801   4.540   3.227   3.724 -0.2474  1.1124 -0.6302
  151SAPS  H14Y16802   4.360   3.289   3.725  0.2636  2.3433  0.6116
  151SAPS  C31516803   4.446   3.274   3.923  0.8796 -0.2479  0.6720
  151SAPS  H15X16804   4.541   3.288   3.980  0.8079 -1.3858  1.0861
  151SAPS  H15Y16805   4.430   3.166   3.941  0.0657 -0.6303 -1.9935
  151SAPS  C31616806   4.338   3.369   3.975  0.0738  0.0691 -0.8180
  151SAPS  H16X16807   4.249   3.354   3.911 -0.5756 -1.5347  0.3767
  151SAPS  H16Y16808   4.369   3.475   3.959  2.8277 -0.2374  1.4980
  151SAPS  C31716809   4.313   3.347   4.127  0.6894 -0.8260 -0.2010
  151SAPS  H17X16810   4.409   3.364   4.180 -0.7153  1.3302  1.8637
  151SAPS  H17Y16811   4.288   3.239   4.128  1.9853 -1.1401 -0.2945
  151SAPS  C31816812   4.190   3.432   4.178 -0.1614  0.3604  0.0999
  151SAPS  H18X16813   4.235   3.531   4.160  0.8060  0.3332  2.1661
  151SAPS  H18Y16814   4.158   3.413   4.282  2.3901 -0.4870  0.8088
  151SAPS  H18Z16815   4.102   3.417   4.111 -0.3824  2.8493 -0.2520
  152SAPS     N16816   5.469   4.141   1.979  0.2204 -0.7074 -0.1259
  152SAPS   HN116817   5.374   4.180   1.990 -1.1743 -3.6776 -0.7566
  152SAPS   HN216818   5.445   4.057   1.922 -1.1774 -0.1317 -0.4309
  152SAPS   HN316819   5.511   4.120   2.072  0.9413  4.4652  1.0179
  152SAPS   C1216820   5.564   4.228   1.902  0.4821  0.0958 -0.4039
  152SAPS  H12A16821   5.660   4.199   1.943  0.3539  0.1969 -0.0299
  152SAPS   C1316822   5.564   4.213   1.752 -0.4539  1.1550  0.7824
  152SAPS  O13A16823   5.471   4.138   1.700 -0.1917 -0.0996  0.6787
  152SAPS  O13B16824   5.640   4.286   1.680  0.0447 -0.2109  0.1795
  152SAPS   C1116825   5.533   4.383   1.926  0.4251 -0.0987 -0.3822
  152SAPS  H11A16826   5.428   4.398   1.894  0.2787 -0.3694 -0.0352
  152SAPS  H11B16827   5.611   4.430   1.863  2.7522 -2.1588  0.7797
  152SAPS     P16828   5.673   4.504   2.116 -0.1867 -0.3263 -0.1179
  152SAPS   O1316829   5.798   4.437   2.082  0.1073 -0.3893  0.2358
  152SAPS   O1416830   5.667   4.635   2.054  0.6483 -0.0708  0.4338
  152SAPS   O1216831   5.555   4.412   2.066  0.3975 -0.2449 -0.2294
  152SAPS   O1116832   5.662   4.525   2.273 -0.6427  0.4505 -0.4431
  152SAPS    C116833   5.585   4.428   2.345  0.3032  0.9102 -0.7480
  152SAPS    HA16834   5.477   4.445   2.326 -0.2398  0.6433  1.7287
  152SAPS    HB16835   5.605   4.324   2.313 -0.3316  0.8608 -0.9977
  152SAPS    C216836   5.615   4.439   2.500 -0.3495  0.3229 -0.0783
  152SAPS    HS16837   5.549   4.372   2.559 -0.9412  1.1060  0.1577
  152SAPS   O2116838   5.608   4.570   2.550  0.5872 -0.1446  0.7430
  152SAPS   C2116839   5.487   4.614   2.579 -0.5906  0.3779  0.6143
  152SAPS   O2216840   5.383   4.553   2.545 -0.8663 -0.1452  0.4813
  152SAPS   C2216841   5.501   4.743   2.667 -0.0349  0.1127  0.2783
  152SAPS   H2R16842   5.430   4.810   2.614 -0.6311 -2.3547 -2.2916
  152SAPS   H2S16843   5.455   4.709   2.762  1.5028 -0.5288  0.8336
  152SAPS    C316844   5.760   4.384   2.529  0.0909 -0.1043  0.9790
  152SAPS    HX16845   5.820   4.433   2.450 -1.1581 -0.1419 -0.0304
  152SAPS    HY16846   5.759   4.275   2.507 -0.5226  0.0618  0.1414
  152SAPS   O3116847   5.810   4.411   2.661 -0.5537 -0.3978  1.1641
  152SAPS   C3116848   5.747   4.370   2.765  0.2710 -0.2201  0.2170
  152SAPS   O3216849   5.655   4.290   2.767 -0.2732 -0.1876  0.2128
  152SAPS   C3216850   5.800   4.439   2.890  0.6986  0.1577  0.3462
  152SAPS   H2X16851   5.773   4.546   2.878  1.7793  0.6246  1.8403
  152SAPS   H2Y16852   5.910   4.451   2.884  0.5950  1.0974  0.1350
  152SAPS   C2316853   5.646   4.799   2.695  0.4478  0.2066 -0.2576
  152SAPS   H3R16854   5.704   4.806   2.600  2.0124  0.3158  0.6831
  152SAPS   H3S16855   5.705   4.729   2.758  0.0028  0.8040  0.8366
  152SAPS   C2416856   5.648   4.944   2.759  0.7258  0.8768 -0.6247
  152SAPS   H4R16857   5.747   4.993   2.751 -0.0922  2.3824 -2.5239
  152SAPS   H4S16858   5.610   4.935   2.863  0.0604  0.6394 -0.8838
  152SAPS   C2516859   5.553   5.044   2.693 -0.7422  1.2781 -0.4443
  152SAPS   H5R16860   5.501   5.017   2.601 -2.0015  1.4112  0.2050
  152SAPS   C2616861   5.530   5.171   2.729  0.7709  0.5525 -0.5220
  152SAPS   H6R16862   5.482   5.240   2.658 -0.6082  0.0104 -0.1557
  152SAPS   C2716863   5.591   5.231   2.854  0.3750  0.1589  0.6554
  152SAPS   H7R16864   5.685   5.277   2.816  1.3482 -1.9328  0.4139
  152SAPS   H7S16865   5.630   5.157   2.926 -1.1179  2.6194  4.2654
  152SAPS   C2816866   5.499   5.331   2.918 -0.6982 -0.0487  0.0619
  152SAPS   H8R16867   5.442   5.385   2.841  1.5346  0.4973 -1.2944
  152SAPS   C2916868   5.479   5.351   3.047  0.2974  0.3693  0.0678
  152SAPS   H9R16869   5.399   5.421   3.073 -0.6716  0.5438 -3.0067
  152SAPS  C21016870   5.553   5.283   3.159 -0.1779  0.4139 -0.0349
  152SAPS  H10R16871   5.596   5.358   3.228 -0.7697 -0.9349  1.8643
  152SAPS  H10S16872   5.633   5.211   3.131 -1.4618 -0.6428 -1.1409
  152SAPS  C21116873   5.451   5.195   3.231  0.6151  0.2422 -0.4370
  152SAPS  H11R16874   5.370   5.159   3.165  0.0609 -1.0137  0.8612
  152SAPS  C21216875   5.448   5.152   3.360 -0.1644 -0.4881 -0.1164
  152SAPS  H12R16876   5.365   5.090   3.397 -1.4464  2.9108  3.3596
  152SAPS  C21316877   5.544   5.201   3.473  0.1278  0.2524 -0.4156
  152SAPS  H13R16878   5.490   5.275   3.537 -1.2928  0.1777 -1.4651
  152SAPS  H13S16879   5.626   5.264   3.433 -0.0488  1.1017  0.5240
  152SAPS  C21416880   5.582   5.083   3.561 -0.2527 -0.0006 -0.3329
  152SAPS  H14R16881   5.672   5.035   3.518  1.9129  2.5910  0.9719
  152SAPS  C21516882   5.523   5.046   3.678  0.6436 -0.1295  0.2276
  152SAPS  H15R16883   5.559   4.954   3.727 -0.7421 -1.3988 -0.9922
  152SAPS  C21616884   5.407   5.110   3.748  0.0473 -0.3164 -0.1491
  152SAPS  H16R16885   5.365   5.191   3.685  0.9444  1.0154  0.9248
  152SAPS  H16S16886   5.434   5.168   3.838 -0.2192  0.1189 -0.3466
  152SAPS  C21716887   5.295   5.023   3.802 -0.4679  0.4536 -0.5133
  152SAPS  H17R16888   5.253   4.965   3.717  1.1163 -1.8969  0.1801
  152SAPS  H17S16889   5.211   5.080   3.847 -2.3507 -0.3381 -2.8214
  152SAPS  C21816890   5.337   4.916   3.911  0.1333  0.3488 -0.8258
  152SAPS  H18R16891   5.435   4.873   3.883 -0.1955  0.1414 -1.7050
  152SAPS  H18S16892   5.260   4.836   3.906  0.1478  0.3669 -1.4199
  152SAPS  C21916893   5.348   4.974   4.047 -0.2259 -0.2172 -0.0220
  152SAPS  H19R16894   5.249   5.016   4.074 -0.9326 -2.6209  1.4133
  152SAPS  H19S16895   5.432   5.047   4.053 -0.2021 -0.1458 -0.9874
  152SAPS  C22016896   5.387   4.861   4.149 -0.4703 -0.5538  0.4808
  152SAPS  H20R16897   5.310   4.782   4.166  0.6092 -1.2560  2.4783
  152SAPS  H20S16898   5.484   4.810   4.132  0.5366  0.9774  1.4054
  152SAPS  H20T16899   5.398   4.911   4.248 -0.5615 -0.0348  0.2306
  152SAPS   C3316900   5.764   4.386   3.027  0.0217  0.9130 -0.3045
  152SAPS   H3X16901   5.807   4.284   3.042 -0.8615  0.4468 -0.8712
  152SAPS   H3Y16902   5.653   4.377   3.028 -0.0188  1.0865 -1.5035
  152SAPS   C3416903   5.798   4.479   3.149 -0.6026 -0.1791  0.3449
  152SAPS   H4X16904   5.769   4.582   3.121 -0.8123 -0.5209 -0.7245
  152SAPS   H4Y16905   5.909   4.486   3.147 -0.4260 -2.3596  0.4285
  152SAPS   C3516906   5.736   4.423   3.277 -0.3668 -0.5641  0.3636
  152SAPS   H5X16907   5.766   4.319   3.301  1.5281  0.0633  0.8990
  152SAPS   H5Y16908   5.627   4.420   3.260 -0.3142  0.9308 -0.3985
  152SAPS   C3616909   5.782   4.506   3.403  0.5709  0.0223  0.4393
  152SAPS   H6X16910   5.733   4.605   3.389 -1.0626 -0.7032  0.7610
  152SAPS   H6Y16911   5.891   4.520   3.416  0.7709 -0.3723 -0.7083
  152SAPS   C3716912   5.725   4.446   3.531  0.9086  0.1251 -0.2168
  152SAPS   H7X16913   5.625   4.405   3.507  2.2489 -2.2660 -2.2988
  152SAPS   H7Y16914   5.711   4.520   3.612  1.1024 -1.2296  1.0910
  152SAPS   C3816915   5.811   4.340   3.592 -0.0009 -0.1630 -0.0556
  152SAPS   H8X16916   5.909   4.390   3.609  0.4699 -0.7154 -1.0614
  152SAPS   H8Y16917   5.818   4.243   3.539 -0.8609 -1.0928  1.4614
  152SAPS   C3916918   5.747   4.302   3.727 -0.3579 -0.3386 -0.2063
  152SAPS   H9X16919   5.639   4.296   3.705 -0.1317 -0.3220 -1.3415
  152SAPS   H9Y16920   5.769   4.383   3.800 -1.4967 -1.5420  1.5504
  152SAPS  C31016921   5.793   4.173   3.797  0.0657 -0.2843  0.2051
  152SAPS  H10X16922   5.899   4.166   3.829  0.3455  1.3485 -0.2813
  152SAPS  H10Y16923   5.778   4.093   3.722  1.1553 -1.3264  1.0506
  152SAPS  C31116924   5.707   4.142   3.920 -0.8791  0.4251  0.4748
  152SAPS  H11X16925   5.603   4.165   3.889 -0.0433  2.9907 -0.7440
  152SAPS  H11Y16926   5.741   4.198   4.010  0.0377  1.8483 -0.7034
  152SAPS  C31216927   5.702   3.994   3.969 -0.1152 -0.1979  0.2058
  152SAPS  H12X16928   5.806   3.959   3.990  0.1063 -0.9303 -1.8739
  152SAPS  H12Y16929   5.670   3.938   3.878  0.0757 -1.0725  0.6697
  152SAPS  C31316930   5.605   3.980   4.085  0.5772 -0.1620 -0.7271
  152SAPS  H13X16931   5.501   3.989   4.047  0.2842 -0.5313 -0.0270
  152SAPS  H13Y16932   5.612   4.068   4.152 -0.1180  0.0610 -0.9373
  152SAPS  C31416933   5.621   3.858   4.180 -0.2939  0.6936 -0.1442
  152SAPS  H14X16934   5.550   3.854   4.265  0.3740  0.2067  0.3989
  152SAPS  H14Y16935   5.720   3.871   4.227  0.5075  1.1602 -1.8903
  152SAPS  C31516936   5.609   3.721   4.111 -0.3700 -0.7990  0.1382
  152SAPS  H15X16937   5.677   3.714   4.023 -0.8127  4.1897 -0.8891
  152SAPS  H15Y16938   5.642   3.643   4.184  1.4351  1.4879  1.9342
  152SAPS  C31616939   5.459   3.697   4.067 -0.3599  0.0108 -0.1706
  152SAPS  H16X16940   5.431   3.776   3.994 -0.7680  0.5437  0.5522
  152SAPS  H16Y16941   5.388   3.720   4.149  0.8787 -1.2163  1.3036
  152SAPS  C31716942   5.431   3.549   4.026 -0.0872 -0.2758  0.0775
  152SAPS  H17X16943   5.433   3.486   4.117 -2.4382  1.8371  1.7656
  152SAPS  H17Y16944   5.513   3.514   3.960  0.8233 -3.5079  2.6741
  152SAPS  C31816945   5.300   3.523   3.950 -0.2518  0.4699  0.1753
  152SAPS  H18X16946   5.278   3.415   3.946  0.4271  0.3550 -0.7397
  152SAPS  H18Y16947   5.320   3.574   3.853  0.8952  2.5228  1.4149
  152SAPS  H18Z16948   5.215   3.579   3.994 -2.1254  0.2293 -2.8306
  153SAPS     N16949   2.350   5.723   1.631 -0.1622  0.0655  0.2215
  153SAPS   HN116950   2.340   5.621   1.647 -0.3299 -0.2980 -1.8468
  153SAPS   HN216951   2.424   5.748   1.562 -1.3395  0.3943 -0.9589
  153SAPS   HN316952   2.347   5.776   1.721  0.2994 -0.7103  0.6965
  153SAPS   C1216953   2.238   5.747   1.542  0.0336  0.2647  0.5759
  153SAPS  H12A16954   2.221   5.853   1.529  0.1075  0.1749 -0.3211
  153SAPS   C1316955   2.264   5.696   1.397  0.2139 -0.0329 -0.1466
  153SAPS  O13A16956   2.378   5.651   1.362  0.3707 -0.2773  0.2961
  153SAPS  O13B16957   2.181   5.723   1.308 -0.3881 -0.2212 -0.4610
  153SAPS   C1116958   2.105   5.685   1.602 -0.4345  0.4082  0.1621
  153SAPS  H11A16959   2.085   5.582   1.564 -3.6488  0.9182  0.1265
  153SAPS  H11B16960   2.029   5.740   1.543  3.5212  2.3351 -3.6297
  153SAPS     P16961   1.987   5.624   1.826  0.0995  0.0096  0.0098
  153SAPS   O1316962   1.888   5.720   1.878 -0.1474  0.1327 -0.2362
  153SAPS   O1416963   1.931   5.513   1.744  0.8713  0.3439  0.0032
  153SAPS   O1216964   2.093   5.702   1.742 -0.3868  0.8022  0.5398
  153SAPS   O1116965   2.067   5.562   1.949 -0.3545  0.3306  0.1782
  153SAPS    C116966   2.118   5.651   2.052 -0.0223  0.0002  0.1842
  153SAPS    HA16967   2.151   5.746   2.004  1.6722 -0.8961 -0.4973
  153SAPS    HB16968   2.031   5.675   2.116 -2.5718 -0.6149 -2.8182
  153SAPS    C216969   2.243   5.599   2.129 -0.2989  0.2352  0.0262
  153SAPS    HS16970   2.207   5.512   2.187 -1.5410  0.6627 -0.0704
  153SAPS   O2116971   2.305   5.700   2.215 -0.4138  0.2287  0.0378
  153SAPS   C2116972   2.224   5.741   2.309 -0.2040  0.0434 -0.2991
  153SAPS   O2216973   2.120   5.688   2.343 -0.1764 -0.1072  0.0670
  153SAPS   C2216974   2.270   5.872   2.365 -0.7168  0.0024 -0.1893
  153SAPS   H2R16975   2.282   5.946   2.284 -0.5925 -0.5636 -0.7005
  153SAPS   H2S16976   2.214   5.913   2.452  1.3450  1.5065  0.4947
  153SAPS    C316977   2.342   5.530   2.031  0.3472  0.7132  0.6271
  153SAPS    HX16978   2.392   5.616   1.981  0.5259  0.6898  0.7651
  153SAPS    HY16979   2.285   5.487   1.946 -0.7506  0.0253  1.6825
  153SAPS   O3116980   2.439   5.444   2.092 -0.2252  0.4421 -0.1378
  153SAPS   C3116981   2.399   5.318   2.129  0.4404 -0.3459 -0.0566
  153SAPS   O3216982   2.291   5.267   2.099 -0.1167 -0.4435  0.0124
  153SAPS   C3216983   2.507   5.249   2.213 -0.3598 -0.6158  0.3493
  153SAPS   H2X16984   2.604   5.298   2.191 -2.5988  2.9280 -2.8428
  153SAPS   H2Y16985   2.523   5.152   2.162  0.0383 -0.5185  0.2906
  153SAPS   C2316986   2.414   5.872   2.426  0.2174 -0.9892  0.0798
  153SAPS   H3R16987   2.422   5.976   2.464  2.3896 -0.6497 -1.1866
  153SAPS   H3S16988   2.490   5.879   2.346 -0.8739 -0.7792 -0.9728
  153SAPS   C2416989   2.437   5.753   2.522 -0.1996  0.1869  0.6167
  153SAPS   H4R16990   2.416   5.664   2.459 -1.0120  1.1575 -0.5215
  153SAPS   H4S16991   2.354   5.749   2.596 -1.5155  0.9168 -0.7746
  153SAPS   C2516992   2.575   5.752   2.579 -0.0119  0.0479  0.7649
  153SAPS   H5R16993   2.649   5.715   2.505  1.4605 -0.6268  2.4959
  153SAPS   C2616994   2.597   5.774   2.710  0.1790 -1.0830  0.1456
  153SAPS   H6R16995   2.701   5.768   2.747  0.0394 -2.5776  0.3344
  153SAPS   C2716996   2.486   5.812   2.802 -0.0935  0.2564 -0.8642
  153SAPS   H7R16997   2.430   5.718   2.821  0.2929 -0.1935 -1.8988
  153SAPS   H7S16998   2.421   5.886   2.749 -0.3591 -0.4937 -1.6077
  153SAPS   C2816999   2.535   5.869   2.934  0.4413  0.1166  0.0360
  153SAPS   H8R17000   2.645   5.877   2.940  0.5161  0.3913 -1.3408
  153SAPS   C2917001   2.456   5.909   3.032  0.3977  0.7962 -0.1988
  153SAPS   H9R17002   2.505   5.937   3.127 -3.3743  0.1261  2.1387
  153SAPS  C21017003   2.308   5.894   3.043 -0.0028  0.0548  0.3686
  153SAPS  H10R17004   2.268   5.857   3.139 -0.4981 -0.9441 -0.2070
  153SAPS  H10S17005   2.275   5.821   2.966 -1.0512 -0.0052  0.8620
  153SAPS  C21117006   2.223   6.012   3.000 -0.7918  0.2951 -0.5038
  153SAPS  H11R17007   2.173   6.004   2.902 -0.9715 -1.0567 -0.3250
  153SAPS  C21217008   2.200   6.120   3.086 -0.5108  1.0374  0.1554
  153SAPS  H12R17009   2.137   6.201   3.047 -2.4832  0.4237  1.8620
  153SAPS  C21317010   2.237   6.135   3.229 -0.2686 -0.2272 -0.3955
  153SAPS  H13R17011   2.263   6.243   3.234  2.5286 -0.8489  0.1844
  153SAPS  H13S17012   2.337   6.089   3.243  0.4941  0.2753 -3.6115
  153SAPS  C21417013   2.130   6.094   3.333 -0.2706  0.1973 -0.1744
  153SAPS  H14R17014   2.030   6.139   3.335 -1.2209 -1.8332  0.4883
  153SAPS  C21517015   2.144   5.993   3.421  0.0393 -0.2544  0.1437
  153SAPS  H15R17016   2.062   5.975   3.492  0.2314 -0.5531  0.2887
  153SAPS  C21617017   2.261   5.903   3.442 -0.2356  0.0757 -0.9147
  153SAPS  H16R17018   2.343   5.939   3.377  0.3835 -0.7575 -0.6105
  153SAPS  H16S17019   2.239   5.800   3.406  0.8587 -1.3898  2.2716
  153SAPS  C21717020   2.319   5.890   3.587  0.6696  0.9733 -0.3877
  153SAPS  H17R17021   2.306   5.995   3.621 -0.6051  0.4842  0.7227
  153SAPS  H17S17022   2.428   5.872   3.591  0.5637  0.3731 -0.0148
  153SAPS  C21817023   2.242   5.800   3.693 -0.6897 -0.4180  0.4748
  153SAPS  H18R17024   2.251   5.694   3.661  0.4744  0.4767 -2.4932
  153SAPS  H18S17025   2.132   5.817   3.700 -0.4785  0.5807  1.9302
  153SAPS  C21917026   2.289   5.813   3.839  0.2149  0.7938  0.2050
  153SAPS  H19R17027   2.398   5.795   3.848  0.2148 -0.8353 -2.2050
  153SAPS  H19S17028   2.248   5.734   3.904 -1.4345  2.6305  1.5215
  153SAPS  C22017029   2.265   5.946   3.906 -0.0991 -0.3760 -0.2816
  153SAPS  H20R17030   2.177   6.005   3.873  2.2666  3.5756 -0.1958
  153SAPS  H20S17031   2.349   6.012   3.874 -0.9064  1.4222  1.1139
  153SAPS  H20T17032   2.271   5.935   4.016 -0.7044 -0.6882 -0.2790
  153SAPS   C3317033   2.474   5.234   2.366  0.0870  0.7843 -0.3463
  153SAPS   H3X17034   2.539   5.166   2.425 -0.5693 -1.1379 -1.7264
  153SAPS   H3Y17035   2.370   5.204   2.393  0.1926  1.6306  1.1263
  153SAPS   C3417036   2.487   5.372   2.435  0.0118 -0.5316  0.7347
  153SAPS   H4X17037   2.404   5.440   2.407  1.1579  0.9346  0.7848
  153SAPS   H4Y17038   2.577   5.418   2.389 -0.8593 -0.0530 -0.5438
  153SAPS   C3517039   2.493   5.368   2.592  0.8838  0.2771  0.0743
  153SAPS   H5X17040   2.416   5.302   2.637  0.9903  1.3687  1.9165
  153SAPS   H5Y17041   2.460   5.470   2.619  0.7225  0.5947 -1.2617
  153SAPS   C3617042   2.626   5.322   2.643  0.1104  0.1801  0.0780
  153SAPS   H6X17043   2.694   5.313   2.556 -0.3508 -0.7355 -0.2064
  153SAPS   H6Y17044   2.622   5.220   2.686  1.6555  0.6389  1.3933
  153SAPS   C3717045   2.693   5.417   2.750 -0.0540  0.5145 -0.0138
  153SAPS   H7X17046   2.710   5.515   2.702 -2.0372  0.0989 -1.6975
  153SAPS   H7Y17047   2.790   5.364   2.763  0.5149  1.6300  0.4469
  153SAPS   C3817048   2.618   5.439   2.874 -0.3153 -0.3250  0.9003
  153SAPS   H8X17049   2.595   5.335   2.906  2.1426 -0.5826  2.0409
  153SAPS   H8Y17050   2.515   5.476   2.852  0.8803  0.9902 -3.4945
  153SAPS   C3917051   2.692   5.518   2.981 -0.1502  0.4073 -0.1106
  153SAPS   H9X17052   2.703   5.622   2.944 -2.0365  1.0611  1.0381
  153SAPS   H9Y17053   2.797   5.480   2.983  0.0551  0.9766  0.3541
  153SAPS  C31017054   2.623   5.504   3.119  0.0238 -0.2578  0.0892
  153SAPS  H10X17055   2.606   5.401   3.156  0.1401 -0.4071 -0.2677
  153SAPS  H10Y17056   2.522   5.549   3.118  1.3215  2.9130 -1.0481
  153SAPS  C31117057   2.696   5.574   3.241  0.4897 -0.2113  0.6390
  153SAPS  H11X17058   2.708   5.682   3.221  1.3702 -0.4145  0.0008
  153SAPS  H11Y17059   2.794   5.525   3.260  0.5028 -0.1631  0.6942
  153SAPS  C31217060   2.614   5.547   3.369  0.1947 -0.0341  0.5315
  153SAPS  H12X17061   2.615   5.437   3.387 -0.0462  0.1911  2.0101
  153SAPS  H12Y17062   2.506   5.571   3.355  0.2050 -0.3185 -0.1281
  153SAPS  C31317063   2.672   5.617   3.493 -0.1875 -0.0733 -0.1404
  153SAPS  H13X17064   2.653   5.725   3.476 -2.1835 -0.1916  0.9835
  153SAPS  H13Y17065   2.779   5.587   3.498 -0.1528 -0.2818 -1.7133
  153SAPS  C31417066   2.601   5.564   3.614 -0.3789 -0.0105 -0.2638
  153SAPS  H14X17067   2.627   5.457   3.629  0.4647  0.0898 -0.9314
  153SAPS  H14Y17068   2.491   5.577   3.604 -0.5403 -1.5405 -0.6504
  153SAPS  C31517069   2.650   5.639   3.741 -0.3516 -0.2150  0.0098
  153SAPS  H15X17070   2.625   5.746   3.726  2.7813  0.6203  0.1680
  153SAPS  H15Y17071   2.760   5.627   3.748 -0.2839  0.0450 -0.5845
  153SAPS  C31617072   2.587   5.607   3.877 -0.1807 -0.1806 -0.1029
  153SAPS  H16X17073   2.602   5.501   3.906 -1.5493 -0.1960  0.6306
  153SAPS  H16Y17074   2.478   5.619   3.863  0.1979  1.1432 -2.4519
  153SAPS  C31717075   2.624   5.709   3.991  0.1803 -0.6030 -0.5036
  153SAPS  H17X17076   2.590   5.807   3.951 -2.7137 -1.6817 -0.9331
  153SAPS  H17Y17077   2.729   5.730   4.021  0.0646  0.5530 -0.8594
  153SAPS  C31817078   2.534   5.691   4.112  0.1485  0.6547 -0.3082
  153SAPS  H18X17079   2.577   5.614   4.180  0.3723 -1.5837 -2.8401
  153SAPS  H18Y17080   2.429   5.663   4.088  1.0008 -1.7499 -1.4999
  153SAPS  H18Z17081   2.522   5.785   4.171 -0.3223  1.0538 -1.0270
  154SAPS     N17082   0.844   4.894   1.483 -0.4558 -0.0869 -0.4482
  154SAPS   HN117083   0.743   4.908   1.503 -0.6261  1.0937 -1.9852
  154SAPS   HN217084   0.870   4.953   1.401  0.8866  1.5596  1.0566
  154SAPS   HN317085   0.850   4.795   1.453 -1.8316 -0.2888 -0.1180
  154SAPS   C1217086   0.935   4.925   1.604  0.8039  0.6263  0.1994
  154SAPS  H12A17087   0.909   4.870   1.693  1.5761 -0.8977 -0.4660
  154SAPS   C1317088   1.080   4.894   1.577 -0.2284  0.4686  0.1810
  154SAPS  O13A17089   1.107   4.808   1.488 -0.0856 -0.0483 -0.0623
  154SAPS  O13B17090   1.176   4.963   1.626 -0.2369 -1.0869  0.2276
  154SAPS   C1117091   0.926   5.078   1.641 -0.1150  0.0799 -0.7640
  154SAPS  H11A17092   0.975   5.128   1.555  0.8029  0.2561 -0.1496
  154SAPS  H11B17093   0.986   5.118   1.725 -0.7608  0.9648 -0.7048
  154SAPS     P17094   0.700   5.106   1.779  0.0721  0.1218 -0.3544
  154SAPS   O1317095   0.631   5.229   1.817  0.3460 -0.3463  0.5823
  154SAPS   O1417096   0.615   4.991   1.755 -0.6418  0.1920 -0.0900
  154SAPS   O1217097   0.792   5.119   1.647  0.7012 -0.3498 -0.1246
  154SAPS   O1117098   0.814   5.072   1.899 -0.3484  0.6130 -0.2864
  154SAPS    C117099   0.768   4.999   2.011 -0.3649  0.1291 -0.7182
  154SAPS    HA17100   0.688   4.925   1.991  0.5845 -0.9506 -0.6569
  154SAPS    HB17101   0.850   4.944   2.062 -0.0995  0.5553 -0.6803
  154SAPS    C217102   0.697   5.096   2.108  0.4727  0.0310 -0.7703
  154SAPS    HS17103   0.614   5.150   2.057 -0.4053 -0.0920  0.4544
  154SAPS   O2117104   0.791   5.194   2.153  0.3456 -0.3995 -0.1439
  154SAPS   C2117105   0.738   5.301   2.208  0.1072 -0.4208 -0.4449
  154SAPS   O2217106   0.622   5.334   2.203 -0.5265 -0.9535 -0.1811
  154SAPS   C2217107   0.850   5.369   2.293 -0.0494 -0.4525 -0.3499
  154SAPS   H2R17108   0.936   5.300   2.311 -0.2438 -0.6826 -0.2903
  154SAPS   H2S17109   0.875   5.464   2.241 -0.2386 -0.5015 -0.5287
  154SAPS    C317110   0.642   5.007   2.223 -0.5217 -0.1757  0.0508
  154SAPS    HX17111   0.726   4.950   2.267  0.7048  0.0562 -1.8429
  154SAPS    HY17112   0.587   4.925   2.172 -0.9705  1.6390 -2.6134
  154SAPS   O3117113   0.570   5.074   2.331  0.0168  0.1525  0.2548
  154SAPS   C3117114   0.462   5.139   2.283  0.2469  0.5170  0.0233
  154SAPS   O3217115   0.414   5.125   2.177  0.0497  0.6659 -0.2752
  154SAPS   C3217116   0.393   5.218   2.389 -0.5384  0.1515 -0.0501
  154SAPS   H2X17117   0.296   5.254   2.351  0.8853  2.8079 -1.4897
  154SAPS   H2Y17118   0.465   5.297   2.421 -0.9612 -0.5895  3.1257
  154SAPS   C2317119   0.795   5.403   2.435 -0.2742 -0.1352 -0.3650
  154SAPS   H3R17120   0.694   5.446   2.426 -1.4681 -2.8481 -1.0435
  154SAPS   H3S17121   0.867   5.468   2.488 -0.0980 -1.3469  0.9550
  154SAPS   C2417122   0.784   5.267   2.517  0.4677  0.7747  0.2843
  154SAPS   H4R17123   0.756   5.181   2.452  1.4661  0.5662  0.1209
  154SAPS   H4S17124   0.691   5.269   2.577 -0.7941 -2.6127 -1.2946
  154SAPS   C2517125   0.904   5.232   2.596 -0.4435 -0.1588 -0.5538
  154SAPS   H5R17126   0.990   5.192   2.540  0.8179  0.6832  0.7515
  154SAPS   C2617127   0.918   5.254   2.729 -0.0126 -0.2108  0.1821
  154SAPS   H6R17128   1.017   5.233   2.774 -0.2154 -1.9432 -0.1076
  154SAPS   C2717129   0.816   5.316   2.824 -0.3312 -0.2558 -0.4313
  154SAPS   H7R17130   0.786   5.241   2.901  1.1841 -0.3641  0.0903
  154SAPS   H7S17131   0.727   5.350   2.768 -1.5521 -0.1411  1.4666
  154SAPS   C2817132   0.855   5.439   2.902 -0.5872  0.5796 -0.8316
  154SAPS   H8R17133   0.830   5.537   2.858  0.6678  0.7556 -1.1967
  154SAPS   C2917134   0.915   5.434   3.020  0.2346 -0.0166  0.0285
  154SAPS   H9R17135   0.922   5.529   3.074  3.7818  0.1143 -0.4456
  154SAPS  C21017136   0.960   5.300   3.086 -0.2604 -0.5341 -0.5285
  154SAPS  H10R17137   0.978   5.218   3.013 -0.0310 -0.9126 -0.0535
  154SAPS  H10S17138   0.873   5.262   3.143 -1.3377  2.2250 -0.2134
  154SAPS  C21117139   1.083   5.323   3.168  0.2054  0.5797 -0.0066
  154SAPS  H11R17140   1.166   5.372   3.116  1.6822  2.1406  3.5139
  154SAPS  C21217141   1.102   5.300   3.300 -0.7115  0.0420  0.3183
  154SAPS  H12R17142   1.195   5.338   3.345 -0.0957 -0.9522 -0.0875
  154SAPS  C21317143   1.008   5.245   3.404  0.1498 -0.0042  0.1670
  154SAPS  H13R17144   0.904   5.259   3.365  1.3777  3.0238 -2.4549
  154SAPS  H13S17145   1.010   5.305   3.497 -0.5362  0.6835 -0.2450
  154SAPS  C21417146   1.033   5.099   3.436 -0.2999 -0.2188  0.6178
  154SAPS  H14R17147   0.978   5.031   3.370  0.3055  0.9794 -1.1832
  154SAPS  C21517148   1.117   5.064   3.533 -0.0910 -0.0798 -0.0073
  154SAPS  H15R17149   1.125   4.960   3.569  1.0192 -0.1548 -0.4146
  154SAPS  C21617150   1.198   5.160   3.621 -0.8815  0.0977 -0.2035
  154SAPS  H16R17151   1.141   5.231   3.684  1.4407  1.7152  0.2130
  154SAPS  H16S17152   1.254   5.221   3.547 -0.3084  1.2488  1.1438
  154SAPS  C21717153   1.312   5.087   3.702  0.0175  0.2151  0.2705
  154SAPS  H17R17154   1.404   5.148   3.713  0.8069 -0.6906 -0.9321
  154SAPS  H17S17155   1.340   4.994   3.647 -1.5577 -0.0632 -0.1189
  154SAPS  C21817156   1.257   5.042   3.838  0.3520  0.0086  0.4988
  154SAPS  H18R17157   1.321   4.961   3.879 -0.2592 -1.2866 -1.0008
  154SAPS  H18S17158   1.159   4.993   3.820  0.3078  0.7201 -1.5255
  154SAPS  C21917159   1.244   5.152   3.946 -0.0563 -0.4697 -0.1099
  154SAPS  H19R17160   1.198   5.241   3.898  1.2456 -0.0301 -0.5745
  154SAPS  H19S17161   1.346   5.181   3.980 -1.2881  1.1849  2.4970
  154SAPS  C22017162   1.185   5.107   4.081  0.6200  0.2170  0.4924
  154SAPS  H20R17163   1.078   5.133   4.093  0.9933  1.2544  1.7487
  154SAPS  H20S17164   1.235   5.157   4.167  0.8753 -0.5507  0.8006
  154SAPS  H20T17165   1.201   4.998   4.094  0.1328  0.2852  1.7631
  154SAPS   C3317166   0.376   5.144   2.525  0.5134  1.0396  0.4645
  154SAPS   H3X17167   0.471   5.101   2.563  0.0326 -0.3630  0.1313
  154SAPS   H3Y17168   0.313   5.054   2.508  0.4320  1.1742  0.0391
  154SAPS   C3417169   0.305   5.231   2.630 -0.0768 -0.0411 -0.2030
  154SAPS   H4X17170   0.231   5.289   2.570  0.0772 -0.5243 -0.8723
  154SAPS   H4Y17171   0.387   5.294   2.672 -0.1742 -0.5723  0.8073
  154SAPS   C3517172   0.253   5.149   2.741 -0.1103 -0.5765  0.3616
  154SAPS   H5X17173   0.179   5.075   2.706  1.2260 -2.9881  2.2765
  154SAPS   H5Y17174   0.211   5.209   2.824  0.5856  1.6576 -0.8127
  154SAPS   C3617175   0.371   5.084   2.815  0.4913 -0.3138  0.2150
  154SAPS   H6X17176   0.445   5.157   2.853 -0.0896  0.3743  0.0332
  154SAPS   H6Y17177   0.427   5.022   2.742 -1.3260  0.1955 -1.6840
  154SAPS   C3717178   0.328   4.998   2.940 -0.8920 -0.2105  0.0262
  154SAPS   H7X17179   0.272   4.907   2.913  0.7780 -1.5942  1.0091
  154SAPS   H7Y17180   0.259   5.063   2.999  1.3020  1.3351  1.0245
  154SAPS   C3817181   0.445   4.939   3.025  0.1330 -0.1213 -0.2664
  154SAPS   H8X17182   0.541   4.993   3.034 -0.1806  0.3939  0.0132
  154SAPS   H8Y17183   0.470   4.842   2.977 -0.8336 -0.9049  0.7522
  154SAPS   C3917184   0.405   4.906   3.166  0.6816  0.1736  0.1753
  154SAPS   H9X17185   0.375   5.000   3.219  1.2284  0.4530 -0.0046
  154SAPS   H9Y17186   0.497   4.867   3.214  0.4588 -1.7421 -0.8751
  154SAPS  C31017187   0.286   4.805   3.168 -0.4397 -0.6004  0.1553
  154SAPS  H10X17188   0.311   4.729   3.092  2.5505  1.0925 -0.7358
  154SAPS  H10Y17189   0.191   4.852   3.136  1.0990  1.9991 -0.8911
  154SAPS  C31117190   0.261   4.746   3.299  0.2453  0.3402 -0.5409
  154SAPS  H11X17191   0.357   4.705   3.337  0.9753  0.9505 -1.6807
  154SAPS  H11Y17192   0.187   4.664   3.284 -0.0707  0.7453 -1.2605
  154SAPS  C31217193   0.211   4.841   3.409  0.4562 -0.3207 -0.1901
  154SAPS  H12X17194   0.138   4.915   3.370 -1.9585 -0.7213  3.2374
  154SAPS  H12Y17195   0.301   4.896   3.445  0.2530  1.4171 -2.1211
  154SAPS  C31317196   0.146   4.760   3.516 -0.0617 -0.1007 -0.0375
  154SAPS  H13X17197   0.209   4.669   3.513 -0.1987 -0.2366 -3.9108
  154SAPS  H13Y17198   0.046   4.731   3.477  0.5315 -0.9937 -0.9138
  154SAPS  C31417199   0.153   4.822   3.652  0.3882 -0.3784  0.0011
  154SAPS  H14X17200   0.236   4.896   3.655 -0.2744  0.3697  0.2764
  154SAPS  H14Y17201   0.179   4.730   3.708  2.0524  0.6860  1.0856
  154SAPS  C31517202   0.033   4.892   3.718 -0.0681 -0.3299 -0.2480
  154SAPS  H15X17203   0.011   4.977   3.650  2.0308  0.0604 -0.5320
  154SAPS  H15Y17204   0.068   4.934   3.815  0.6088 -0.9571 -0.2137
  154SAPS  C31617205  -0.107   4.819   3.728 -0.4348  0.4575 -0.1083
  154SAPS  H16X17206  -0.142   4.812   3.623  0.0871 -2.3977 -0.1911
  154SAPS  H16Y17207  -0.169   4.882   3.794 -0.0572 -0.1145  0.8108
  154SAPS  C31717208  -0.094   4.674   3.781  0.1158 -0.1305 -0.6302
  154SAPS  H17X17209  -0.037   4.602   3.718 -0.7766 -2.9427  1.5753
  154SAPS  H17Y17210  -0.195   4.628   3.775  0.6674 -1.3958 -0.3754
  154SAPS  C31817211  -0.045   4.659   3.926 -0.0988  0.1509  0.2875
  154SAPS  H18X17212  -0.067   4.560   3.970  2.4942 -0.8074 -0.3852
  154SAPS  H18Y17213  -0.104   4.738   3.978 -1.4680 -1.3133  1.0359
  154SAPS  H18Z17214   0.061   4.683   3.946 -0.0700  1.5696 -1.2951
  155SAPS     N17215   1.821   1.068   2.046 -0.1653 -0.0069 -0.6669
  155SAPS   HN117216   1.744   0.998   2.052  0.2252 -0.3739  0.0786
  155SAPS   HN217217   1.884   1.062   2.128  0.5921  1.4035 -1.1086
  155SAPS   HN317218   1.774   1.160   2.033  0.2654  0.0323 -2.1172
  155SAPS   C1217219   1.886   1.030   1.917  0.1794  0.4575 -0.0617
  155SAPS  H12A17220   1.926   0.930   1.923 -0.2239  0.2461 -0.7484
  155SAPS   C1317221   1.798   1.034   1.797 -0.6876  0.8842  0.1022
  155SAPS  O13A17222   1.675   1.070   1.801  0.4381  0.3145  0.3771
  155SAPS  O13B17223   1.847   0.999   1.684  0.5279 -0.1070 -0.3057
  155SAPS   C1117224   2.007   1.118   1.887  0.4868  0.6662  0.5247
  155SAPS  H11A17225   1.981   1.219   1.851  0.0684 -0.2806 -2.0669
  155SAPS  H11B17226   2.066   1.069   1.807  1.4162  0.8983  1.0518
  155SAPS     P17227   2.219   1.185   2.015 -0.2070  0.4945 -0.7561
  155SAPS   O1317228   2.241   1.274   1.898  0.7956 -0.2340 -0.3125
  155SAPS   O1417229   2.239   1.239   2.151 -0.1790  0.2883  0.0812
  155SAPS   O1217230   2.081   1.133   2.006 -0.1889  0.2821 -0.0644
  155SAPS   O1117231   2.299   1.050   1.987  0.0483 -0.5849  0.4116
  155SAPS    C117232   2.316   0.934   2.063  0.1449 -0.2207 -1.0132
  155SAPS    HA17233   2.236   0.908   2.134 -0.8793 -0.1397 -2.1131
  155SAPS    HB17234   2.309   0.845   1.997 -0.6488  0.7540 -2.3132
  155SAPS    C217235   2.443   0.933   2.149  0.8378 -0.6917  0.2505
  155SAPS    HS17236   2.457   0.830   2.188  2.5874 -1.8521 -3.0296
  155SAPS   O2117237   2.437   1.037   2.252  0.5285  0.4954  0.2261
  155SAPS   C2117238   2.344   1.023   2.340 -0.6467  0.9194 -0.2170
  155SAPS   O2217239   2.269   0.931   2.362  0.4229  0.0842  0.2488
  155SAPS   C2217240   2.346   1.137   2.435 -0.7565 -0.7272  0.2637
  155SAPS   H2R17241   2.449   1.168   2.465  0.3554 -1.2111 -2.6931
  155SAPS   H2S17242   2.302   1.228   2.389 -0.0774  0.1081  1.2113
  155SAPS    C317243   2.575   0.961   2.062  1.2455 -0.1235  0.2533
  155SAPS    HX17244   2.574   1.068   2.032  1.8402 -0.1084  0.2821
  155SAPS    HY17245   2.568   0.903   1.967 -1.4817 -0.2252  0.4491
  155SAPS   O3117246   2.699   0.940   2.131  0.4369 -0.2423  0.2688
  155SAPS   C3117247   2.739   0.814   2.124  0.1562  0.2514 -0.1151
  155SAPS   O3217248   2.676   0.720   2.076 -0.2082  0.8399 -0.3219
  155SAPS   C3217249   2.875   0.796   2.193  0.3096  0.4197 -0.9075
  155SAPS   H2X17250   2.933   0.718   2.140  0.1960  1.4124 -2.5931
  155SAPS   H2Y17251   2.848   0.769   2.297 -1.3220 -0.4486 -1.5306
  155SAPS   C2317252   2.284   1.089   2.566 -0.3175  0.1049 -0.1657
  155SAPS   H3R17253   2.320   0.990   2.602  0.4362  0.2837 -0.4134
  155SAPS   H3S17254   2.175   1.094   2.545  0.0443  1.8039 -1.9396
  155SAPS   C2417255   2.307   1.200   2.669  0.0839 -0.5044 -0.3244
  155SAPS   H4R17256   2.230   1.176   2.746 -0.2083  1.2255 -0.0235
  155SAPS   H4S17257   2.290   1.300   2.625  0.8182 -0.0375  0.4085
  155SAPS   C2517258   2.445   1.191   2.735  0.3901  0.3548  0.3907
  155SAPS   H5R17259   2.526   1.198   2.661 -0.8557  1.1273 -0.9335
  155SAPS   C2617260   2.475   1.157   2.863  0.1372  0.3136 -0.1067
  155SAPS   H6R17261   2.572   1.187   2.905 -0.0823  0.4809  0.2829
  155SAPS   C2717262   2.362   1.140   2.964 -0.0749  0.3244 -0.2759
  155SAPS   H7R17263   2.274   1.195   2.924  0.8271  0.0629 -2.8125
  155SAPS   H7S17264   2.394   1.185   3.061 -1.7524  0.9455  0.0226
  155SAPS   C2817265   2.323   0.994   2.984  0.0529  0.3335  0.3929
  155SAPS   H8R17266   2.288   0.941   2.894  0.1673  1.1333 -0.1362
  155SAPS   C2917267   2.338   0.925   3.097  0.0661  0.0311 -0.0607
  155SAPS   H9R17268   2.304   0.821   3.088 -0.3554  0.3667 -3.6366
  155SAPS  C21017269   2.396   0.978   3.232 -1.1225  0.4466 -0.3778
  155SAPS  H10R17270   2.376   1.086   3.245 -0.9082  0.6427 -1.5977
  155SAPS  H10S17271   2.505   0.963   3.224 -0.7176  3.4914 -2.1524
  155SAPS  C21117272   2.345   0.901   3.354 -0.3261  0.2859 -0.3184
  155SAPS  H11R17273   2.239   0.916   3.378 -0.8314 -2.5828 -0.4540
  155SAPS  C21217274   2.426   0.845   3.451 -0.4563  0.1540  0.1335
  155SAPS  H12R17275   2.373   0.795   3.534  0.8864  1.0812  1.5885
  155SAPS  C21317276   2.580   0.838   3.447  1.1905 -0.0368 -0.1562
  155SAPS  H13R17277   2.624   0.820   3.548  1.2234 -0.6819 -0.2779
  155SAPS  H13S17278   2.607   0.941   3.418 -1.6392  0.6444 -0.6593
  155SAPS  C21417279   2.628   0.734   3.356 -0.4867 -0.5267  0.3787
  155SAPS  H14R17280   2.555   0.652   3.347 -1.8928  0.6542  0.6110
  155SAPS  C21517281   2.747   0.723   3.303  0.0509 -0.0915 -0.1709
  155SAPS  H15R17282   2.759   0.637   3.235 -1.8328  0.7641 -1.6980
  155SAPS  C21617283   2.870   0.823   3.313 -0.3721  0.0856  0.7198
  155SAPS  H16R17284   2.958   0.787   3.370  0.5893 -0.3882 -0.9843
  155SAPS  H16S17285   2.844   0.924   3.350 -0.1923  0.8965 -1.2762
  155SAPS  C21717286   2.929   0.858   3.174  0.6004 -0.0010 -0.0742
  155SAPS  H17R17287   2.974   0.765   3.132  1.0075 -0.0445  0.4466
  155SAPS  H17S17288   3.001   0.941   3.183  0.6991  0.0380 -1.1098
  155SAPS  C21817289   2.821   0.925   3.074 -0.6679  0.3586 -0.3365
  155SAPS  H18R17290   2.772   1.003   3.138  0.6899  0.4648  0.6218
  155SAPS  H18S17291   2.742   0.849   3.060  0.7565 -1.4050  0.7767
  155SAPS  C21917292   2.876   0.960   2.928 -0.4626 -0.0878 -0.0724
  155SAPS  H19R17293   2.959   1.034   2.928  1.4108 -2.0328 -1.7696
  155SAPS  H19S17294   2.786   1.001   2.879 -0.3999 -0.8745 -0.8748
  155SAPS  C22017295   2.932   0.838   2.848  0.5609 -0.5324 -0.0038
  155SAPS  H20R17296   2.977   0.869   2.751 -3.0286 -0.6753 -1.8719
  155SAPS  H20S17297   2.852   0.768   2.817  0.9707 -0.2658 -1.8056
  155SAPS  H20T17298   3.018   0.796   2.905 -0.2270 -2.2178  0.0112
  155SAPS   C3317299   2.962   0.923   2.184  0.2314 -0.3285 -0.5510
  155SAPS   H3X17300   2.911   1.003   2.243  1.9818 -1.6418  3.0775
  155SAPS   H3Y17301   2.967   0.946   2.076  1.5687  1.4648 -0.1568
  155SAPS   C3417302   3.100   0.900   2.243  0.1736 -0.0054  0.5735
  155SAPS   H4X17303   3.161   0.824   2.188 -2.5715 -1.3968 -0.7447
  155SAPS   H4Y17304   3.076   0.849   2.339 -2.0928 -1.1495 -0.5247
  155SAPS   C3517305   3.179   1.026   2.269 -1.1120  0.6678 -0.0446
  155SAPS   H5X17306   3.112   1.104   2.311 -1.0065  0.5082  0.4291
  155SAPS   H5Y17307   3.217   1.074   2.176  1.8939  0.5154  1.0059
  155SAPS   C3617308   3.285   0.992   2.374  0.4993  0.7876  0.0316
  155SAPS   H6X17309   3.356   1.076   2.362 -0.0463  1.0879 -1.2427
  155SAPS   H6Y17310   3.333   0.893   2.361 -0.6828  0.0571  1.0374
  155SAPS   C3717311   3.246   1.000   2.527  0.3446  0.4140  0.3368
  155SAPS   H7X17312   3.160   0.931   2.536  2.4675 -2.6461 -0.9569
  155SAPS   H7Y17313   3.214   1.105   2.537  0.1124  0.5810 -1.6345
  155SAPS   C3817314   3.354   0.959   2.629 -0.4816 -0.2980  0.1984
  155SAPS   H8X17315   3.435   1.035   2.627 -1.8677  1.2013 -0.7812
  155SAPS   H8Y17316   3.395   0.861   2.595 -0.1890 -0.9341  2.2601
  155SAPS   C3917317   3.297   0.935   2.773  0.1516  0.8144  1.2559
  155SAPS   H9X17318   3.383   0.877   2.814 -0.1201  0.8593  1.8925
  155SAPS   H9Y17319   3.206   0.873   2.762  1.6577 -1.6970  1.9290
  155SAPS  C31017320   3.292   1.061   2.860  0.6454  0.2608  0.1166
  155SAPS  H10X17321   3.200   1.110   2.821  1.7448  1.3925 -1.1407
  155SAPS  H10Y17322   3.374   1.136   2.855  0.1746  0.8959  1.4154
  155SAPS  C31117323   3.258   1.034   3.006  0.1046 -0.4238 -1.1700
  155SAPS  H11X17324   3.200   0.940   3.017  1.9028 -1.2410  4.7453
  155SAPS  H11Y17325   3.193   1.118   3.037  0.9923 -0.6920  1.7035
  155SAPS  C31217326   3.382   1.006   3.094  0.3496 -0.0480 -0.4944
  155SAPS  H12X17327   3.438   1.099   3.120  0.0998 -0.1015  0.2570
  155SAPS  H12Y17328   3.464   0.959   3.036 -0.2229 -0.4902 -0.9533
  155SAPS  C31317329   3.364   0.929   3.229 -0.5114 -0.1354 -0.7246
  155SAPS  H13X17330   3.455   0.909   3.289 -1.1526  2.4936  1.3200
  155SAPS  H13Y17331   3.316   0.833   3.201 -0.9169  0.1700 -1.0926
  155SAPS  C31417332   3.271   1.004   3.326  0.3088 -0.1563 -0.1053
  155SAPS  H14X17333   3.175   1.010   3.270 -0.5981 -2.5537  1.0961
  155SAPS  H14Y17334   3.308   1.107   3.347 -0.2040  0.1943 -0.8776
  155SAPS  C31517335   3.245   0.911   3.453  0.7333 -0.0738 -0.1726
  155SAPS  H15X17336   3.338   0.907   3.515  0.3607  1.2597  0.5042
  155SAPS  H15Y17337   3.229   0.807   3.418  0.7995  0.1896 -0.9902
  155SAPS  C31617338   3.129   0.970   3.539  0.2066 -0.2289 -0.4937
  155SAPS  H16X17339   3.038   1.010   3.488  0.1836  0.7005  0.2499
  155SAPS  H16Y17340   3.173   1.053   3.598 -0.6749  1.2260 -1.7895
  155SAPS  C31717341   3.077   0.867   3.641  0.0983 -0.5107 -0.0347
  155SAPS  H17X17342   3.161   0.827   3.701  0.3973  3.0591  2.2213
  155SAPS  H17Y17343   3.031   0.786   3.581  0.7169 -1.9959  1.4274
  155SAPS  C31817344   2.986   0.934   3.738  0.4462 -0.4306  0.2106
  155SAPS  H18X17345   2.900   0.981   3.685 -0.3354 -1.1503  0.8088
  155SAPS  H18Y17346   3.049   1.013   3.784  0.8755 -1.6661  1.8614
  155SAPS  H18Z17347   2.953   0.865   3.819 -1.4948  0.2826  0.0740
  156SAPS     N17348   6.838   6.004   2.053 -0.1131  0.0842 -0.1009
  156SAPS   HN117349   6.770   6.082   2.067 -0.3899 -0.5252  2.3817
  156SAPS   HN217350   6.802   5.914   2.089 -0.1327 -0.3833 -1.2557
  156SAPS   HN317351   6.922   6.035   2.107  2.1207 -1.3978 -2.4867
  156SAPS   C1217352   6.880   6.002   1.910  0.5247  0.0615 -1.0457
  156SAPS  H12A17353   6.945   5.916   1.904  0.2716 -0.3442  1.1820
  156SAPS   C1317354   6.769   5.977   1.808 -0.5252  0.0614  0.8229
  156SAPS  O13A17355   6.648   5.993   1.846 -0.7187 -0.3597 -0.3782
  156SAPS  O13B17356   6.795   5.945   1.689 -0.3351 -0.0241  0.5934
  156SAPS   C1117357   6.950   6.145   1.876  0.2194  0.0407 -0.2676
  156SAPS  H11A17358   6.873   6.223   1.894  0.0538  0.2943 -1.8809
  156SAPS  H11B17359   6.985   6.143   1.770 -1.0360  2.1651 -0.7805
  156SAPS     P17360   7.120   6.306   1.980  0.2425  0.4082  0.0516
  156SAPS   O1317361   7.178   6.365   1.857  0.2584  0.2312 -0.1114
  156SAPS   O1417362   7.008   6.382   2.045  0.1799  0.3571 -0.2433
  156SAPS   O1217363   7.058   6.162   1.959 -0.4715  0.1524  0.1272
  156SAPS   O1117364   7.236   6.288   2.085 -0.7075 -0.0535  0.6760
  156SAPS    C117365   7.327   6.178   2.072  0.9995  0.5115 -0.0246
  156SAPS    HA17366   7.340   6.150   1.965 -1.3695 -0.4003 -0.1332
  156SAPS    HB17367   7.424   6.213   2.115  1.1640  1.4629 -1.1341
  156SAPS    C217368   7.275   6.060   2.159  0.4404 -0.0768  0.0627
  156SAPS    HS17369   7.186   6.023   2.104  0.2944 -2.2248  1.5899
  156SAPS   O2117370   7.227   6.115   2.282 -0.9081 -0.1870 -0.3393
  156SAPS   C2117371   7.098   6.137   2.299 -0.1948 -0.4492  0.4686
  156SAPS   O2217372   7.015   6.086   2.226  0.1716  0.0020  0.1450
  156SAPS   C2217373   7.066   6.243   2.406 -0.6422  0.4237 -0.5443
  156SAPS   H2R17374   7.162   6.259   2.460  0.8281  0.5606 -3.0563
  156SAPS   H2S17375   7.047   6.347   2.370 -2.2087  0.2100 -0.4301
  156SAPS    C317376   7.384   5.956   2.185 -1.2845  0.3614  0.7706
  156SAPS    HX17377   7.402   5.891   2.097  0.5825 -0.5738  1.7827
  156SAPS    HY17378   7.356   5.882   2.263  1.7004 -0.3217  1.3455
  156SAPS   O3117379   7.507   6.016   2.231 -0.0548  0.2406 -0.4055
  156SAPS   C3117380   7.609   5.926   2.250 -0.2639 -1.1073  0.1811
  156SAPS   O3217381   7.612   5.811   2.212  0.7597  0.1061 -0.6735
  156SAPS   C3217382   7.734   5.987   2.311 -0.2319 -0.2182  0.6491
  156SAPS   H2X17383   7.721   6.091   2.349 -1.3531 -0.4319  0.8772
  156SAPS   H2Y17384   7.798   5.997   2.221 -0.9940  0.2657  0.1561
  156SAPS   C2317385   6.953   6.202   2.502  0.3138 -0.6922 -0.0449
  156SAPS   H3R17386   6.860   6.181   2.445  0.7121  1.1505 -1.4531
  156SAPS   H3S17387   6.933   6.292   2.564  0.7016 -1.4379  1.2118
  156SAPS   C2417388   7.001   6.095   2.608 -0.4044 -0.0882  0.1976
  156SAPS   H4R17389   7.061   6.020   2.553 -0.8604 -0.3608  0.0692
  156SAPS   H4S17390   6.908   6.050   2.648 -0.1432 -0.7167  0.0989
  156SAPS   C2517391   7.088   6.153   2.720 -0.1570  0.2423 -0.3059
  156SAPS   H5R17392   7.189   6.186   2.691  0.9883  0.2542  3.2187
  156SAPS   C2617393   7.047   6.163   2.849  0.6099  0.2466 -0.3289
  156SAPS   H6R17394   7.112   6.214   2.922 -1.0179  1.9532  0.0110
  156SAPS   C2717395   6.905   6.137   2.898 -0.3105  0.4257 -0.2140
  156SAPS   H7R17396   6.882   6.028   2.890  0.2475 -0.0043  2.9352
  156SAPS   H7S17397   6.837   6.179   2.821  0.2443  0.8641 -0.4789
  156SAPS   C2817398   6.877   6.177   3.037  0.1220  0.4617  0.2066
  156SAPS   H8R17399   6.958   6.157   3.108  2.5752  0.0158 -2.5082
  156SAPS   C2917400   6.763   6.235   3.082 -0.5488 -0.2102  0.3461
  156SAPS   H9R17401   6.738   6.243   3.189 -4.4754 -2.4191 -0.2024
  156SAPS  C21017402   6.638   6.271   3.006  0.5965 -0.3798 -1.0660
  156SAPS  H10R17403   6.652   6.279   2.896  1.1032 -4.2908 -1.4205
  156SAPS  H10S17404   6.600   6.367   3.046  1.4501 -0.5010  0.0792
  156SAPS  C21117405   6.532   6.164   3.016  0.2886 -0.4907  0.4954
  156SAPS  H11R17406   6.520   6.123   2.914 -0.3743  1.1484 -0.1206
  156SAPS  C21217407   6.466   6.120   3.127  0.5770 -0.5965  0.1158
  156SAPS  H12R17408   6.409   6.027   3.113  0.0162 -0.3466  0.7178
  156SAPS  C21317409   6.476   6.166   3.271  0.7411  0.1691 -0.7774
  156SAPS  H13R17410   6.576   6.210   3.289  2.3420 -3.0250 -1.1714
  156SAPS  H13S17411   6.492   6.073   3.330  1.3849 -0.1956 -1.5015
  156SAPS  C21417412   6.349   6.235   3.308 -0.1193 -0.2798 -0.0055
  156SAPS  H14R17413   6.250   6.196   3.280 -0.9750 -0.0079  2.4311
  156SAPS  C21517414   6.337   6.337   3.396 -0.0326  0.2258  0.1438
  156SAPS  H15R17415   6.236   6.370   3.422 -0.3903  1.4210 -2.4900
  156SAPS  C21617416   6.447   6.408   3.472 -0.2453 -0.6667 -0.1818
  156SAPS  H16R17417   6.445   6.519   3.468 -0.4596 -0.7012 -1.4291
  156SAPS  H16S17418   6.547   6.389   3.428  0.0721  1.2952 -0.3861
  156SAPS  C21717419   6.464   6.364   3.618 -0.4315 -0.2615 -0.0510
  156SAPS  H17R17420   6.496   6.258   3.620 -1.8662 -0.8065 -2.3308
  156SAPS  H17S17421   6.368   6.380   3.672 -1.4010 -0.5380 -1.6213
  156SAPS  C21817422   6.573   6.435   3.706  0.2242 -0.5468 -0.0478
  156SAPS  H18R17423   6.545   6.540   3.730 -2.1169 -0.0763 -3.8949
  156SAPS  H18S17424   6.665   6.437   3.643  1.2229  2.0118  1.3423
  156SAPS  C21917425   6.602   6.367   3.836  0.2050  0.8917  0.6621
  156SAPS  H19R17426   6.701   6.397   3.877  0.0114  1.4142  0.7511
  156SAPS  H19S17427   6.617   6.262   3.803  1.5119  0.3880  2.6256
  156SAPS  C22017428   6.495   6.384   3.946 -0.3353  0.2370 -0.1534
  156SAPS  H20R17429   6.392   6.376   3.904  0.0623 -0.8275 -0.9695
  156SAPS  H20S17430   6.499   6.488   3.985 -1.2041 -0.1837  1.1530
  156SAPS  H20T17431   6.503   6.312   4.030 -2.9094 -0.4963 -0.4667
  156SAPS   C3317432   7.825   5.900   2.407 -0.2331 -0.4689  0.4092
  156SAPS   H3X17433   7.931   5.895   2.374 -0.3993 -0.7903 -0.0949
  156SAPS   H3Y17434   7.776   5.801   2.409 -1.0581 -0.0638  1.1399
  156SAPS   C3417435   7.807   5.944   2.555  0.4123  0.7959 -0.3666
  156SAPS   H4X17436   7.704   5.929   2.595  0.5579 -1.6721 -0.7315
  156SAPS   H4Y17437   7.816   6.054   2.563 -1.6333  0.9059  1.5766
  156SAPS   C3517438   7.900   5.873   2.647 -0.4057 -0.3683 -0.0466
  156SAPS   H5X17439   8.004   5.909   2.631 -0.1797 -0.2546  1.5931
  156SAPS   H5Y17440   7.894   5.762   2.649 -0.6570 -0.3490  1.6417
  156SAPS   C3617441   7.866   5.907   2.795  0.2487 -0.3128 -0.1444
  156SAPS   H6X17442   7.755   5.911   2.798  0.2293  1.1715 -1.6046
  156SAPS   H6Y17443   7.898   6.012   2.813  0.1462 -0.3325  0.1619
  156SAPS   C3717444   7.930   5.821   2.906 -0.7941  0.3878  0.0344
  156SAPS   H7X17445   8.025   5.874   2.929 -0.3193 -1.3872  2.6641
  156SAPS   H7Y17446   7.958   5.717   2.878 -0.9000  0.4112 -0.1632
  156SAPS   C3817447   7.849   5.831   3.029  0.3665 -0.1666 -0.2379
  156SAPS   H8X17448   7.755   5.773   3.023  1.8285 -2.9537  1.5435
  156SAPS   H8Y17449   7.813   5.936   3.026 -0.8595 -0.6045 -1.8939
  156SAPS   C3917450   7.923   5.784   3.157 -0.1027  0.1655  0.6364
  156SAPS   H9X17451   7.988   5.870   3.186 -2.9867  3.0602 -0.7837
  156SAPS   H9Y17452   7.986   5.695   3.137 -0.9884 -0.2785 -0.2772
  156SAPS  C31017453   7.825   5.743   3.267 -0.4709 -0.0872 -0.0535
  156SAPS  H10X17454   7.734   5.705   3.215 -0.3424  1.5898 -1.6111
  156SAPS  H10Y17455   7.797   5.836   3.321 -0.2642 -0.4390  0.6683
  156SAPS  C31117456   7.899   5.652   3.365 -0.7198 -0.0647 -0.0240
  156SAPS  H11X17457   7.993   5.700   3.398 -0.2412 -0.1966 -1.1745
  156SAPS  H11Y17458   7.932   5.553   3.326  1.0744 -0.4750  2.3041
  156SAPS  C31217459   7.821   5.634   3.500 -0.3329 -0.1141 -0.3363
  156SAPS  H12X17460   7.722   5.592   3.472 -0.5914 -0.6641  1.3100
  156SAPS  H12Y17461   7.801   5.728   3.554 -1.6898 -0.7491  0.3067
  156SAPS  C31317462   7.868   5.512   3.587 -0.6278 -0.0890  0.9166
  156SAPS  H13X17463   7.861   5.426   3.516  1.1916 -1.1605  1.9675
  156SAPS  H13Y17464   7.791   5.504   3.668 -0.5795 -2.7861  0.7951
  156SAPS  C31417465   8.012   5.532   3.639  0.1862 -0.0236 -0.4269
  156SAPS  H14X17466   8.036   5.638   3.618 -0.5487  0.0109 -1.1204
  156SAPS  H14Y17467   8.087   5.480   3.575  1.4099  0.9455  0.1680
  156SAPS  C31517468   8.032   5.497   3.789 -0.0141  0.5382 -0.0961
  156SAPS  H15X17469   8.034   5.386   3.788  2.4140  0.5405 -0.9870
  156SAPS  H15Y17470   7.950   5.543   3.849 -0.5968  0.8510 -1.1138
  156SAPS  C31617471   8.168   5.547   3.837  0.1933 -0.2716 -0.2067
  156SAPS  H16X17472   8.208   5.649   3.823  0.7253 -0.5226 -0.5381
  156SAPS  H16Y17473   8.240   5.482   3.782  2.2755 -0.7344  2.7792
  156SAPS  C31717474   8.180   5.519   3.984 -0.4189  0.0232  0.2179
  156SAPS  H17X17475   8.135   5.418   3.992 -3.6328  1.0087 -2.6519
  156SAPS  H17Y17476   8.115   5.576   4.054  3.2397  2.6288  1.7714
  156SAPS  C31817477   8.318   5.539   4.032  0.9430  0.6042  0.3470
  156SAPS  H18X17478   8.391   5.486   3.967 -0.6709 -2.4770  0.8477
  156SAPS  H18Y17479   8.315   5.491   4.133 -1.4127  0.2085  0.1450
  156SAPS  H18Z17480   8.341   5.647   4.042  0.3800  0.7805 -0.2568
  157SAPS     N17481   6.427   6.004   2.007 -0.6849  0.1427 -0.1895
  157SAPS   HN117482   6.431   6.102   2.042  0.7407  0.2580 -0.5813
  157SAPS   HN217483   6.449   5.943   2.088  0.5078 -1.2632 -1.5117
  157SAPS   HN317484   6.489   5.994   1.924 -0.7551  1.7420 -0.4684
  157SAPS   C1217485   6.289   5.982   1.955 -0.7327 -0.0651  0.6068
  157SAPS  H12A17486   6.221   5.985   2.039 -1.0773 -2.5787  0.5168
  157SAPS   C1317487   6.229   6.083   1.859 -0.2887 -0.2848 -0.2981
  157SAPS  O13A17488   6.294   6.188   1.842  0.7380 -0.2442 -0.0639
  157SAPS  O13B17489   6.107   6.076   1.838  0.0095  0.3347 -0.3318
  157SAPS   C1117490   6.293   5.835   1.889  0.0683 -0.8953  0.2283
  157SAPS  H11A17491   6.366   5.845   1.806 -2.4858  0.8574 -1.9893
  157SAPS  H11B17492   6.197   5.832   1.835  0.3472 -0.0447 -0.3352
  157SAPS     P17493   6.404   5.607   1.953 -0.1360 -0.5351 -0.4813
  157SAPS   O1317494   6.325   5.504   1.886  0.1326  0.1970 -0.5509
  157SAPS   O1417495   6.516   5.658   1.874 -0.0446 -0.2572  0.2844
  157SAPS   O1217496   6.311   5.729   1.982 -0.1786 -1.0070  0.1046
  157SAPS   O1117497   6.449   5.561   2.104 -0.1596  0.0776  0.0632
  157SAPS    C117498   6.345   5.539   2.200  0.6192  0.2145 -0.3490
  157SAPS    HA17499   6.252   5.492   2.160  0.5154 -0.1078  0.2491
  157SAPS    HB17500   6.389   5.453   2.254  0.9794  0.4627 -0.2421
  157SAPS    C217501   6.322   5.663   2.286 -0.3618 -0.1594 -0.3499
  157SAPS    HS17502   6.294   5.750   2.222  3.6917  1.8647  0.3536
  157SAPS   O2117503   6.446   5.688   2.355 -0.4593  0.3790  0.0379
  157SAPS   C2117504   6.526   5.785   2.311  0.0643 -0.4985 -0.6578
  157SAPS   O2217505   6.512   5.855   2.215 -0.1259  0.3987 -0.1348
  157SAPS   C2217506   6.642   5.806   2.410 -0.0154  0.5327  0.1742
  157SAPS   H2R17507   6.703   5.713   2.412  1.2401  1.3395  1.2420
  157SAPS   H2S17508   6.712   5.886   2.380  3.4646 -1.2561  2.7660
  157SAPS    C317509   6.196   5.649   2.383 -0.3304  0.4078 -0.0150
  157SAPS    HX17510   6.187   5.741   2.445 -1.0151 -1.3041  2.5770
  157SAPS    HY17511   6.215   5.558   2.443  2.4963  1.2424  0.5021
  157SAPS   O3117512   6.078   5.632   2.303 -0.0714  0.6173  0.2763
  157SAPS   C3117513   6.020   5.745   2.250 -1.1870  0.4078  0.3280
  157SAPS   O3217514   6.082   5.847   2.239  0.1155  0.7154 -0.4645
  157SAPS   C3217515   5.878   5.715   2.200  0.5305  0.0999 -0.5799
  157SAPS   H2X17516   5.879   5.668   2.100 -0.4960  0.1114 -0.6038
  157SAPS   H2Y17517   5.836   5.817   2.195  1.6797  0.6459  0.2128
  157SAPS   C2317518   6.590   5.825   2.561 -0.2059  0.3726  0.9763
  157SAPS   H3R17519   6.667   5.774   2.622  3.2114  0.5099 -2.8351
  157SAPS   H3S17520   6.491   5.776   2.574  0.2225 -0.6793  0.3528
  157SAPS   C2417521   6.579   5.968   2.598 -0.0183  0.1677 -0.0624
  157SAPS   H4R17522   6.678   6.018   2.586 -0.2269  0.6790  0.3262
  157SAPS   H4S17523   6.558   5.963   2.707  2.1674 -2.4798  0.3464
  157SAPS   C2517524   6.477   6.039   2.516 -0.6682 -0.2417 -0.3852
  157SAPS   H5R17525   6.520   6.114   2.448 -0.5224  0.5090  0.5100
  157SAPS   C2617526   6.347   6.062   2.539  0.3555 -0.3997  0.6421
  157SAPS   H6R17527   6.282   6.129   2.482 -2.1460 -1.2909  2.3058
  157SAPS   C2717528   6.265   6.003   2.653  0.6846 -0.3895  0.0159
  157SAPS   H7R17529   6.264   6.078   2.735  2.1518 -0.0494 -0.2402
  157SAPS   H7S17530   6.319   5.911   2.683  0.3532 -1.1357 -1.5735
  157SAPS   C2817531   6.127   5.966   2.603 -0.2106 -0.2859 -0.0205
  157SAPS   H8R17532   6.078   6.034   2.532 -2.1847 -0.5890  0.9879
  157SAPS   C2917533   6.059   5.858   2.651 -0.6515 -0.5676  0.0062
  157SAPS   H9R17534   5.960   5.842   2.605 -0.6219  1.5281 -0.9264
  157SAPS  C21017535   6.099   5.754   2.758  0.0635  0.4708  0.4742
  157SAPS  H10R17536   6.186   5.788   2.819 -0.6192  0.5462  1.4276
  157SAPS  H10S17537   6.121   5.656   2.712 -1.0258 -0.1718  1.2564
  157SAPS  C21117538   5.984   5.745   2.853 -0.5411  0.2968 -0.5645
  157SAPS  H11R17539   5.898   5.683   2.823 -3.1426  2.6537  1.5191
  157SAPS  C21217540   5.976   5.790   2.983 -0.1572  0.0702  0.5145
  157SAPS  H12R17541   5.885   5.766   3.040 -0.5545  0.7237  0.1637
  157SAPS  C21317542   6.076   5.874   3.062 -0.0785  0.4710 -0.1262
  157SAPS  H13R17543   6.167   5.899   3.003 -1.1084  1.4324 -1.3742
  157SAPS  H13S17544   6.113   5.815   3.148  0.2945 -0.0522 -0.6358
  157SAPS  C21417545   6.022   6.003   3.119 -0.2887  0.4545  0.3782
  157SAPS  H14R17546   6.036   6.090   3.054  1.3114 -1.1375 -1.4993
  157SAPS  C21517547   5.956   6.019   3.233 -0.3948  0.0056 -0.3048
  157SAPS  H15R17548   5.945   6.119   3.277  1.9867 -0.1411  0.7699
  157SAPS  C21617549   5.923   5.911   3.330 -0.2454 -0.0205  0.4670
  157SAPS  H16R17550   5.967   5.816   3.293 -0.4316  0.6519 -1.6388
  157SAPS  H16S17551   5.813   5.890   3.333 -0.0289 -1.2335  0.4677
  157SAPS  C21717552   5.987   5.944   3.466  0.4593 -0.0894 -0.5923
  157SAPS  H17R17553   5.995   6.051   3.497  0.9016 -0.2101 -0.2802
  157SAPS  H17S17554   6.094   5.915   3.457  1.4503  3.0121 -0.2428
  157SAPS  C21817555   5.916   5.880   3.584  0.2627 -0.6305 -0.4702
  157SAPS  H18R17556   5.820   5.934   3.598  0.9202 -0.0723  2.8273
  157SAPS  H18S17557   5.972   5.892   3.679  0.4497 -1.3971 -0.4793
  157SAPS  C21917558   5.876   5.729   3.571 -0.0500 -0.4860 -0.2469
  157SAPS  H19R17559   5.972   5.674   3.561  0.7557  0.9461 -0.6222
  157SAPS  H19S17560   5.820   5.707   3.478 -0.1247  0.0659 -0.3386
  157SAPS  C22017561   5.812   5.683   3.704 -0.5041 -0.1805 -0.3605
  157SAPS  H20R17562   5.785   5.576   3.721 -0.1361 -0.0434  1.2312
  157SAPS  H20S17563   5.721   5.744   3.720 -2.1045 -2.7827  1.1414
  157SAPS  H20T17564   5.886   5.693   3.786 -0.6912 -3.3702  0.3242
  157SAPS   C3317565   5.798   5.619   2.291  0.0653 -0.6416 -0.4021
  157SAPS   H3X17566   5.853   5.523   2.298 -0.6317 -0.9917  0.4761
  157SAPS   H3Y17567   5.708   5.590   2.233  0.1346  0.5052 -1.1186
  157SAPS   C3417568   5.748   5.665   2.425  0.4515  0.5586  0.0378
  157SAPS   H4X17569   5.682   5.752   2.404  0.5316  0.8631  0.9868
  157SAPS   H4Y17570   5.828   5.691   2.498 -0.6121  0.8197  1.1463
  157SAPS   C3517571   5.673   5.549   2.492 -0.8577  0.1057 -0.9822
  157SAPS   H5X17572   5.743   5.473   2.531 -0.5337  0.4338 -0.9278
  157SAPS   H5Y17573   5.604   5.501   2.419  0.3248 -0.6988 -1.5959
  157SAPS   C3617574   5.581   5.597   2.608 -0.4145 -0.0417  0.4663
  157SAPS   H6X17575   5.518   5.506   2.619  0.9371 -0.9445  1.1104
  157SAPS   H6Y17576   5.503   5.667   2.572  1.4393  1.2862 -1.1810
  157SAPS   C3717577   5.647   5.647   2.731  0.2818  0.2819 -0.6365
  157SAPS   H7X17578   5.719   5.732   2.721 -2.3632  3.0624  1.7546
  157SAPS   H7Y17579   5.704   5.557   2.764  1.8986  1.8376  1.0762
  157SAPS   C3817580   5.538   5.675   2.845 -0.6731 -0.3750 -0.8537
  157SAPS   H8X17581   5.464   5.592   2.848 -0.0508 -0.9769 -1.5685
  157SAPS   H8Y17582   5.474   5.764   2.828 -0.9994 -0.2933  0.6846
  157SAPS   C3917583   5.597   5.679   2.985  0.0047 -0.0909 -0.1961
  157SAPS   H9X17584   5.682   5.750   2.998 -1.1426  1.0785  1.2935
  157SAPS   H9Y17585   5.643   5.578   2.995 -1.6437 -0.8386  0.0705
  157SAPS  C31017586   5.501   5.709   3.104 -0.8387 -0.1169 -0.3013
  157SAPS  H10X17587   5.414   5.640   3.092 -0.8631  0.1383 -1.8447
  157SAPS  H10Y17588   5.459   5.811   3.093 -0.4154  0.2538  1.2809
  157SAPS  C31117589   5.553   5.697   3.246 -0.4618 -0.5314  0.4703
  157SAPS  H11X17590   5.600   5.792   3.279  3.4748 -1.3774 -2.0178
  157SAPS  H11Y17591   5.643   5.632   3.246 -0.0830 -0.0203 -0.3486
  157SAPS  C31217592   5.443   5.636   3.338  0.3573 -0.1152 -0.0483
  157SAPS  H12X17593   5.427   5.530   3.307  2.8139  0.1426 -2.7375
  157SAPS  H12Y17594   5.354   5.701   3.325  0.2133 -0.3239 -0.1000
  157SAPS  C31317595   5.481   5.655   3.482  0.2592  0.1926  0.6564
  157SAPS  H13X17596   5.513   5.761   3.496  1.0557  0.3781 -2.1176
  157SAPS  H13Y17597   5.580   5.607   3.494  1.1951  1.3063 -1.9050
  157SAPS  C31417598   5.361   5.608   3.579 -0.3034 -0.0084 -0.1769
  157SAPS  H14X17599   5.333   5.502   3.560 -0.5247 -0.4236  2.2321
  157SAPS  H14Y17600   5.270   5.670   3.565 -1.4985 -1.6811 -0.1334
  157SAPS  C31517601   5.419   5.617   3.722  0.3005  0.0197  0.5092
  157SAPS  H15X17602   5.522   5.575   3.717  0.9867  1.6204  0.5523
  157SAPS  H15Y17603   5.358   5.552   3.788 -1.5395  3.0210  1.9850
  157SAPS  C31617604   5.412   5.759   3.786 -0.1861 -0.3949  0.3371
  157SAPS  H16X17605   5.303   5.771   3.768 -0.6718 -1.3724  2.3518
  157SAPS  H16Y17606   5.467   5.836   3.728  0.1611  0.7987  2.1759
  157SAPS  C31717607   5.448   5.761   3.932 -0.1208 -0.1890 -0.4068
  157SAPS  H17X17608   5.380   5.694   3.989 -2.1204  1.6433 -0.4899
  157SAPS  H17Y17609   5.426   5.863   3.970 -2.0393 -0.9531  0.7058
  157SAPS  C31817610   5.600   5.740   3.961  0.0460  0.4728 -0.0715
  157SAPS  H18X17611   5.649   5.647   3.926  0.6519  0.6537  0.2787
  157SAPS  H18Y17612   5.622   5.753   4.069 -0.1500 -0.4670  0.0872
  157SAPS  H18Z17613   5.658   5.817   3.906  2.4556 -1.7702 -0.8356
  158SAPS     N17614   2.939   6.714   2.067  0.5846  0.7710 -0.4193
  158SAPS   HN117615   2.906   6.686   2.162  0.8958  0.2802 -0.4531
  158SAPS   HN217616   3.039   6.691   2.052  0.4070  0.4832 -1.2020
  158SAPS   HN317617   2.926   6.817   2.058 -0.9273  0.4670 -2.5912
  158SAPS   C1217618   2.869   6.642   1.956 -0.0960 -0.4487  0.4004
  158SAPS  H12A17619   2.861   6.717   1.879 -2.9165 -0.5231  0.5228
  158SAPS   C1317620   2.953   6.519   1.904  0.4038 -0.4366  0.5362
  158SAPS  O13A17621   3.070   6.502   1.953 -0.0194 -0.6473 -0.1993
  158SAPS  O13B17622   2.937   6.473   1.786  0.0785  0.0275 -0.3164
  158SAPS   C1117623   2.725   6.604   2.007 -0.3880  0.3945 -0.4369
  158SAPS  H11A17624   2.730   6.533   2.093  1.1343  0.8084 -0.1606
  158SAPS  H11B17625   2.692   6.542   1.921 -0.8072 -2.8976  1.8913
  158SAPS     P17626   2.499   6.713   2.089 -0.0312  0.1839 -0.2463
  158SAPS   O1317627   2.457   6.854   2.103 -0.2791 -0.4110  0.0189
  158SAPS   O1417628   2.414   6.613   2.022  0.3558  0.4190 -0.4285
  158SAPS   O1217629   2.639   6.714   2.026 -0.0224 -0.3121 -0.4066
  158SAPS   O1117630   2.537   6.659   2.235  0.0587 -0.4171 -0.1610
  158SAPS    C117631   2.575   6.759   2.337  0.4597  0.1213  0.3558
  158SAPS    HA17632   2.682   6.790   2.326  0.1020  1.0804 -0.5096
  158SAPS    HB17633   2.512   6.850   2.340 -0.3179 -0.4130  0.3425
  158SAPS    C217634   2.558   6.708   2.482  0.7275  0.4640  0.1332
  158SAPS    HS17635   2.526   6.793   2.547 -0.7749 -0.0983  0.1628
  158SAPS   O2117636   2.684   6.640   2.510  0.5179  0.4407  0.2597
  158SAPS   C2117637   2.703   6.624   2.636 -0.5740  0.3798  0.4967
  158SAPS   O2217638   2.635   6.661   2.727  0.1608  0.2313 -0.3894
  158SAPS   C2217639   2.822   6.526   2.646 -0.3492 -0.2070 -0.8372
  158SAPS   H2R17640   2.902   6.594   2.608  0.9828 -0.8191  0.7631
  158SAPS   H2S17641   2.832   6.516   2.756  0.6813  0.7582 -0.8225
  158SAPS    C317642   2.437   6.606   2.498  0.0396  0.1032 -0.4692
  158SAPS    HX17643   2.472   6.512   2.449 -0.7971 -0.5703  0.2040
  158SAPS    HY17644   2.353   6.646   2.438  0.9317  4.1179  0.6697
  158SAPS   O3117645   2.402   6.564   2.636  0.0139  0.2854 -0.0013
  158SAPS   C3117646   2.338   6.662   2.702 -0.2847 -0.6753 -0.4810
  158SAPS   O3217647   2.311   6.769   2.651  0.0242 -0.1124 -0.1913
  158SAPS   C3217648   2.312   6.623   2.852  0.3010  0.2142  0.2584
  158SAPS   H2X17649   2.403   6.661   2.903  1.1837  0.3906 -1.3641
  158SAPS   H2Y17650   2.316   6.512   2.859 -0.3372  0.2452  1.1804
  158SAPS   C2317651   2.798   6.390   2.571 -0.4394 -0.0952  0.5185
  158SAPS   H3R17652   2.896   6.341   2.552 -0.0550  0.8127  0.0504
  158SAPS   H3S17653   2.731   6.401   2.483 -2.3371 -0.1090  1.8924
  158SAPS   C2417654   2.717   6.289   2.658 -0.4052 -0.0940  0.0184
  158SAPS   H4R17655   2.690   6.195   2.606  1.5497 -0.2395 -0.7899
  158SAPS   H4S17656   2.620   6.328   2.697  0.0925 -0.9601  2.2530
  158SAPS   C2517657   2.813   6.255   2.774 -0.3611 -0.2102 -0.0016
  158SAPS   H5R17658   2.903   6.200   2.743  0.4882  1.0729  0.1376
  158SAPS   C2617659   2.810   6.289   2.904  0.1353  0.1840 -0.1129
  158SAPS   H6R17660   2.898   6.273   2.969  2.1409  1.1410 -2.4171
  158SAPS   C2717661   2.694   6.373   2.966 -0.6315 -0.2179  0.4996
  158SAPS   H7R17662   2.628   6.410   2.885  0.4272 -2.6757 -1.6669
  158SAPS   H7S17663   2.736   6.465   3.012  0.2802 -0.3917  0.0477
  158SAPS   C2817664   2.618   6.300   3.067  0.2228 -0.4050  0.1792
  158SAPS   H8R17665   2.570   6.209   3.027 -2.6826  1.1409 -0.1164
  158SAPS   C2917666   2.582   6.332   3.193 -0.3722 -0.3376  0.4888
  158SAPS   H9R17667   2.519   6.266   3.255 -0.2356  1.2908  2.4903
  158SAPS  C21017668   2.610   6.460   3.274 -0.5598  0.2293  0.2496
  158SAPS  H10R17669   2.685   6.519   3.217  0.4850 -0.9917  0.3045
  158SAPS  H10S17670   2.675   6.435   3.361  4.2686  0.6059 -2.8329
  158SAPS  C21117671   2.483   6.544   3.299  0.0470  0.4045 -0.3362
  158SAPS  H11R17672   2.437   6.595   3.213  1.7547  1.0734 -0.8922
  158SAPS  C21217673   2.425   6.544   3.421 -0.8879 -0.2559  0.2177
  158SAPS  H12R17674   2.328   6.594   3.434 -0.6048  0.3329  0.1131
  158SAPS  C21317675   2.472   6.466   3.544  0.2276 -0.5349  0.0681
  158SAPS  H13R17676   2.521   6.537   3.615 -3.4372  2.6168 -0.2153
  158SAPS  H13S17677   2.545   6.386   3.522  2.3298  1.6549 -1.5291
  158SAPS  C21417678   2.361   6.405   3.622  0.0227 -0.1847  0.7344
  158SAPS  H14R17679   2.291   6.346   3.561 -1.2012  1.0048  0.9521
  158SAPS  C21517680   2.350   6.388   3.753  0.7160 -0.2961 -0.4132
  158SAPS  H15R17681   2.261   6.335   3.791  1.2290 -1.3650 -0.6878
  158SAPS  C21617682   2.445   6.432   3.863 -0.5876  0.4439 -0.0228
  158SAPS  H16R17683   2.547   6.430   3.819 -0.5450 -1.1949  0.0771
  158SAPS  H16S17684   2.461   6.345   3.930  0.3348 -0.3499 -1.2272
  158SAPS  C21717685   2.412   6.557   3.942  0.0967 -0.3123 -0.2787
  158SAPS  H17R17686   2.397   6.646   3.877 -2.6398 -0.7875 -0.4086
  158SAPS  H17S17687   2.497   6.574   4.010 -0.2133  1.2942 -0.2565
  158SAPS  C21817688   2.287   6.545   4.029  0.0539 -0.6580 -0.4505
  158SAPS  H18R17689   2.305   6.474   4.112 -1.4898  2.1867  2.5463
  158SAPS  H18S17690   2.211   6.496   3.964 -0.0980 -0.3904 -0.4776
  158SAPS  C21917691   2.271   6.683   4.106 -0.1198 -0.2507  0.1245
  158SAPS  H19R17692   2.244   6.759   4.030  2.1839 -1.0530 -1.6015
  158SAPS  H19S17693   2.368   6.726   4.138 -0.3881  0.6229 -0.2027
  158SAPS  C22017694   2.155   6.689   4.202  0.4145  0.1179 -0.1459
  158SAPS  H20R17695   2.071   6.619   4.182 -1.0791  1.8868 -0.3846
  158SAPS  H20S17696   2.109   6.790   4.206 -1.6894 -0.8129  1.0594
  158SAPS  H20T17697   2.182   6.674   4.309  1.4605  3.2004  0.1314
  158SAPS   C3317698   2.179   6.669   2.903  0.4870  0.6769  0.4388
  158SAPS   H3X17699   2.105   6.599   2.859  0.6574 -1.1108  2.7580
  158SAPS   H3Y17700   2.164   6.776   2.877  1.8590  0.6446 -0.5387
  158SAPS   C3417701   2.163   6.632   3.048 -0.2749  0.3765 -0.0125
  158SAPS   H4X17702   2.252   6.665   3.106  0.5205  1.6735 -1.8677
  158SAPS   H4Y17703   2.156   6.521   3.051 -0.8392  0.3823 -0.7926
  158SAPS   C3517704   2.021   6.679   3.102  0.0180 -0.1175 -0.2305
  158SAPS   H5X17705   1.938   6.642   3.038 -0.9977 -0.3599  1.1958
  158SAPS   H5Y17706   2.013   6.789   3.091 -1.5048 -0.1778  0.0933
  158SAPS   C3617707   2.001   6.640   3.252 -0.3316  0.1516  0.0318
  158SAPS   H6X17708   1.901   6.683   3.276 -0.5592  0.6771 -1.7075
  158SAPS   H6Y17709   2.089   6.681   3.307 -1.5473  0.5886  1.7529
  158SAPS   C3717710   1.994   6.491   3.284 -0.2670  0.3870 -0.0088
  158SAPS   H7X17711   2.080   6.431   3.247 -1.0540 -3.2378  3.3251
  158SAPS   H7Y17712   1.898   6.450   3.246 -0.0048  0.3295 -0.6172
  158SAPS   C3817713   1.984   6.455   3.441 -0.2045  0.5296  0.2256
  158SAPS   H8X17714   2.083   6.476   3.487  0.5282  0.5179 -1.2549
  158SAPS   H8Y17715   1.958   6.347   3.443  1.7029 -0.1144 -2.6796
  158SAPS   C3917716   1.880   6.545   3.513 -0.0139 -0.1412 -0.2062
  158SAPS   H9X17717   1.781   6.527   3.467 -0.7255  1.0295  0.8058
  158SAPS   H9Y17718   1.913   6.649   3.491 -1.7148  0.5084  0.1971
  158SAPS  C31017719   1.895   6.517   3.662  0.5854 -0.2553 -0.8126
  158SAPS  H10X17720   1.978   6.556   3.724 -2.0447  0.0303  2.8871
  158SAPS  H10Y17721   1.916   6.408   3.671 -0.0574 -0.2546  1.3240
  158SAPS  C31117722   1.769   6.555   3.733  0.3303  1.5996 -0.1420
  158SAPS  H11X17723   1.765   6.485   3.820 -1.9657  1.8056 -0.0044
  158SAPS  H11Y17724   1.676   6.520   3.683 -0.1947  3.2021 -0.3601
  158SAPS  C31217725   1.736   6.693   3.775 -0.1396  0.2114 -0.4154
  158SAPS  H12X17726   1.716   6.766   3.693 -0.0096  0.5780 -0.1244
  158SAPS  H12Y17727   1.819   6.732   3.838 -2.3628 -0.8502  3.4801
  158SAPS  C31317728   1.612   6.694   3.863 -0.0023  0.2388  0.0769
  158SAPS  H13X17729   1.615   6.609   3.934  0.1983  0.9572  0.9424
  158SAPS  H13Y17730   1.525   6.678   3.795 -1.1472  2.1553  1.0100
  158SAPS  C31417731   1.605   6.821   3.949  0.2710  1.2096  0.2762
  158SAPS  H14X17732   1.605   6.911   3.884 -0.1735  0.1784 -1.1783
  158SAPS  H14Y17733   1.694   6.830   4.016 -0.5667  0.5669  1.5002
  158SAPS  C31517734   1.473   6.826   4.034  0.1338  0.1896  0.1142
  158SAPS  H15X17735   1.480   6.732   4.094 -0.5517  0.1843  0.1864
  158SAPS  H15Y17736   1.390   6.808   3.963 -1.1181 -0.4599  1.6625
  158SAPS  C31617737   1.458   6.944   4.129  0.1908  0.5029  0.0105
  158SAPS  H16X17738   1.448   7.035   4.066 -2.9053  0.1403 -0.1593
  158SAPS  H16Y17739   1.549   6.962   4.190  0.5753 -3.2063  0.8239
  158SAPS  C31717740   1.340   6.926   4.227  0.4926  0.7975  0.0989
  158SAPS  H17X17741   1.378   6.850   4.298 -0.4466  0.0863 -0.1446
  158SAPS  H17Y17742   1.259   6.882   4.166  1.5799 -0.6056 -0.3913
  158SAPS  C31817743   1.290   7.051   4.307 -0.2997  0.1693  0.6201
  158SAPS  H18X17744   1.245   7.124   4.238  0.8439 -0.3070 -0.6798
  158SAPS  H18Y17745   1.378   7.090   4.363  2.1513 -0.5920 -2.4248
  158SAPS  H18Z17746   1.211   7.021   4.380 -0.1833  0.6559  0.9538
  159SAPS     N17747   6.498   6.514   1.880  0.2376 -0.4302  0.3694
  159SAPS   HN117748   6.406   6.481   1.915  0.9526 -2.6685  0.3001
  159SAPS   HN217749   6.490   6.609   1.840  1.3094 -1.2519 -1.9400
  159SAPS   HN317750   6.537   6.448   1.810  0.4672 -0.6710  0.7177
  159SAPS   C1217751   6.571   6.508   2.009 -0.3485 -0.0471  0.3440
  159SAPS  H12A17752   6.628   6.416   2.010  1.1026  0.8312  0.2515
  159SAPS   C1317753   6.677   6.617   2.036  0.5182  0.0160  1.0500
  159SAPS  O13A17754   6.713   6.698   1.943 -0.2059  0.3502 -0.0160
  159SAPS  O13B17755   6.747   6.602   2.134 -0.1844  0.0436 -0.8271
  159SAPS   C1117756   6.469   6.516   2.124  0.0422 -0.1916  0.0513
  159SAPS  H11A17757   6.440   6.621   2.145 -0.7695 -0.2738 -0.5897
  159SAPS  H11B17758   6.513   6.476   2.218  0.0175 -0.1926  0.0623
  159SAPS     P17759   6.293   6.334   2.172 -0.0261 -0.1669 -0.7936
  159SAPS   O1317760   6.154   6.290   2.143  0.0323  0.3845 -0.3407
  159SAPS   O1417761   6.397   6.230   2.175 -0.1534 -0.4469 -0.0749
  159SAPS   O1217762   6.349   6.448   2.088  0.7961 -0.2723 -0.0231
  159SAPS   O1117763   6.288   6.388   2.315 -0.5915 -0.4679 -0.0293
  159SAPS    C117764   6.214   6.499   2.354 -0.0997  0.7100  0.6598
  159SAPS    HA17765   6.285   6.581   2.378 -0.8560  1.5473  0.1381
  159SAPS    HB17766   6.145   6.538   2.275 -0.0747  2.2961  1.3754
  159SAPS    C217767   6.138   6.478   2.481 -0.0847  0.6769 -0.5283
  159SAPS    HS17768   6.092   6.571   2.520  1.4421  1.1351  0.2196
  159SAPS   O2117769   6.213   6.409   2.582 -0.3212 -0.3340  0.2567
  159SAPS   C2117770   6.288   6.489   2.656 -0.0163 -0.6972  0.6912
  159SAPS   O2217771   6.300   6.610   2.646  0.6014 -0.1641 -0.4758
  159SAPS   C2217772   6.345   6.401   2.770 -0.3694 -0.1575 -0.3182
  159SAPS   H2R17773   6.404   6.320   2.723  1.2119  0.2717  0.8568
  159SAPS   H2S17774   6.417   6.461   2.830 -0.8964  0.6585 -0.4856
  159SAPS    C317775   6.010   6.378   2.458 -0.7839 -0.7746 -0.3698
  159SAPS    HX17776   6.059   6.288   2.414 -0.3597 -0.6472 -0.1627
  159SAPS    HY17777   5.928   6.410   2.389 -0.6403 -1.5779 -0.9257
  159SAPS   O3117778   5.950   6.352   2.583 -0.5643  0.1205  0.0683
  159SAPS   C3117779   5.874   6.243   2.591  0.3934  0.0314  0.0273
  159SAPS   O3217780   5.858   6.155   2.509 -0.1999 -0.1110 -0.1145
  159SAPS   C3217781   5.799   6.234   2.726 -0.6144 -0.4275 -0.2745
  159SAPS   H2X17782   5.693   6.248   2.694 -0.4168 -0.4788 -0.9662
  159SAPS   H2Y17783   5.839   6.315   2.791  0.9351 -1.0985 -0.3576
  159SAPS   C2317784   6.229   6.341   2.849 -0.1990  0.9454  0.0666
  159SAPS   H3R17785   6.250   6.263   2.926 -3.1827  0.0486  0.1176
  159SAPS   H3S17786   6.156   6.287   2.785 -0.2433  0.1799  0.7454
  159SAPS   C2417787   6.133   6.450   2.922  0.6356 -0.0750 -0.0951
  159SAPS   H4R17788   6.043   6.396   2.958 -0.1151  0.8285 -0.5719
  159SAPS   H4S17789   6.097   6.530   2.853 -0.9604  0.1328  0.9363
  159SAPS   C2517790   6.195   6.507   3.044  0.2287  0.1944 -0.7813
  159SAPS   H5R17791   6.271   6.585   3.027 -0.9744  1.9022  1.0865
  159SAPS   C2617792   6.149   6.508   3.164  0.1431  0.3471  0.2485
  159SAPS   H6R17793   6.208   6.545   3.249  0.2196  0.2419  0.2414
  159SAPS   C2717794   6.010   6.448   3.204 -0.2991 -0.5068 -0.1435
  159SAPS   H7R17795   6.030   6.345   3.240  0.2475  0.4925  2.7108
  159SAPS   H7S17796   5.939   6.441   3.119  1.6365  2.1203 -2.1495
  159SAPS   C2817797   5.929   6.534   3.304 -0.0059  0.0675  0.1671
  159SAPS   H8R17798   5.905   6.635   3.267 -1.7158  0.1539  1.3824
  159SAPS   C2917799   5.865   6.502   3.417 -0.5906  0.2148 -0.7064
  159SAPS   H9R17800   5.797   6.578   3.458 -0.8609 -0.1497 -0.4765
  159SAPS  C21017801   5.852   6.368   3.485 -0.2219  0.5684  0.5029
  159SAPS  H10R17802   5.906   6.295   3.422  0.0986  0.0579  1.3527
  159SAPS  H10S17803   5.746   6.335   3.472  0.3991 -0.8752 -1.4226
  159SAPS  C21117804   5.905   6.356   3.631 -0.1082  0.3150  0.2876
  159SAPS  H11R17805   6.012   6.334   3.625 -0.0797  0.4896 -5.0858
  159SAPS  C21217806   5.835   6.332   3.747  0.5113  0.4629  0.9446
  159SAPS  H12R17807   5.895   6.328   3.839  0.0344 -0.0011  1.2384
  159SAPS  C21317808   5.686   6.316   3.760 -0.4985 -0.4422  0.4216
  159SAPS  H13R17809   5.632   6.349   3.669  1.0522 -0.9076 -0.7068
  159SAPS  H13S17810   5.654   6.378   3.846 -1.7018 -0.8673  0.2982
  159SAPS  C21417811   5.657   6.175   3.785 -0.5655 -0.2238  0.5574
  159SAPS  H14R17812   5.677   6.103   3.704 -0.0059  1.9415 -1.3372
  159SAPS  C21517813   5.600   6.122   3.896  0.0992 -0.1860  0.2942
  159SAPS  H15R17814   5.600   6.012   3.900  1.0743 -0.1814  0.8933
  159SAPS  C21617815   5.540   6.203   4.020 -0.5380  0.2421  0.7571
  159SAPS  H16R17816   5.464   6.144   4.076 -0.1760 -2.2276 -1.1796
  159SAPS  H16S17817   5.483   6.290   3.980  0.4748  0.4432 -0.2916
  159SAPS  C21717818   5.651   6.230   4.124  0.8655 -0.0767  0.6296
  159SAPS  H17R17819   5.708   6.312   4.075  0.6673  0.6435  1.5572
  159SAPS  H17S17820   5.711   6.138   4.137  2.7792  0.9734 -0.3217
  159SAPS  C21817821   5.601   6.286   4.257  0.2774  0.0926  0.1143
  159SAPS  H18R17822   5.691   6.321   4.311  0.6321 -0.8423  0.1506
  159SAPS  H18S17823   5.561   6.209   4.327 -2.2902  1.4644  0.2599
  159SAPS  C21917824   5.500   6.404   4.247  0.5339  0.0864 -0.3868
  159SAPS  H19R17825   5.414   6.361   4.191  0.1985  0.5652 -0.2474
  159SAPS  H19S17826   5.534   6.483   4.176  0.5439 -1.1921 -1.8526
  159SAPS  C22017827   5.444   6.469   4.377 -0.2970  0.4924 -0.3652
  159SAPS  H20R17828   5.532   6.508   4.434  1.0337  0.1356 -2.1195
  159SAPS  H20S17829   5.384   6.390   4.427 -1.0915  0.8482 -0.7240
  159SAPS  H20T17830   5.376   6.552   4.348 -0.1173 -0.1567 -2.7755
  159SAPS   C3317831   5.823   6.095   2.803  0.6092  0.0365 -0.0564
  159SAPS   H3X17832   5.928   6.077   2.833  1.0817 -0.2810 -1.8074
  159SAPS   H3Y17833   5.806   6.008   2.737  0.4290 -0.9179  1.1942
  159SAPS   C3417834   5.735   6.076   2.926  0.4715  0.4496  0.4454
  159SAPS   H4X17835   5.768   5.988   2.986  0.2914 -0.2837 -0.5184
  159SAPS   H4Y17836   5.634   6.055   2.884  1.0787 -0.9482 -0.3897
  159SAPS   C3517837   5.718   6.202   3.012 -0.2428  0.5994  0.1810
  159SAPS   H5X17838   5.663   6.273   2.947 -0.4241 -0.3000 -0.6859
  159SAPS   H5Y17839   5.807   6.260   3.044  0.9552 -0.6270 -0.7890
  159SAPS   C3617840   5.629   6.166   3.129  0.0459 -0.8383 -0.3270
  159SAPS   H6X17841   5.682   6.093   3.194 -0.2023 -1.2457 -0.5776
  159SAPS   H6Y17842   5.552   6.096   3.089  0.7069 -1.9238  0.2529
  159SAPS   C3717843   5.562   6.291   3.196  0.5688  0.4355 -0.1947
  159SAPS   H7X17844   5.476   6.322   3.133  0.7867  2.2554  0.3526
  159SAPS   H7Y17845   5.621   6.379   3.228 -1.8856  2.4260 -0.8141
  159SAPS   C3817846   5.491   6.233   3.327  0.4477 -0.0026 -0.3214
  159SAPS   H8X17847   5.572   6.193   3.391  0.3874 -0.0933 -0.3008
  159SAPS   H8Y17848   5.417   6.154   3.302 -2.0831  1.2973  2.4238
  159SAPS   C3917849   5.433   6.343   3.408  0.3507 -0.0608  0.3724
  159SAPS   H9X17850   5.354   6.394   3.349  1.1636  1.5384  0.6007
  159SAPS   H9Y17851   5.518   6.411   3.432 -0.2063 -0.2754  3.3836
  159SAPS  C31017852   5.372   6.296   3.540 -0.0729  0.1547 -0.1598
  159SAPS  H10X17853   5.439   6.237   3.606 -0.3128 -1.2931 -1.1596
  159SAPS  H10Y17854   5.299   6.214   3.523  0.4521 -0.3727  0.1159
  159SAPS  C31117855   5.313   6.420   3.613  0.0932  0.6260  0.2738
  159SAPS  H11X17856   5.230   6.477   3.567  0.5841  1.4093  0.3312
  159SAPS  H11Y17857   5.386   6.503   3.626 -0.0847  1.1547 -1.7122
  159SAPS  C31217858   5.266   6.383   3.750  0.1281  0.3717  0.2577
  159SAPS  H12X17859   5.354   6.381   3.817  2.3379  2.1313 -2.3886
  159SAPS  H12Y17860   5.212   6.286   3.759 -0.3509  0.7154  1.3073
  159SAPS  C31317861   5.158   6.487   3.801  0.3443 -0.4765 -1.1073
  159SAPS  H13X17862   5.073   6.482   3.730 -0.1888  0.3447 -0.5407
  159SAPS  H13Y17863   5.180   6.596   3.804 -2.9297  0.3455 -2.6308
  159SAPS  C31417864   5.097   6.446   3.941  0.0488  0.0223  0.6564
  159SAPS  H14X17865   5.180   6.449   4.014 -0.0508 -0.5246  0.8021
  159SAPS  H14Y17866   5.045   6.348   3.932  0.8122 -0.2778 -1.0242
  159SAPS  C31517867   4.987   6.538   4.003 -0.4420 -0.5177  0.1983
  159SAPS  H15X17868   4.892   6.535   3.946 -0.6160 -0.6181  0.4906
  159SAPS  H15Y17869   5.029   6.640   3.988 -1.1346 -0.4830 -1.6787
  159SAPS  C31617870   4.965   6.506   4.147 -0.3170  0.8189  0.4695
  159SAPS  H16X17871   5.059   6.525   4.203  1.3571  0.3021 -1.9712
  159SAPS  H16Y17872   4.943   6.397   4.157  0.4253  0.7823  1.9031
  159SAPS  C31717873   4.853   6.594   4.203  0.4278  0.4910 -0.7958
  159SAPS  H17X17874   4.754   6.571   4.160 -0.4666  1.9903  0.3345
  159SAPS  H17Y17875   4.869   6.703   4.189  0.7024  0.6517  0.5867
  159SAPS  C31817876   4.823   6.571   4.356  0.1102  0.6846  0.2882
  159SAPS  H18X17877   4.745   6.639   4.399  2.8577  3.8291  0.7166
  159SAPS  H18Y17878   4.788   6.467   4.369 -0.2687  0.9554  1.5470
  159SAPS  H18Z17879   4.917   6.578   4.414  0.7577  2.4984 -0.8998
  160SAPS     N17880   0.164   6.869   1.998 -0.2329  0.1293 -0.5279
  160SAPS   HN117881   0.182   6.927   2.082 -0.1908 -0.5655 -0.0505
  160SAPS   HN217882   0.095   6.794   2.020 -1.1497  0.6662 -1.4356
  160SAPS   HN317883   0.251   6.815   1.982 -0.4511 -0.3702 -0.0246
  160SAPS   C1217884   0.139   6.966   1.891 -0.4878  1.0986 -0.1542
  160SAPS  H12A17885   0.122   6.917   1.797 -0.7544  1.6588 -0.4017
  160SAPS   C1317886   0.010   7.044   1.915  0.0403 -0.1327  0.5892
  160SAPS  O13A17887  -0.065   7.030   2.012  0.1521  0.7747  0.0257
  160SAPS  O13B17888  -0.031   7.117   1.821 -0.3629  0.1411  0.1151
  160SAPS   C1117889   0.262   7.071   1.885  0.4835 -0.3617 -0.1456
  160SAPS  H11A17890   0.264   7.145   1.969 -2.0232 -0.7156  0.3254
  160SAPS  H11B17891   0.247   7.123   1.788 -0.2651  0.1603  0.2366
  160SAPS     P17892   0.515   7.027   1.954  0.1515  0.0936  0.1654
  160SAPS   O1317893   0.573   6.900   2.004  0.3086 -0.2391 -0.1517
  160SAPS   O1417894   0.588   7.111   1.855 -0.0954 -0.1767  0.2121
  160SAPS   O1217895   0.381   6.997   1.870  0.3876  0.1781 -0.1632
  160SAPS   O1117896   0.473   7.114   2.069  0.3308 -1.0290 -0.0662
  160SAPS    C117897   0.557   7.131   2.181 -0.1155  0.2022  0.3240
  160SAPS    HA17898   0.660   7.089   2.173 -0.5466 -1.0395  1.0587
  160SAPS    HB17899   0.562   7.241   2.194  0.9084  0.1315  0.6505
  160SAPS    C217900   0.486   7.069   2.306 -0.3359  0.4624 -0.6189
  160SAPS    HS17901   0.455   6.965   2.285  2.2368 -0.6561  0.6498
  160SAPS   O2117902   0.376   7.151   2.359 -0.5065  0.4987  0.2031
  160SAPS   C2117903   0.256   7.121   2.302 -0.0835 -0.5826 -0.2193
  160SAPS   O2217904   0.237   7.039   2.215 -0.1776 -0.4899  0.0722
  160SAPS   C2217905   0.156   7.182   2.394  0.9140  0.3510 -0.2561
  160SAPS   H2R17906   0.174   7.290   2.416  0.1150  0.5008 -0.3283
  160SAPS   H2S17907   0.060   7.169   2.340  0.2279  1.0978  0.7564
  160SAPS    C317908   0.584   7.053   2.430 -0.3723 -0.2728  0.4289
  160SAPS    HX17909   0.619   7.153   2.463  2.1093 -1.1581  0.7455
  160SAPS    HY17910   0.676   7.004   2.390 -0.5728  0.2066 -0.6603
  160SAPS   O3117911   0.525   6.988   2.543  0.5217  0.3678  0.7044
  160SAPS   C3117912   0.587   6.885   2.589 -0.0224  0.0021  0.5431
  160SAPS   O3217913   0.690   6.835   2.551 -0.2366  0.1279  0.4642
  160SAPS   C3217914   0.500   6.823   2.705 -0.3264  0.1407 -0.5292
  160SAPS   H2X17915   0.541   6.725   2.737 -0.6209  0.9046  2.5051
  160SAPS   H2Y17916   0.397   6.804   2.669 -0.7749  1.0669  0.2060
  160SAPS   C2317917   0.153   7.121   2.534 -0.6939 -0.4373  0.4224
  160SAPS   H3R17918   0.256   7.125   2.577 -1.3097 -1.0144  2.0330
  160SAPS   H3S17919   0.118   7.016   2.529  0.4325 -0.8166  0.1008
  160SAPS   C2417920   0.077   7.206   2.632 -0.0724 -0.3345  0.2196
  160SAPS   H4R17921   0.137   7.296   2.657 -1.4122  0.5073  0.5224
  160SAPS   H4S17922   0.079   7.144   2.724  2.5970 -0.2254  0.3060
  160SAPS   C2517923  -0.063   7.246   2.580 -0.7735 -0.3851  0.1085
  160SAPS   H5R17924  -0.074   7.261   2.472 -0.5662 -2.4187 -0.2342
  160SAPS   C2617925  -0.162   7.289   2.663 -0.1252 -0.1381 -0.2363
  160SAPS   H6R17926  -0.269   7.299   2.636 -0.1811 -1.1822 -0.4762
  160SAPS   C2717927  -0.147   7.296   2.816 -0.0699  0.2922 -0.3158
  160SAPS   H7R17928  -0.039   7.307   2.839 -0.1153  2.2818 -0.8785
  160SAPS   H7S17929  -0.181   7.208   2.875 -0.5618 -0.4658 -1.6895
  160SAPS   C2817930  -0.222   7.415   2.860 -0.1696 -1.0311 -0.4629
  160SAPS   H8R17931  -0.233   7.498   2.788  1.1958  1.0408  1.5291
  160SAPS   C2917932  -0.279   7.429   2.982  0.2387  0.1119  0.8583
  160SAPS   H9R17933  -0.332   7.522   3.006 -0.5600  0.4183 -1.7885
  160SAPS  C21017934  -0.277   7.338   3.102  0.2714  0.3844  0.6155
  160SAPS  H10R17935  -0.206   7.255   3.082 -2.1366 -1.5442 -0.5588
  160SAPS  H10S17936  -0.373   7.281   3.100  0.8167 -0.5365  0.1781
  160SAPS  C21117937  -0.269   7.400   3.245  0.0081 -0.3130 -0.2639
  160SAPS  H11R17938  -0.291   7.507   3.256  0.5448 -0.0366 -1.6067
  160SAPS  C21217939  -0.231   7.340   3.361 -0.1959  0.4820  0.5924
  160SAPS  H12R17940  -0.237   7.389   3.459  0.7973  1.1677  0.3226
  160SAPS  C21317941  -0.200   7.195   3.381 -0.0947 -0.5118  0.0341
  160SAPS  H13R17942  -0.256   7.142   3.301  1.4811  1.8866 -2.8960
  160SAPS  H13S17943  -0.238   7.163   3.480 -0.5717  0.9870  0.3713
  160SAPS  C21417944  -0.054   7.142   3.366  0.7092  0.0264 -0.1923
  160SAPS  H14R17945   0.004   7.188   3.285  0.8769  1.2678  0.5931
  160SAPS  C21517946  -0.015   7.034   3.437  0.8772 -0.3427 -0.0243
  160SAPS  H15R17947   0.092   7.009   3.438  1.3428  1.5225 -0.6172
  160SAPS  C21617948  -0.097   6.954   3.542  0.0858 -0.0861 -0.1811
  160SAPS  H16R17949  -0.197   6.925   3.501 -1.9745  2.9840  2.2307
  160SAPS  H16S17950  -0.127   7.025   3.621 -0.2165 -0.0224 -0.3512
  160SAPS  C21717951  -0.023   6.836   3.597 -0.0623  0.8203  0.1952
  160SAPS  H17R17952   0.082   6.870   3.611 -0.8231  2.6911  1.9070
  160SAPS  H17S17953  -0.020   6.756   3.520  0.8720  2.5828 -1.6802
  160SAPS  C21817954  -0.084   6.795   3.734 -0.2536  0.1629 -0.3137
  160SAPS  H18R17955  -0.066   6.881   3.802  1.0954 -0.7400  0.5263
  160SAPS  H18S17956  -0.043   6.699   3.770 -0.1507  0.6443  0.8936
  160SAPS  C21917957  -0.233   6.779   3.725  0.0736  0.3385  0.2491
  160SAPS  H19R17958  -0.251   6.705   3.643 -0.9365  2.0639 -1.1567
  160SAPS  H19S17959  -0.290   6.868   3.692 -1.0058 -0.7719 -1.0339
  160SAPS  C22017960  -0.296   6.751   3.863 -0.2067  0.0592  0.3270
  160SAPS  H20R17961  -0.240   6.676   3.923  0.4097 -0.1344 -0.4760
  160SAPS  H20S17962  -0.404   6.727   3.855 -0.7675  2.1493  0.9090
  160SAPS  H20T17963  -0.287   6.852   3.909  0.2467  1.9694 -3.5621
  160SAPS   C3317964   0.501   6.923   2.827  0.0593 -0.4209  0.3973
  160SAPS   H3X17965   0.411   6.923   2.892 -0.4968 -0.6481 -0.3557
  160SAPS   H3Y17966   0.496   7.026   2.788  1.4531  0.1596  1.6577
  160SAPS   C3417967   0.629   6.905   2.920  0.2597  0.2390  0.0484
  160SAPS   H4X17968   0.717   6.913   2.853  0.8282 -0.8720  0.6346
  160SAPS   H4Y17969   0.629   6.802   2.961 -0.6364  0.1812 -0.0751
  160SAPS   C3517970   0.628   6.997   3.037  0.1723  0.7483 -0.1358
  160SAPS   H5X17971   0.535   6.979   3.096  0.5881 -2.5774 -0.3421
  160SAPS   H5Y17972   0.625   7.101   2.997  0.3258  0.2054 -1.6147
  160SAPS   C3617973   0.747   6.964   3.126 -0.5034 -0.1351  0.4270
  160SAPS   H6X17974   0.837   6.982   3.064 -0.0865 -0.1412  1.0214
  160SAPS   H6Y17975   0.743   6.856   3.154 -0.1518 -0.5144 -0.9311
  160SAPS   C3717976   0.750   7.045   3.263 -0.7065  0.1316  0.5982
  160SAPS   H7X17977   0.654   7.024   3.315 -0.8439 -1.3950 -0.2013
  160SAPS   H7Y17978   0.751   7.151   3.229  1.6974 -0.0395 -0.0859
  160SAPS   C3817979   0.865   7.012   3.359  0.2654 -0.0185  0.5904
  160SAPS   H8X17980   0.963   7.034   3.314  0.0834  1.2949  0.8096
  160SAPS   H8Y17981   0.855   6.906   3.391 -2.1957  0.1474  0.6038
  160SAPS   C3917982   0.861   7.088   3.491  0.0486 -0.2894  0.1637
  160SAPS   H9X17983   0.873   7.197   3.473 -0.4834 -0.3300 -0.4975
  160SAPS   H9Y17984   0.952   7.060   3.548  2.2213  0.5585 -2.6963
  160SAPS  C31017985   0.742   7.054   3.583 -0.4551  0.4816  0.0874
  160SAPS  H10X17986   0.718   6.945   3.581 -2.0615  0.8124  0.2482
  160SAPS  H10Y17987   0.653   7.099   3.535 -1.6056 -0.3310  1.3713
  160SAPS  C31117988   0.766   7.101   3.738  0.6895 -0.1285  0.3936
  160SAPS  H11X17989   0.757   7.211   3.741 -3.6621 -0.3308  1.6347
  160SAPS  H11Y17990   0.867   7.074   3.775  1.2981  2.5098  0.8594
  160SAPS  C31217991   0.658   7.044   3.836 -0.3045 -0.2559  0.4344
  160SAPS  H12X17992   0.687   7.076   3.938 -0.6641  2.0074 -0.1041
  160SAPS  H12Y17993   0.663   6.934   3.841 -3.2669 -0.4994  0.0429
  160SAPS  C31317994   0.513   7.079   3.811  0.6853  1.1798 -0.0913
  160SAPS  H13X17995   0.444   7.029   3.882 -0.5905  1.8394 -0.8240
  160SAPS  H13Y17996   0.490   7.046   3.708 -1.8305  1.9832  0.1540
  160SAPS  C31417997   0.487   7.231   3.802  0.3011 -0.0248  0.8478
  160SAPS  H14X17998   0.527   7.287   3.715 -2.1715  0.0106 -0.3726
  160SAPS  H14Y17999   0.529   7.279   3.892  0.2054  0.2450  0.7501
  160SAPS  C31518000   0.341   7.264   3.817  1.1639 -0.1897 -0.0795
  160SAPS  H15X18001   0.334   7.373   3.841 -0.5255 -0.2518 -0.2180
  160SAPS  H15Y18002   0.303   7.198   3.898  0.2396  0.0209 -0.3330
  160SAPS  C31618003   0.256   7.235   3.691 -0.3260 -0.3352  0.1458
  160SAPS  H16X18004   0.271   7.125   3.683  0.6540 -0.3878  2.1932
  160SAPS  H16Y18005   0.293   7.280   3.596 -0.1643  0.0500  0.3894
  160SAPS  C31718006   0.113   7.268   3.715 -0.3393  0.1495  0.1726
  160SAPS  H17X18007   0.072   7.211   3.801 -3.7031  2.7791  0.5621
  160SAPS  H17Y18008   0.060   7.243   3.621 -0.5958  2.2952 -0.3268
  160SAPS  C31818009   0.091   7.418   3.735  0.9567  0.5664 -0.1346
  160SAPS  H18X18010   0.133   7.474   3.649  1.9346 -0.0919 -0.0994
  160SAPS  H18Y18011   0.123   7.451   3.836  0.3559  1.8481 -0.3334
  160SAPS  H18Z18012  -0.019   7.430   3.726  1.0496 -0.1386 -3.8245
  161SAPE     N18013   5.238   4.966   6.503  0.0878  0.3448 -0.1032
  161SAPE   HN118014   5.167   4.912   6.557 -0.0900  0.1405 -0.5359
  161SAPE   HN218015   5.323   4.994   6.555 -0.0157  0.9264 -0.2344
  161SAPE   HN318016   5.195   5.054   6.468 -0.1938  0.8248  1.3944
  161SAPE   C1218017   5.273   4.884   6.384 -0.3288  0.4516  0.2680
  161SAPE  H12A18018   5.192   4.893   6.309 -0.3128  1.8592  0.3978
  161SAPE  H12B18019   5.276   4.779   6.421  0.9290  1.2516  2.6496
  161SAPE   C1118020   5.403   4.931   6.317  0.9081  0.0210  0.3067
  161SAPE  H11A18021   5.388   5.033   6.277 -0.6860 -0.5396 -0.6417
  161SAPE  H11B18022   5.426   4.872   6.226  1.0876  2.2646 -1.1911
  161SAPE     P18023   5.584   4.795   6.448  0.0908  0.1933 -0.1224
  161SAPE   O1318024   5.723   4.834   6.488  0.7238  0.5795  0.0845
  161SAPE   O1418025   5.514   4.710   6.543 -0.1998 -0.1204 -0.9099
  161SAPE   O1218026   5.500   4.928   6.425  0.3587  0.0634  0.3846
  161SAPE   O1118027   5.571   4.712   6.315  0.3378  0.0344  0.5432
  161SAPE    C118028   5.668   4.705   6.209  0.4116  0.7923 -0.3790
  161SAPE    HA18029   5.689   4.805   6.165  2.4295  0.6699  0.2149
  161SAPE    HB18030   5.767   4.672   6.247  0.4578  1.9738  0.5584
  161SAPE    C218031   5.629   4.595   6.107 -0.2552  1.0428  0.5562
  161SAPE    HS18032   5.636   4.503   6.169 -0.3396  1.1119  0.6687
  161SAPE   O2118033   5.733   4.608   6.006  0.1161  0.3766 -0.8734
  161SAPE   C2118034   5.815   4.510   5.996  0.3056  1.0589  0.7281
  161SAPE   O2218035   5.833   4.417   6.073  0.1582 -0.3112 -0.6848
  161SAPE   C2218036   5.875   4.518   5.852 -0.6464 -0.4131 -0.0153
  161SAPE   H2R18037   5.791   4.553   5.788  1.6174  1.4453 -2.1737
  161SAPE   H2S18038   5.943   4.606   5.851  0.5761 -1.3285 -0.7245
  161SAPE    C318039   5.490   4.613   6.044  0.3969  0.7674  0.0220
  161SAPE    HX18040   5.473   4.722   6.028  1.3539  1.0137  0.6005
  161SAPE    HY18041   5.408   4.580   6.111  0.1038 -0.8184 -1.0643
  161SAPE   O3118042   5.489   4.563   5.911  0.0127 -0.2746  0.0110
  161SAPE   C3118043   5.455   4.437   5.892  0.1402 -0.0049 -0.0103
  161SAPE   O3218044   5.425   4.356   5.979 -0.0139 -0.0179 -0.7490
  161SAPE   C3218045   5.463   4.405   5.740  0.1322  0.1941 -0.1210
  161SAPE   H2X18046   5.541   4.475   5.703 -1.3836  1.5049 -0.9524
  161SAPE   H2Y18047   5.359   4.421   5.704 -0.2989 -2.4384 -0.2192
  161SAPE   C2318048   5.950   4.394   5.803  0.0086  0.5150 -0.0690
  161SAPE   H3R18049   5.876   4.311   5.811  2.4310 -1.7988 -0.0970
  161SAPE   H3S18050   6.036   4.359   5.865  1.2110 -0.9423 -2.4158
  161SAPE   C2418051   5.993   4.396   5.662 -0.2841 -0.2325 -0.0769
  161SAPE   H4R18052   6.053   4.303   5.650  0.2290 -0.0450  0.8712
  161SAPE   H4S18053   6.046   4.493   5.655 -0.2936  0.0001  2.2200
  161SAPE   C2518054   5.873   4.390   5.574  0.1600  0.6567 -0.0847
  161SAPE   H5R18055   5.786   4.437   5.622 -0.6297 -1.0440  0.2115
  161SAPE   C2618056   5.882   4.370   5.444 -0.0855 -0.0391  0.7588
  161SAPE   H6R18057   5.796   4.379   5.377  1.1283 -0.6932 -0.9588
  161SAPE   C2718058   6.018   4.355   5.377  0.3538  0.6133  0.5341
  161SAPE   H7R18059   6.031   4.246   5.360 -0.1098  0.6185  0.1368
  161SAPE   H7S18060   6.103   4.394   5.436 -0.5702  2.0746  0.9512
  161SAPE   C2818061   6.032   4.433   5.250  0.5267 -0.2056 -0.2350
  161SAPE   H8R18062   6.076   4.534   5.261 -1.3385  0.5962  0.2706
  161SAPE   C2918063   6.012   4.384   5.123 -0.3799  0.0029 -0.8066
  161SAPE   H9R18064   5.994   4.470   5.056 -0.4183  0.8395  0.2501
  161SAPE  C21018065   5.971   4.248   5.068 -0.2821 -0.0932 -0.0278
  161SAPE  H10R18066   5.926   4.191   5.153 -1.6261 -0.4059 -0.9096
  161SAPE  H10S18067   6.053   4.174   5.058  0.4596  0.1588  3.0121
  161SAPE  C21118068   5.890   4.255   4.943  0.4210 -0.5138  0.0272
  161SAPE  H11R18069   5.822   4.341   4.933 -0.1817 -1.2486 -3.5028
  161SAPE  C21218070   5.915   4.193   4.831 -0.5723 -0.2368 -0.1162
  161SAPE  H12R18071   5.853   4.214   4.743 -0.5904 -0.8025 -0.2466
  161SAPE  C21318072   6.023   4.090   4.807  0.0009  0.0201  0.1150
  161SAPE  H13R18073   6.100   4.075   4.885  2.2013 -0.7484 -2.0909
  161SAPE  H13S18074   6.090   4.119   4.723  2.3365  0.1625  1.9532
  161SAPE  C21418075   5.965   3.955   4.782  0.7842  0.6143  0.2013
  161SAPE  H14R18076   5.881   3.925   4.847 -0.2754  0.6128 -1.1106
  161SAPE  C21518077   6.002   3.872   4.677  0.1837  0.5338 -0.2983
  161SAPE  H15R18078   5.946   3.779   4.659 -0.3524  1.0866 -1.6016
  161SAPE  C21618079   6.102   3.896   4.571 -0.0476  0.2504 -0.2887
  161SAPE  H16R18080   6.098   3.988   4.507  0.1013 -0.7381 -1.7659
  161SAPE  H16S18081   6.097   3.812   4.498 -1.8834  1.9871 -2.3040
  161SAPE  C21718082   6.234   3.871   4.648 -0.2079 -0.0509  0.3731
  161SAPE  H17R18083   6.240   3.932   4.741  0.1444 -0.9298  0.9397
  161SAPE  H17S18084   6.320   3.902   4.585  0.9340  1.4838  2.5414
  161SAPE  C21818085   6.257   3.725   4.685  0.7566  1.1378 -0.9089
  161SAPE  H18R18086   6.262   3.654   4.600 -0.5043 -2.1659  1.5248
  161SAPE  H18S18087   6.163   3.693   4.736  1.4192 -0.3098 -0.5390
  161SAPE  C21918088   6.376   3.712   4.781  0.0602 -0.1438  0.2493
  161SAPE  H19R18089   6.378   3.615   4.835 -0.8251  0.6766  1.8238
  161SAPE  H19S18090   6.372   3.790   4.860  1.3901 -2.2838  2.6281
  161SAPE  C22018091   6.504   3.714   4.702  0.5620 -0.6950 -0.1475
  161SAPE  H20R18092   6.511   3.817   4.662 -1.7004  0.7150  2.7733
  161SAPE  H20S18093   6.495   3.643   4.616 -1.8549  0.1249 -0.6360
  161SAPE  H20T18094   6.589   3.690   4.770  0.5551  0.7410  0.3823
  161SAPE   C3318095   5.502   4.267   5.715 -0.7289  0.3028  0.0227
  161SAPE   H3X18096   5.448   4.177   5.753  1.1434 -0.0909  1.8939
  161SAPE   H3Y18097   5.602   4.258   5.761  0.7249 -0.7608 -3.0514
  161SAPE   C3418098   5.539   4.232   5.568  0.7562  0.4082  0.1237
  161SAPE   H4X18099   5.588   4.132   5.573  1.4445  0.6857 -0.6947
  161SAPE   H4Y18100   5.611   4.299   5.516 -0.5003 -0.0285 -2.3112
  161SAPE   C3518101   5.410   4.244   5.476 -0.5559 -1.1492  0.9888
  161SAPE   H5X18102   5.374   4.347   5.458 -2.3732 -1.9337 -0.1644
  161SAPE   H5Y18103   5.324   4.200   5.531  0.5670 -1.3408  2.6923
  161SAPE   C3618104   5.432   4.189   5.335 -0.2078  0.1617  0.4634
  161SAPE   H6X18105   5.442   4.079   5.352 -0.6575  0.2739  1.5809
  161SAPE   H6Y18106   5.537   4.208   5.305 -0.8655  0.2391 -2.0125
  161SAPE   C3718107   5.326   4.223   5.228  0.2701  0.3356  0.5022
  161SAPE   H7X18108   5.352   4.328   5.204  0.9200 -0.0740 -0.6726
  161SAPE   H7Y18109   5.225   4.204   5.268  0.4683  1.1144  1.3914
  161SAPE   C3818110   5.346   4.125   5.110 -0.0985  0.0297  0.3912
  161SAPE   H8X18111   5.308   4.025   5.143 -0.0105 -0.0948  0.1189
  161SAPE   H8Y18112   5.451   4.116   5.074 -1.4587 -0.2598 -4.0855
  161SAPE   C3918113   5.263   4.168   4.992 -0.2085  0.0769  0.0214
  161SAPE   H9X18114   5.288   4.272   4.962  0.0768  0.5540  1.7932
  161SAPE   H9Y18115   5.159   4.168   5.029 -1.6675  2.9518 -3.3991
  161SAPE  C31018116   5.265   4.057   4.879  0.2195 -0.1095  0.2696
  161SAPE  H10X18117   5.182   4.064   4.806 -0.5444  0.0313  1.1347
  161SAPE  H10Y18118   5.251   3.964   4.937  0.6276  0.5837  1.5246
  161SAPE  C31118119   5.385   4.054   4.785 -0.2498 -0.0693 -0.3456
  161SAPE  H11X18120   5.385   3.957   4.731 -2.5141  0.3425 -1.2250
  161SAPE  H11Y18121   5.482   4.067   4.838 -1.0873 -0.9898  1.5382
  161SAPE  C31218122   5.391   4.155   4.670  0.4277 -0.5149 -0.4484
  161SAPE  H12X18123   5.407   4.259   4.704  1.4976  0.3473 -3.3034
  161SAPE  H12Y18124   5.290   4.140   4.627 -1.5483  3.4206  2.2040
  161SAPE  C31318125   5.496   4.126   4.556  0.3142 -0.5375  0.1649
  161SAPE  H13X18126   5.479   4.017   4.540 -1.6850 -0.2514  0.0658
  161SAPE  H13Y18127   5.476   4.192   4.469 -0.6552 -2.3418 -1.0679
  161SAPE  C31418128   5.642   4.159   4.594  0.5297 -0.1600 -0.6023
  161SAPE  H14X18129   5.666   4.103   4.687  0.7140 -0.8780 -1.0729
  161SAPE  H14Y18130   5.641   4.268   4.618 -0.6775 -0.2773 -0.0517
  161SAPE  C31518131   5.732   4.124   4.485  0.2541  0.5874  1.3949
  161SAPE  H15X18132   5.698   4.029   4.440 -1.3436  1.9011 -0.2713
  161SAPE  H15Y18133   5.834   4.100   4.523  0.4991 -1.8009 -0.5213
  161SAPE  C31618134   5.759   4.228   4.371  0.4646  0.2899 -0.1456
  161SAPE  H16X18135   5.766   4.325   4.425 -2.5699  0.1508  0.6959
  161SAPE  H16Y18136   5.677   4.222   4.297 -0.0234  0.6232  0.3661
  161SAPE  C31718137   5.895   4.197   4.290  0.2057  0.1278 -0.1462
  161SAPE  H17X18138   5.875   4.099   4.243  1.8195 -0.4304  0.2627
  161SAPE  H17Y18139   5.986   4.177   4.351  0.0980 -0.7618 -0.2762
  161SAPE  C31818140   5.924   4.311   4.190  0.2944  0.3596  0.6924
  161SAPE  H18X18141   5.874   4.300   4.092  1.2886 -0.9294  0.2948
  161SAPE  H18Y18142   6.032   4.316   4.162 -0.0923  0.6933 -0.8349
  161SAPE  H18Z18143   5.890   4.403   4.242 -2.7120  1.3028 -2.5928
  162SAPE     N18144   6.010   5.462   6.387 -0.1562 -0.3932 -0.5222
  162SAPE   HN118145   6.029   5.549   6.334 -0.3173 -0.4019 -0.5930
  162SAPE   HN218146   6.038   5.479   6.486  0.2806  2.7387 -1.0801
  162SAPE   HN318147   6.056   5.385   6.334 -1.0901 -1.1436 -0.2904
  162SAPE   C1218148   5.862   5.432   6.367 -0.0715 -0.3176 -0.2521
  162SAPE  H12A18149   5.831   5.336   6.413  0.4885 -0.4581 -0.1660
  162SAPE  H12B18150   5.859   5.419   6.257  0.5008 -0.6459 -0.2331
  162SAPE   C1118151   5.778   5.554   6.405  0.0094 -0.5543 -0.4098
  162SAPE  H11A18152   5.799   5.559   6.514  3.7269  1.7114 -1.0443
  162SAPE  H11B18153   5.673   5.535   6.375 -0.1459  1.8603 -1.6410
  162SAPE     P18154   5.741   5.769   6.260 -0.1377 -0.0849  0.5360
  162SAPE   O1318155   5.644   5.823   6.356  0.2158 -0.3989 -0.3643
  162SAPE   O1418156   5.822   5.856   6.178 -0.2707  0.0839 -0.1516
  162SAPE   O1218157   5.836   5.676   6.343 -0.4976  0.2677  0.6426
  162SAPE   O1118158   5.668   5.660   6.177 -0.4377 -0.0827 -0.1766
  162SAPE    C118159   5.732   5.576   6.086  0.5866  0.0328  0.2295
  162SAPE    HA18160   5.843   5.575   6.087  0.6162 -2.3037  0.7635
  162SAPE    HB18161   5.701   5.470   6.101  0.7623 -0.0635 -0.0704
  162SAPE    C218162   5.694   5.598   5.935 -0.6132  0.4240 -0.7678
  162SAPE    HS18163   5.740   5.510   5.885 -0.8615 -0.5653  0.6648
  162SAPE   O2118164   5.749   5.717   5.888 -0.2931  0.6578 -0.0877
  162SAPE   C2118165   5.882   5.710   5.873  0.2724  0.5047 -0.2424
  162SAPE   O2218166   5.947   5.608   5.873 -0.0959  0.0917  0.4018
  162SAPE   C2218167   5.924   5.854   5.844 -0.4748 -0.1457  0.3209
  162SAPE   H2R18168   5.886   5.917   5.927 -0.1097  1.5090 -0.7062
  162SAPE   H2S18169   6.035   5.859   5.845 -0.4172 -1.1197  2.1512
  162SAPE    C318170   5.535   5.593   5.904  0.5373 -0.2398  0.4881
  162SAPE    HX18171   5.520   5.698   5.937  2.0940 -0.7174  2.9825
  162SAPE    HY18172   5.476   5.523   5.968 -0.4163 -1.2277 -1.4069
  162SAPE   O3118173   5.502   5.587   5.756 -0.1842  0.3318 -0.8558
  162SAPE   C3118174   5.430   5.482   5.725  0.6552  0.0590 -0.2721
  162SAPE   O3218175   5.375   5.411   5.806 -0.0789 -0.0868  0.0244
  162SAPE   C3218176   5.421   5.463   5.571  0.0522  0.5891 -0.0697
  162SAPE   H2X18177   5.524   5.466   5.529  0.4756 -3.4343  0.3115
  162SAPE   H2Y18178   5.357   5.538   5.520 -0.1552  0.6490  0.2796
  162SAPE   C2318179   5.847   5.896   5.715 -0.0688  0.3380 -0.5465
  162SAPE   H3R18180   5.872   6.004   5.716  1.4309  0.0738 -2.7499
  162SAPE   H3S18181   5.737   5.883   5.715 -0.1206  0.6026  0.8896
  162SAPE   C2418182   5.897   5.830   5.590 -0.0607  0.8925  0.4553
  162SAPE   H4R18183   5.882   5.720   5.594  1.6257  0.6332  0.1749
  162SAPE   H4S18184   6.004   5.856   5.583 -0.1388  0.7929 -1.8480
  162SAPE   C2518185   5.843   5.885   5.454  0.3625  0.4732 -0.3680
  162SAPE   H5R18186   5.886   5.977   5.414 -2.5009  2.0791 -0.0188
  162SAPE   C2618187   5.759   5.811   5.377 -0.4961 -0.0637  0.1608
  162SAPE   H6R18188   5.726   5.856   5.282  1.7303 -1.1114 -1.1805
  162SAPE   C2718189   5.704   5.674   5.404  0.2522  0.3164  0.3920
  162SAPE   H7R18190   5.599   5.677   5.371  0.1060  1.6866  0.8852
  162SAPE   H7S18191   5.692   5.656   5.513  1.1064 -1.5078  0.2233
  162SAPE   C2818192   5.778   5.554   5.369  0.1019  0.5433  0.2017
  162SAPE   H8R18193   5.826   5.491   5.446  1.9272  0.9511 -0.5551
  162SAPE   C2918194   5.795   5.500   5.245 -0.0906 -0.2655 -0.2822
  162SAPE   H9R18195   5.854   5.408   5.239  1.2800  0.5636 -0.0625
  162SAPE  C21018196   5.737   5.549   5.113  0.0196  0.5658  0.2256
  162SAPE  H10R18197   5.707   5.656   5.121  1.2263  0.8899  0.6711
  162SAPE  H10S18198   5.649   5.485   5.094 -1.7214  2.3901  1.6455
  162SAPE  C21118199   5.841   5.555   5.001  0.2052 -0.3157 -0.5413
  162SAPE  H11R18200   5.925   5.625   5.013  0.5532 -0.6414 -1.0182
  162SAPE  C21218201   5.839   5.478   4.888 -1.0538 -0.7988  0.3856
  162SAPE  H12R18202   5.920   5.494   4.816 -2.7529 -1.5891 -1.8215
  162SAPE  C21318203   5.743   5.373   4.842 -0.2305 -0.2322 -0.1937
  162SAPE  H13R18204   5.700   5.385   4.741 -3.4269  2.7301  1.3072
  162SAPE  H13S18205   5.654   5.367   4.908  0.1740 -0.7393  0.3183
  162SAPE  C21418206   5.814   5.238   4.846  0.6507 -0.2234  0.2671
  162SAPE  H14R18207   5.812   5.184   4.941  0.9887  1.2655  1.1590
  162SAPE  C21518208   5.868   5.174   4.744 -1.0486  0.5932 -1.0625
  162SAPE  H15R18209   5.894   5.069   4.766 -0.6453  0.9602  0.2903
  162SAPE  C21618210   5.876   5.208   4.601  0.0503 -0.1110 -0.6019
  162SAPE  H16R18211   5.854   5.316   4.590  2.1890  0.2594 -1.6257
  162SAPE  H16S18212   5.800   5.148   4.546 -3.1591  1.3007  1.9381
  162SAPE  C21718213   6.019   5.189   4.545  0.1148 -0.1352 -0.4985
  162SAPE  H17R18214   6.041   5.081   4.555 -0.2684 -0.2504 -0.8784
  162SAPE  H17S18215   6.079   5.247   4.619 -1.9508  0.1639  1.0226
  162SAPE  C21818216   6.042   5.249   4.410 -0.4101 -0.4462  0.7256
  162SAPE  H18R18217   6.135   5.308   4.414 -0.3658 -0.1328 -2.4050
  162SAPE  H18S18218   5.951   5.310   4.392 -0.4279 -0.2510  1.4588
  162SAPE  C21918219   6.061   5.152   4.290  0.1585 -0.8313  0.7904
  162SAPE  H19R18220   6.166   5.117   4.286  0.7131  0.7341  0.7011
  162SAPE  H19S18221   6.049   5.225   4.207  0.7796  3.8791  4.3703
  162SAPE  C22018222   5.970   5.029   4.284 -0.0546 -0.2456 -0.3781
  162SAPE  H20R18223   5.866   5.067   4.299  0.3529  0.4940  0.7030
  162SAPE  H20S18224   5.997   4.966   4.371  0.9969  1.5469  0.6605
  162SAPE  H20T18225   5.984   4.964   4.196  1.6970  1.1029 -1.1505
  162SAPE   C3318226   5.360   5.329   5.541  0.4024  0.6295 -0.0970
  162SAPE   H3X18227   5.262   5.327   5.594  1.1911 -0.5527  1.4150
  162SAPE   H3Y18228   5.431   5.254   5.584 -1.4941 -1.5705 -0.6302
  162SAPE   C3418229   5.376   5.300   5.388 -0.4096  0.8297 -0.5869
  162SAPE   H4X18230   5.486   5.299   5.371 -0.1355 -1.4137  0.8833
  162SAPE   H4Y18231   5.334   5.392   5.342  0.2891  1.6558  0.3742
  162SAPE   C3518232   5.312   5.174   5.330 -0.4625  0.1238 -0.4788
  162SAPE   H5X18233   5.202   5.186   5.326 -0.4341  0.0359 -1.8809
  162SAPE   H5Y18234   5.347   5.086   5.388 -3.8043 -0.1138  1.4440
  162SAPE   C3618235   5.342   5.173   5.179 -0.0613 -0.5552 -0.1636
  162SAPE   H6X18236   5.451   5.176   5.160 -0.2971 -1.0217 -1.6958
  162SAPE   H6Y18237   5.321   5.271   5.131  0.9257 -0.1219  0.2491
  162SAPE   C3718238   5.270   5.063   5.099  0.1268  0.2200  0.0241
  162SAPE   H7X18239   5.162   5.088   5.108  0.1567  0.4062 -0.1104
  162SAPE   H7Y18240   5.291   4.967   5.152 -0.9497 -0.2855 -0.4250
  162SAPE   C3818241   5.312   5.052   4.956  0.2227 -0.1764 -0.7161
  162SAPE   H8X18242   5.256   4.966   4.913  1.9676 -1.3213 -0.8288
  162SAPE   H8Y18243   5.422   5.038   4.949  0.2287  0.3343 -1.8738
  162SAPE   C3918244   5.290   5.183   4.882  0.0493 -0.0386 -0.0705
  162SAPE   H9X18245   5.369   5.253   4.916 -1.0198  1.2052 -0.0821
  162SAPE   H9Y18246   5.198   5.228   4.924  0.4091  1.6437 -0.9741
  162SAPE  C31018247   5.294   5.162   4.730  0.4025 -0.1215 -0.1265
  162SAPE  H10X18248   5.242   5.252   4.691 -1.5665 -0.1824  2.0954
  162SAPE  H10Y18249   5.229   5.075   4.703 -1.1912  0.2172  2.2926
  162SAPE  C31118250   5.430   5.156   4.678 -0.3277  0.4012  0.2931
  162SAPE  H11X18251   5.474   5.056   4.699 -0.4917  0.6668  2.0885
  162SAPE  H11Y18252   5.492   5.233   4.730 -0.8409 -0.0990  1.7116
  162SAPE  C31218253   5.433   5.187   4.524 -0.5084 -0.0188  0.7743
  162SAPE  H12X18254   5.332   5.162   4.486  0.8019 -2.1763 -1.5450
  162SAPE  H12Y18255   5.504   5.118   4.473 -0.1854 -0.7882  2.2054
  162SAPE  C31318256   5.475   5.337   4.491 -0.2662  0.1480 -1.0852
  162SAPE  H13X18257   5.565   5.354   4.554 -2.6879  1.2688  2.3830
  162SAPE  H13Y18258   5.400   5.397   4.548  0.8032 -1.4245  2.2443
  162SAPE  C31418259   5.475   5.368   4.342 -0.2158  0.6488 -0.0946
  162SAPE  H14X18260   5.513   5.471   4.325  3.0052 -0.3201  0.4129
  162SAPE  H14Y18261   5.382   5.351   4.284  0.9814 -1.5567 -1.5304
  162SAPE  C31518262   5.578   5.283   4.262  0.2226 -0.5041  0.3619
  162SAPE  H15X18263   5.524   5.189   4.240 -0.8953 -0.1147  1.3969
  162SAPE  H15Y18264   5.673   5.260   4.315  0.8105  0.7811 -0.0727
  162SAPE  C31618265   5.621   5.346   4.131 -0.2598 -0.3441 -0.4974
  162SAPE  H16X18266   5.666   5.446   4.152  0.7793 -1.2818  2.0460
  162SAPE  H16Y18267   5.534   5.369   4.066 -0.3741 -1.0035 -0.5792
  162SAPE  C31718268   5.711   5.257   4.052 -0.1878  0.4464  1.1175
  162SAPE  H17X18269   5.662   5.158   4.051  0.4583  0.1232  1.2006
  162SAPE  H17Y18270   5.813   5.243   4.093  1.7534  1.6894 -2.7927
  162SAPE  C31818271   5.731   5.309   3.908  0.1035 -0.0533  0.3360
  162SAPE  H18X18272   5.803   5.251   3.847 -0.4641  0.6815 -1.0823
  162SAPE  H18Y18273   5.781   5.408   3.911  1.8734 -0.9214  0.4959
  162SAPE  H18Z18274   5.636   5.303   3.851  0.2057  0.3937  0.1153
  163SAPE     N18275   4.051   1.580   6.459 -0.2581  0.2109 -0.3833
  163SAPE   HN118276   3.956   1.618   6.482  0.5900  0.3711  3.6224
  163SAPE   HN218277   4.125   1.646   6.490  0.0615  0.7908 -2.2821
  163SAPE   HN318278   4.060   1.586   6.356  0.3546  1.5589 -0.2744
  163SAPE   C1218279   4.067   1.439   6.513  0.0333 -0.0685  0.2260
  163SAPE  H12A18280   3.972   1.383   6.495  0.8121 -1.1108 -0.7770
  163SAPE  H12B18281   4.095   1.427   6.619  1.5036 -2.0760 -0.3211
  163SAPE   C1118282   4.186   1.371   6.426  0.5228  0.1833  0.6428
  163SAPE  H11A18283   4.263   1.450   6.412 -0.7105  1.1878 -0.8310
  163SAPE  H11B18284   4.152   1.358   6.321 -0.2005  0.6971  0.8033
  163SAPE     P18285   4.171   1.110   6.454 -0.0147 -0.3391 -0.0387
  163SAPE   O1318286   4.243   1.014   6.543 -0.2435 -0.2270  0.0358
  163SAPE   O1418287   4.028   1.129   6.477 -0.0830 -0.6730 -0.2017
  163SAPE   O1218288   4.236   1.247   6.475 -0.0672  0.0521 -0.1229
  163SAPE   O1118289   4.207   1.082   6.305  0.1449 -0.8244  0.5028
  163SAPE    C118290   4.349   1.083   6.267 -0.5641  0.1226 -0.3320
  163SAPE    HA18291   4.423   1.076   6.349 -2.2350 -3.0352  1.1060
  163SAPE    HB18292   4.369   0.996   6.200  0.9535  1.2499 -1.4001
  163SAPE    C218293   4.378   1.208   6.182 -0.4972 -0.3047  0.8311
  163SAPE    HS18294   4.365   1.292   6.254 -1.9458 -0.1447  0.4139
  163SAPE   O2118295   4.280   1.228   6.078  0.4312  0.0042 -0.3180
  163SAPE   C2118296   4.279   1.338   6.000 -0.4322  0.1387  0.0567
  163SAPE   O2218297   4.346   1.436   6.021  0.0243 -0.5701  0.3278
  163SAPE   C2218298   4.182   1.319   5.885 -0.3216  0.4015  0.4385
  163SAPE   H2R18299   4.244   1.289   5.798 -2.4644  1.7533 -1.6447
  163SAPE   H2S18300   4.110   1.238   5.909  1.4390 -1.2308  0.4703
  163SAPE    C318301   4.525   1.196   6.121  0.3556 -0.9265  0.4401
  163SAPE    HX18302   4.589   1.199   6.211 -1.0005 -0.3861  1.4103
  163SAPE    HY18303   4.552   1.286   6.062 -1.6471 -0.8756 -0.4819
  163SAPE   O3118304   4.551   1.071   6.053 -0.0733  0.1240  0.2119
  163SAPE   C3118305   4.538   1.086   5.915  0.0816  0.0988 -0.2551
  163SAPE   O3218306   4.496   1.189   5.859 -0.1144  0.3542 -0.1463
  163SAPE   C3218307   4.565   0.953   5.849  0.3811  0.0819 -0.3470
  163SAPE   H2X18308   4.469   0.901   5.826  1.6278 -1.4289 -2.4628
  163SAPE   H2Y18309   4.626   0.896   5.922  0.4306 -0.9758 -1.1824
  163SAPE   C2318310   4.096   1.452   5.845 -0.1254 -0.7128 -0.0749
  163SAPE   H3R18311   4.166   1.538   5.860 -1.1221  0.2369 -0.7005
  163SAPE   H3S18312   4.029   1.462   5.933 -0.8436  1.1280 -0.7695
  163SAPE   C2418313   4.046   1.468   5.707  0.4557  0.0258 -0.7013
  163SAPE   H4R18314   4.124   1.417   5.646  1.1475 -1.7357  1.4972
  163SAPE   H4S18315   4.023   1.571   5.672 -0.9513  0.0928  0.3353
  163SAPE   C2518316   3.921   1.382   5.690  0.2802 -0.6257 -0.0178
  163SAPE   H5R18317   3.891   1.312   5.769  1.1542 -0.7622  0.2026
  163SAPE   C2618318   3.840   1.376   5.577 -0.9673 -0.5431 -0.1531
  163SAPE   H6R18319   3.742   1.328   5.588 -1.4215  0.1101 -1.2173
  163SAPE   C2718320   3.843   1.459   5.455  0.1949  0.0679  0.1596
  163SAPE   H7R18321   3.943   1.506   5.445  0.7694 -1.0786  0.3823
  163SAPE   H7S18322   3.775   1.546   5.469 -0.8377 -0.1064 -3.0496
  163SAPE   C2818323   3.803   1.390   5.327 -0.2455  0.4071 -0.4592
  163SAPE   H8R18324   3.874   1.312   5.296  0.6623  1.2436 -0.5145
  163SAPE   C2918325   3.699   1.422   5.249 -0.4146 -0.2950 -0.5727
  163SAPE   H9R18326   3.674   1.358   5.163 -1.0541  1.1729 -1.5244
  163SAPE  C21018327   3.592   1.524   5.279  1.0754  0.5701  0.0024
  163SAPE  H10R18328   3.561   1.568   5.182  0.1625  0.3232  0.1727
  163SAPE  H10S18329   3.637   1.606   5.338  0.6681 -1.3297  3.1655
  163SAPE  C21118330   3.480   1.468   5.359 -0.1289 -0.2831 -0.2198
  163SAPE  H11R18331   3.498   1.462   5.468 -2.3956 -1.1366  0.1662
  163SAPE  C21218332   3.368   1.423   5.305 -0.2437 -0.1545 -0.3939
  163SAPE  H12R18333   3.287   1.404   5.377 -0.0087  0.6623  0.0893
  163SAPE  C21318334   3.331   1.440   5.162  0.7239  1.0759  0.5859
  163SAPE  H13R18335   3.400   1.380   5.099  0.2903 -0.2539  1.3276
  163SAPE  H13S18336   3.327   1.547   5.131  0.4643  0.2971 -2.3827
  163SAPE  C21418337   3.184   1.399   5.136  0.9788 -0.4151  0.6384
  163SAPE  H14R18338   3.122   1.377   5.224  1.8684  1.0519  1.6969
  163SAPE  C21518339   3.133   1.388   5.010  0.3676 -0.2024  0.0798
  163SAPE  H15R18340   3.033   1.342   4.998 -0.1115  0.5940  0.9116
  163SAPE  C21618341   3.203   1.409   4.878  0.0517 -0.4435  0.8941
  163SAPE  H16R18342   3.203   1.311   4.826 -2.0825 -0.7875  1.4834
  163SAPE  H16S18343   3.312   1.427   4.895  0.8780 -2.7438 -1.3547
  163SAPE  C21718344   3.162   1.525   4.784 -0.6742  0.0491 -0.3746
  163SAPE  H17R18345   3.051   1.525   4.788 -0.6526  0.6030  0.6255
  163SAPE  H17S18346   3.200   1.492   4.685  1.2802 -1.0041  0.6646
  163SAPE  C21818347   3.212   1.661   4.828 -0.5074  0.1887 -0.0855
  163SAPE  H18R18348   3.322   1.651   4.845 -0.0115  3.0347 -1.0929
  163SAPE  H18S18349   3.177   1.693   4.928  2.5254  0.0213  1.1280
  163SAPE  C21918350   3.199   1.775   4.732  0.4101  0.4804  0.4135
  163SAPE  H19R18351   3.256   1.749   4.641 -0.5310  2.9977 -1.0133
  163SAPE  H19S18352   3.249   1.865   4.773  0.3425  0.5572  0.3269
  163SAPE  C22018353   3.054   1.803   4.691  1.2874 -0.1874 -0.3729
  163SAPE  H20R18354   2.980   1.758   4.761 -0.1057  0.4101 -1.3940
  163SAPE  H20S18355   3.029   1.756   4.593  0.0200  3.4130 -1.9496
  163SAPE  H20T18356   3.034   1.911   4.673  0.4439 -0.3577 -0.5039
  163SAPE   C3318357   4.642   0.975   5.721 -0.3535 -0.0408 -0.2919
  163SAPE   H3X18358   4.683   0.881   5.680 -2.3232 -0.6093 -1.0651
  163SAPE   H3Y18359   4.723   1.045   5.750  0.0970 -1.0441  0.9577
  163SAPE   C3418360   4.565   1.029   5.599  0.0836 -0.4230 -0.0293
  163SAPE   H4X18361   4.527   1.129   5.627 -1.3561 -1.5699  2.5270
  163SAPE   H4Y18362   4.478   0.969   5.562  1.5125 -2.4383 -0.3108
  163SAPE   C3518363   4.651   1.048   5.478 -0.4180  0.5478 -0.0821
  163SAPE   H5X18364   4.701   0.958   5.436  0.3103  1.0738 -0.3677
  163SAPE   H5Y18365   4.731   1.125   5.485 -1.1085  1.7634 -3.4464
  163SAPE   C3618366   4.562   1.111   5.367  0.0755  0.2801  0.0692
  163SAPE   H6X18367   4.526   1.213   5.394 -0.3259  0.1785 -0.0673
  163SAPE   H6Y18368   4.469   1.055   5.343  1.1636 -0.3295 -3.2890
  163SAPE   C3718369   4.634   1.127   5.237  0.2510 -0.0106 -0.5640
  163SAPE   H7X18370   4.690   1.034   5.217  1.7301  0.6134  0.4669
  163SAPE   H7Y18371   4.695   1.221   5.233 -1.4330  1.1494 -0.0884
  163SAPE   C3818372   4.528   1.144   5.118  0.3702 -0.6058  0.4718
  163SAPE   H8X18373   4.487   1.247   5.124 -2.3037 -1.6589  1.9474
  163SAPE   H8Y18374   4.440   1.079   5.133 -0.1490  0.0083  0.1380
  163SAPE   C3918375   4.577   1.108   4.975  0.2467 -0.0927  0.5949
  163SAPE   H9X18376   4.628   1.010   4.958 -0.8926 -0.4824 -0.7929
  163SAPE   H9Y18377   4.660   1.181   4.968 -0.1632  0.3114 -0.0679
  163SAPE  C31018378   4.478   1.133   4.862  0.3778  0.0932 -0.1674
  163SAPE  H10X18379   4.392   1.066   4.883  1.7702 -1.9801 -0.8970
  163SAPE  H10Y18380   4.526   1.105   4.766  2.3775 -0.7370  1.0251
  163SAPE  C31118381   4.423   1.279   4.857 -0.0353 -0.5262 -0.1140
  163SAPE  H11X18382   4.510   1.344   4.879 -2.1547  1.4010  3.6469
  163SAPE  H11Y18383   4.351   1.305   4.937  0.6064 -0.1528  0.3550
  163SAPE  C31218384   4.353   1.311   4.729 -0.2058 -0.4660  1.0979
  163SAPE  H12X18385   4.246   1.283   4.730 -0.2818 -0.4306 -0.9968
  163SAPE  H12Y18386   4.391   1.262   4.637 -0.6001  1.2431 -0.0309
  163SAPE  C31318387   4.362   1.466   4.704 -0.4077 -0.1057  0.0954
  163SAPE  H13X18388   4.469   1.488   4.685 -0.0274 -0.6051  1.5238
  163SAPE  H13Y18389   4.337   1.514   4.802  2.1719  2.6616 -0.4672
  163SAPE  C31418390   4.269   1.515   4.591  0.5800 -0.4262 -0.3214
  163SAPE  H14X18391   4.168   1.474   4.610  0.9128 -0.7843  0.7777
  163SAPE  H14Y18392   4.298   1.458   4.500 -0.3957 -1.6895  0.1265
  163SAPE  C31518393   4.293   1.668   4.564  0.3301  0.8100  0.0252
  163SAPE  H15X18394   4.399   1.681   4.533 -0.0295  0.5338 -1.3639
  163SAPE  H15Y18395   4.272   1.719   4.660 -1.6639  2.1075 -1.0341
  163SAPE  C31618396   4.183   1.714   4.465 -0.0362  0.2850 -0.7641
  163SAPE  H16X18397   4.082   1.701   4.510 -1.5009  1.0325 -3.5371
  163SAPE  H16Y18398   4.179   1.640   4.382 -0.7905  1.0982 -1.4869
  163SAPE  C31718399   4.197   1.855   4.402  0.1728 -0.3936 -0.6716
  163SAPE  H17X18400   4.259   1.861   4.310 -0.8942  1.8069 -1.3097
  163SAPE  H17Y18401   4.245   1.926   4.472  0.8759 -0.2646 -1.2634
  163SAPE  C31818402   4.060   1.926   4.384  0.1984  0.0347  0.5555
  163SAPE  H18X18403   3.985   1.881   4.315 -1.3455  2.7572  0.2983
  163SAPE  H18Y18404   4.074   2.018   4.324  0.6941 -0.3280  0.1157
  163SAPE  H18Z18405   4.012   1.949   4.482  0.4201  0.9419  0.4599
  164SAPE     N18406   2.338   4.973   6.667 -0.5715 -0.2443 -0.3708
  164SAPE   HN118407   2.271   4.929   6.601  0.3908  0.4659 -1.8842
  164SAPE   HN218408   2.404   4.901   6.702  0.5202  0.9406  0.0676
  164SAPE   HN318409   2.286   5.004   6.751  0.2168 -0.8756  0.3732
  164SAPE   C1218410   2.429   5.075   6.606 -0.0587 -0.1562  0.4513
  164SAPE  H12A18411   2.530   5.081   6.651  0.2502 -2.2096  0.1259
  164SAPE  H12B18412   2.376   5.171   6.624  0.2918 -0.3254  2.6698
  164SAPE   C1118413   2.449   5.043   6.456  0.3259 -0.4019  0.7133
  164SAPE  H11A18414   2.483   4.939   6.437  1.0673  0.0317 -0.4510
  164SAPE  H11B18415   2.530   5.102   6.407  0.7373 -2.1341 -0.7964
  164SAPE     P18416   2.283   5.156   6.276 -0.4911 -0.1235  0.0528
  164SAPE   O1318417   2.172   5.099   6.200  0.7306 -0.3851  0.5134
  164SAPE   O1418418   2.261   5.288   6.339 -0.1854 -0.1622  0.2278
  164SAPE   O1218419   2.329   5.057   6.389  0.5363  0.2787  0.4051
  164SAPE   O1118420   2.402   5.162   6.178  0.4146  0.1197 -0.4041
  164SAPE    C118421   2.470   5.277   6.139 -0.2164 -0.6182 -0.6678
  164SAPE    HA18422   2.498   5.343   6.224  0.5949 -0.8540 -0.7481
  164SAPE    HB18423   2.565   5.245   6.092 -0.1823 -1.1105 -0.2677
  164SAPE    C218424   2.391   5.365   6.038 -0.1328 -0.2681 -0.0507
  164SAPE    HS18425   2.311   5.415   6.096 -0.0884 -0.4267  0.1476
  164SAPE   O2118426   2.342   5.270   5.943 -0.3547  0.3927 -0.1588
  164SAPE   C2118427   2.211   5.289   5.911 -1.3199  0.3161  0.3543
  164SAPE   O2218428   2.137   5.370   5.960  0.3001  0.6149  0.1661
  164SAPE   C2218429   2.171   5.166   5.828 -0.3986  0.3641  0.3352
  164SAPE   H2R18430   2.265   5.115   5.799 -0.8035 -1.2886  1.7093
  164SAPE   H2S18431   2.120   5.101   5.904 -0.7851  0.0045 -0.2208
  164SAPE    C318432   2.470   5.486   5.971  0.2817  0.0884 -0.2356
  164SAPE    HX18433   2.540   5.423   5.912  1.2373  0.8180  0.0955
  164SAPE    HY18434   2.528   5.540   6.049 -0.8183 -0.6796  1.1721
  164SAPE   O3118435   2.378   5.563   5.900  0.0427  0.0871  0.0043
  164SAPE   C3118436   2.339   5.672   5.955  1.8652 -0.2822  0.4669
  164SAPE   O3218437   2.374   5.718   6.060  0.4611  0.1612  0.0528
  164SAPE   C3218438   2.219   5.722   5.873  0.0529 -1.1282 -0.3506
  164SAPE   H2X18439   2.226   5.832   5.890  1.0022 -1.5409  2.5199
  164SAPE   H2Y18440   2.133   5.685   5.933  1.5902 -3.2698  0.6601
  164SAPE   C2318441   2.080   5.192   5.709 -0.5215 -0.3980  0.2646
  164SAPE   H3R18442   1.977   5.227   5.732 -0.8541 -0.1761 -1.4205
  164SAPE   H3S18443   2.070   5.095   5.654 -2.5332  0.9670 -2.0078
  164SAPE   C2418444   2.151   5.276   5.604 -0.1139  0.4321 -0.7249
  164SAPE   H4R18445   2.248   5.233   5.571  0.3520  0.5420  0.4423
  164SAPE   H4S18446   2.195   5.366   5.652  1.9383 -0.0582 -1.5583
  164SAPE   C2518447   2.071   5.322   5.486 -0.2507 -0.3785 -0.2008
  164SAPE   H5R18448   1.972   5.366   5.502  0.5985  1.3977  0.4325
  164SAPE   C2618449   2.095   5.284   5.352  0.5334 -0.8500 -0.2018
  164SAPE   H6R18450   2.032   5.338   5.281 -1.0331 -0.0103  1.7284
  164SAPE   C2718451   2.196   5.193   5.301 -0.3493  0.3895  0.1408
  164SAPE   H7R18452   2.284   5.198   5.370  1.0147  2.2563 -1.5884
  164SAPE   H7S18453   2.225   5.233   5.201 -1.1773 -1.1010 -0.7255
  164SAPE   C2818454   2.131   5.059   5.285 -0.4415 -0.0627  0.0932
  164SAPE   H8R18455   2.124   4.994   5.374 -1.3308 -0.0571  0.0344
  164SAPE   C2918456   2.072   5.015   5.170 -0.5958 -0.4726  0.4193
  164SAPE   H9R18457   2.023   4.917   5.161 -0.3544 -0.7073  1.5378
  164SAPE  C21018458   2.054   5.101   5.042  0.3151 -0.4346 -0.4013
  164SAPE  H10R18459   2.043   5.203   5.086  0.8885 -1.8545  3.4036
  164SAPE  H10S18460   1.956   5.084   4.993  0.1870 -0.8312 -0.0171
  164SAPE  C21118461   2.174   5.094   4.953 -0.0109 -0.0749 -1.1022
  164SAPE  H11R18462   2.270   5.091   5.007 -1.1806 -0.9979  1.0597
  164SAPE  C21218463   2.172   5.090   4.820  0.0766 -0.4711 -0.7300
  164SAPE  H12R18464   2.264   5.077   4.762  0.0742  0.4118 -0.9449
  164SAPE  C21318465   2.051   5.094   4.730 -0.0681 -0.3044  0.0239
  164SAPE  H13R18466   1.970   5.136   4.793  0.9411  1.3343  0.2658
  164SAPE  H13S18467   2.011   4.992   4.708 -1.2535  0.1920 -0.2098
  164SAPE  C21418468   2.068   5.178   4.598 -0.1609  0.8987  0.1264
  164SAPE  H14R18469   2.160   5.238   4.594 -0.3477  1.2829  1.3155
  164SAPE  C21518470   1.990   5.189   4.490 -0.8409 -0.1316  0.1988
  164SAPE  H15R18471   2.024   5.247   4.403 -0.2295 -0.9611 -0.1256
  164SAPE  C21618472   1.851   5.131   4.467 -0.0676 -0.0791 -0.1372
  164SAPE  H16R18473   1.822   5.078   4.560 -4.6222  0.9451 -0.7754
  164SAPE  H16S18474   1.852   5.059   4.382  0.4210  1.1282 -1.1833
  164SAPE  C21718475   1.752   5.246   4.433  0.0899 -0.1554  0.0133
  164SAPE  H17R18476   1.749   5.327   4.509 -1.5392 -0.2395  0.0592
  164SAPE  H17S18477   1.652   5.200   4.446  0.0775  0.3191  1.9993
  164SAPE  C21818478   1.764   5.308   4.294 -0.3404  0.4521  0.0747
  164SAPE  H18R18479   1.735   5.223   4.228  0.4707 -1.8435  2.5083
  164SAPE  H18S18480   1.862   5.349   4.263  0.0417 -1.0830 -0.8454
  164SAPE  C21918481   1.660   5.424   4.292  0.4773  0.4557 -1.2435
  164SAPE  H19R18482   1.693   5.502   4.364 -1.7536  1.7144 -1.4914
  164SAPE  H19S18483   1.567   5.379   4.331  0.6277  1.4926  0.4193
  164SAPE  C22018484   1.650   5.490   4.161  0.0992  0.3674 -0.2936
  164SAPE  H20R18485   1.737   5.557   4.146  0.0500  0.3209 -0.7945
  164SAPE  H20S18486   1.567   5.564   4.152 -0.3557  0.0301  0.9445
  164SAPE  H20T18487   1.639   5.419   4.076 -0.2878 -1.6651  1.3776
  164SAPE   C3318488   2.217   5.700   5.720 -0.2633  0.1170  0.3266
  164SAPE   H3X18489   2.109   5.702   5.695 -0.4215  0.5074  1.0200
  164SAPE   H3Y18490   2.251   5.598   5.691 -0.2709  0.0561  0.5317
  164SAPE   C3418491   2.285   5.808   5.633 -0.3592  0.0058 -0.0632
  164SAPE   H4X18492   2.395   5.798   5.622 -0.4434 -0.1984 -0.8151
  164SAPE   H4Y18493   2.275   5.907   5.682 -0.0171 -0.7209  1.5228
  164SAPE   C3518494   2.232   5.817   5.484 -0.3482  0.7419 -0.0131
  164SAPE   H5X18495   2.290   5.903   5.443 -0.7564  0.8827 -0.3043
  164SAPE   H5Y18496   2.126   5.852   5.490  0.1282  2.0714  1.0984
  164SAPE   C3618497   2.253   5.695   5.391 -0.0252 -0.2148  0.1232
  164SAPE   H6X18498   2.182   5.616   5.423 -0.9512  0.6463  0.2548
  164SAPE   H6Y18499   2.357   5.659   5.406 -0.0622  0.1760  1.4254
  164SAPE   C3718500   2.241   5.735   5.244 -0.6809 -0.4682 -0.3076
  164SAPE   H7X18501   2.314   5.818   5.237  0.7504 -1.7254 -0.6851
  164SAPE   H7Y18502   2.142   5.786   5.236 -0.4017  0.0852 -0.2915
  164SAPE   C3818503   2.243   5.627   5.136  0.7046  0.7510  0.1192
  164SAPE   H8X18504   2.208   5.659   5.036 -0.1348 -0.7384 -0.0828
  164SAPE   H8Y18505   2.171   5.552   5.174  2.1770 -0.5104  0.4888
  164SAPE   C3918506   2.376   5.575   5.108 -0.3194 -0.1382  0.5507
  164SAPE   H9X18507   2.424   5.527   5.196 -0.1977 -0.8359  0.1131
  164SAPE   H9Y18508   2.444   5.660   5.082 -1.4660  0.2968 -1.2215
  164SAPE  C31018509   2.363   5.467   4.993  1.0630  0.3985 -0.7597
  164SAPE  H10X18510   2.279   5.404   5.030  0.9885  1.2507  0.6182
  164SAPE  H10Y18511   2.451   5.400   4.987  0.4372 -0.2832 -3.2408
  164SAPE  C31118512   2.361   5.524   4.852  0.5875  0.4572  0.3283
  164SAPE  H11X18513   2.461   5.570   4.834  1.4646 -0.4968  2.4651
  164SAPE  H11Y18514   2.289   5.608   4.844  1.0376  0.7432 -1.0122
  164SAPE  C31218515   2.338   5.420   4.742 -0.1075  0.1124 -0.2453
  164SAPE  H12X18516   2.251   5.357   4.773  0.8893 -1.2663 -0.1675
  164SAPE  H12Y18517   2.430   5.360   4.725 -0.8875 -1.0406 -0.5391
  164SAPE  C31318518   2.285   5.485   4.611  0.2849 -0.0783 -0.2001
  164SAPE  H13X18519   2.189   5.536   4.633  0.6410 -0.3970  2.3028
  164SAPE  H13Y18520   2.271   5.403   4.537  1.3644 -1.4393  1.0504
  164SAPE  C31418521   2.389   5.584   4.548 -0.0807  0.4360 -0.0732
  164SAPE  H14X18522   2.488   5.534   4.548  0.3055  1.0884  2.3116
  164SAPE  H14Y18523   2.387   5.685   4.594 -2.2753  0.2719  0.3410
  164SAPE  C31518524   2.359   5.617   4.399  0.1114  0.3564  0.3432
  164SAPE  H15X18525   2.381   5.525   4.341  1.9813  1.7334 -1.2749
  164SAPE  H15Y18526   2.423   5.702   4.366  1.9951 -1.8124 -1.9512
  164SAPE  C31618527   2.221   5.670   4.370  0.0231 -0.5160  0.7337
  164SAPE  H16X18528   2.189   5.757   4.430 -3.7743 -0.6622 -0.7859
  164SAPE  H16Y18529   2.150   5.587   4.389  3.2620 -3.6286  0.4223
  164SAPE  C31718530   2.196   5.690   4.220 -0.1764  0.1831 -0.1641
  164SAPE  H17X18531   2.193   5.591   4.169 -0.1340  1.1213 -2.0904
  164SAPE  H17Y18532   2.278   5.758   4.188 -0.4239  0.7275  0.3588
  164SAPE  C31818533   2.062   5.754   4.193 -0.4011  0.5034 -0.1780
  164SAPE  H18X18534   1.971   5.692   4.207 -0.9873  1.3673 -0.0762
  164SAPE  H18Y18535   2.069   5.800   4.092 -0.7331  0.1195 -0.3765
  164SAPE  H18Z18536   2.050   5.829   4.273 -2.2285 -1.4347  1.4779
  165SAPE     N18537   5.380   6.590   6.548  0.9178  0.0679 -0.5224
  165SAPE   HN118538   5.314   6.668   6.569  0.5558 -0.4662  0.3674
  165SAPE   HN218539   5.374   6.526   6.630 -1.3883  1.8824  0.8751
  165SAPE   HN318540   5.473   6.636   6.549  0.2929  1.4819  1.7017
  165SAPE   C1218541   5.350   6.535   6.414 -0.0374  0.0881  0.1592
  165SAPE  H12A18542   5.317   6.623   6.355 -1.0650  0.2624  0.9686
  165SAPE  H12B18543   5.261   6.468   6.408  0.6061 -0.7964  0.2932
  165SAPE   C1118544   5.474   6.460   6.363  0.6199  0.0318  0.2021
  165SAPE  H11A18545   5.555   6.525   6.322  1.7755 -1.9767 -0.8819
  165SAPE  H11B18546   5.444   6.396   6.277 -0.1080 -1.1987  1.3215
  165SAPE     P18547   5.487   6.234   6.483  0.2164 -0.1359  0.2353
  165SAPE   O1318548   5.567   6.167   6.588  0.1597 -0.3061 -0.1881
  165SAPE   O1418549   5.337   6.230   6.494 -0.3692 -0.1364  0.2014
  165SAPE   O1218550   5.538   6.377   6.464  0.6079 -0.3052  0.5817
  165SAPE   O1118551   5.533   6.168   6.346 -0.0021 -0.5542  0.3448
  165SAPE    C118552   5.669   6.197   6.293  0.2478 -0.1021  0.2681
  165SAPE    HA18553   5.714   6.286   6.341 -0.9688  1.8561 -2.0122
  165SAPE    HB18554   5.729   6.104   6.305 -0.4125 -0.5481  0.2177
  165SAPE    C218555   5.669   6.237   6.146 -0.2707 -0.6615 -0.0180
  165SAPE    HS18556   5.622   6.337   6.134  2.5203  0.5712 -1.5339
  165SAPE   O2118557   5.625   6.140   6.056 -0.5201  0.7471 -0.3231
  165SAPE   C2118558   5.494   6.135   6.040 -0.2246 -0.3480  0.4141
  165SAPE   O2218559   5.412   6.213   6.082  0.6953  0.5105  0.2462
  165SAPE   C2218560   5.456   6.012   5.964  0.3136  0.3770  0.4253
  165SAPE   H2R18561   5.485   5.919   6.017  2.6452 -0.1103 -1.5138
  165SAPE   H2S18562   5.345   6.013   5.966  0.3029 -0.2201  0.3296
  165SAPE    C318563   5.824   6.262   6.111  0.0355  0.5044  0.0201
  165SAPE    HX18564   5.878   6.169   6.139 -1.0539 -0.1882 -0.1150
  165SAPE    HY18565   5.855   6.341   6.182  2.0975 -0.5578  0.3731
  165SAPE   O3118566   5.842   6.310   5.972 -0.3654 -0.2458 -0.3692
  165SAPE   C3118567   5.965   6.365   5.956 -0.5612  0.2021  0.8560
  165SAPE   O3218568   6.051   6.366   6.042 -0.1223 -0.3481  0.0470
  165SAPE   C3218569   5.980   6.406   5.812  0.4092  0.0363 -0.6915
  165SAPE   H2X18570   6.088   6.405   5.786  1.2590 -0.2868  2.4651
  165SAPE   H2Y18571   5.926   6.502   5.795 -0.2852 -0.1009  0.6374
  165SAPE   C2318572   5.514   6.005   5.826  0.6654 -0.0495  0.5483
  165SAPE   H3R18573   5.478   5.912   5.777  0.0336  0.4390  0.0805
  165SAPE   H3S18574   5.626   6.008   5.827  0.6625  1.0961 -0.3250
  165SAPE   C2418575   5.461   6.119   5.738 -0.4122 -0.5639 -0.1010
  165SAPE   H4R18576   5.510   6.210   5.778  0.0666 -0.6819 -0.4093
  165SAPE   H4S18577   5.352   6.126   5.759 -0.0440  2.1099  1.3124
  165SAPE   C2518578   5.495   6.118   5.592 -1.1002 -0.3327 -0.1471
  165SAPE   H5R18579   5.567   6.195   5.561 -1.4939  1.3123  2.6377
  165SAPE   C2618580   5.443   6.037   5.500 -0.3480 -0.0680  0.5072
  165SAPE   H6R18581   5.467   6.039   5.393 -1.3990 -2.5408  0.1561
  165SAPE   C2718582   5.339   5.934   5.533 -0.1221 -0.8252  0.3450
  165SAPE   H7R18583   5.314   5.927   5.641  0.0790  1.3854  0.5703
  165SAPE   H7S18584   5.375   5.830   5.518  1.3713 -0.2828  0.0938
  165SAPE   C2818585   5.211   5.952   5.459 -0.4261 -0.3707 -0.0860
  165SAPE   H8R18586   5.153   6.041   5.486  0.9055 -0.0953  2.1315
  165SAPE   C2918587   5.160   5.884   5.354  0.0596  0.2921 -0.1938
  165SAPE   H9R18588   5.059   5.908   5.317 -0.0652  0.3502  0.1793
  165SAPE  C21018589   5.211   5.755   5.286  0.4069  0.0877 -0.0398
  165SAPE  H10R18590   5.131   5.704   5.228  0.5637 -1.7458  1.2543
  165SAPE  H10S18591   5.229   5.679   5.366  1.3044  0.9934  0.6482
  165SAPE  C21118592   5.330   5.755   5.197  0.2044 -0.5414  0.0257
  165SAPE  H11R18593   5.411   5.817   5.238  0.4391 -0.1315 -1.0372
  165SAPE  C21218594   5.348   5.709   5.068  0.0449 -0.1361  0.0994
  165SAPE  H12R18595   5.447   5.716   5.020 -0.5142 -3.1074 -1.7778
  165SAPE  C21318596   5.239   5.624   5.000 -0.7915  0.5358  0.3521
  165SAPE  H13R18597   5.160   5.601   5.074 -1.6856 -0.2984 -0.8282
  165SAPE  H13S18598   5.275   5.521   4.977 -0.3996  0.7523 -0.0101
  165SAPE  C21418599   5.167   5.686   4.882  0.1395 -0.5617  0.1176
  165SAPE  H14R18600   5.066   5.724   4.908  0.2450  0.0597 -0.3529
  165SAPE  C21518601   5.215   5.703   4.751  0.6813 -0.0532  0.2481
  165SAPE  H15R18602   5.142   5.738   4.676  0.9152 -1.9775 -0.9301
  165SAPE  C21618603   5.351   5.665   4.701 -0.0022  0.0426  0.4135
  165SAPE  H16R18604   5.367   5.555   4.696  1.4176 -0.0592  3.9848
  165SAPE  H16S18605   5.426   5.691   4.778  0.0257  0.6731  0.1797
  165SAPE  C21718606   5.392   5.740   4.568 -0.0579 -0.7253  0.6958
  165SAPE  H17R18607   5.501   5.727   4.548 -0.2540 -0.3325 -0.7840
  165SAPE  H17S18608   5.368   5.847   4.581 -1.9485 -0.8619 -1.0915
  165SAPE  C21818609   5.302   5.706   4.446  0.4363 -0.9272  0.6978
  165SAPE  H18R18610   5.198   5.742   4.460  1.1186  0.7234  1.7391
  165SAPE  H18S18611   5.311   5.596   4.434  3.7248 -0.7563  0.5833
  165SAPE  C21918612   5.359   5.774   4.315 -0.3459 -0.9780  0.0310
  165SAPE  H19R18613   5.310   5.743   4.220 -2.2162 -0.6412  0.8348
  165SAPE  H19S18614   5.466   5.746   4.309 -0.2393 -0.8732  1.2382
  165SAPE  C22018615   5.339   5.926   4.318 -0.1631 -0.0202 -0.5118
  165SAPE  H20R18616   5.233   5.954   4.334  0.3146  3.1411 -2.0022
  165SAPE  H20S18617   5.372   5.957   4.217  0.0533 -1.9267 -1.0539
  165SAPE  H20T18618   5.406   5.976   4.392 -0.5623 -0.4789  0.1719
  165SAPE   C3318619   5.933   6.303   5.710 -0.3385 -0.0349 -0.0999
  165SAPE   H3X18620   5.831   6.272   5.744 -0.6909 -0.8330 -1.7568
  165SAPE   H3Y18621   5.989   6.208   5.709 -0.9260 -0.3886 -0.5238
  165SAPE   C3418622   5.922   6.359   5.566 -0.4692 -0.1425  0.0106
  165SAPE   H4X18623   6.019   6.372   5.514  0.2546 -1.3040  1.0052
  165SAPE   H4Y18624   5.880   6.460   5.582 -0.0072 -0.1240  1.2044
  165SAPE   C3518625   5.826   6.273   5.468 -0.1547 -0.2444 -0.9032
  165SAPE   H5X18626   5.725   6.303   5.505  0.3611  0.4047  0.0124
  165SAPE   H5Y18627   5.838   6.164   5.488  0.4559 -0.3896 -2.0032
  165SAPE   C3618628   5.852   6.296   5.319  0.8586  1.6186 -0.0884
  165SAPE   H6X18629   5.949   6.256   5.282 -0.1226 -0.3906 -0.6669
  165SAPE   H6Y18630   5.855   6.405   5.302  1.0852  2.2511  3.3527
  165SAPE   C3718631   5.729   6.241   5.243 -0.5718  0.8592 -0.2650
  165SAPE   H7X18632   5.632   6.266   5.292 -1.0856  0.7921 -1.2162
  165SAPE   H7Y18633   5.743   6.131   5.241  1.6234  1.1020 -0.6142
  165SAPE   C3818634   5.726   6.285   5.096 -0.2738  0.1674 -0.4467
  165SAPE   H8X18635   5.797   6.222   5.038 -0.5404 -1.6890  1.1720
  165SAPE   H8Y18636   5.756   6.392   5.091 -0.9929  0.4029  0.1375
  165SAPE   C3918637   5.594   6.294   5.011  0.1664 -0.1728 -0.0668
  165SAPE   H9X18638   5.523   6.354   5.071 -0.4750 -0.3703 -0.6102
  165SAPE   H9Y18639   5.550   6.193   4.991  0.1883 -0.2311  0.1744
  165SAPE  C31018640   5.606   6.365   4.878  0.1280 -0.2747 -0.0203
  165SAPE  H10X18641   5.712   6.353   4.847  1.3828  0.4186  3.5421
  165SAPE  H10Y18642   5.594   6.473   4.900 -0.7928  0.3165 -2.9515
  165SAPE  C31118643   5.504   6.322   4.765 -0.3115 -0.7697  0.1350
  165SAPE  H11X18644   5.524   6.397   4.685  0.5274  1.7711  2.5820
  165SAPE  H11Y18645   5.402   6.331   4.807  0.3295  0.8481  1.4367
  165SAPE  C31218646   5.518   6.173   4.708 -0.1216  0.2559  0.4905
  165SAPE  H12X18647   5.453   6.176   4.618 -0.1190  0.3835  0.4927
  165SAPE  H12Y18648   5.486   6.096   4.782 -1.2702  0.1976 -0.0493
  165SAPE  C31318649   5.659   6.146   4.646  0.1399  0.3272 -0.3834
  165SAPE  H13X18650   5.735   6.139   4.727  2.5872 -0.8087 -2.6701
  165SAPE  H13Y18651   5.689   6.219   4.568  0.7084 -0.8171 -1.2508
  165SAPE  C31418652   5.665   5.999   4.577  0.2387 -0.4038 -0.3525
  165SAPE  H14X18653   5.566   5.977   4.532 -0.0883 -0.5962  0.4396
  165SAPE  H14Y18654   5.677   5.914   4.648  0.3494  0.4387  0.6511
  165SAPE  C31518655   5.778   5.992   4.472 -0.4746  0.1620  0.3192
  165SAPE  H15X18656   5.871   6.019   4.527 -1.2390 -2.1161  2.9372
  165SAPE  H15Y18657   5.761   6.071   4.396  0.6015 -1.5354 -1.7874
  165SAPE  C31618658   5.798   5.853   4.396  0.1856 -0.5469 -0.0125
  165SAPE  H16X18659   5.863   5.885   4.312  1.3704 -0.2042  0.9910
  165SAPE  H16Y18660   5.698   5.824   4.358 -0.0519 -1.3214  1.1426
  165SAPE  C31718661   5.864   5.740   4.468 -1.0243  0.3143 -0.4171
  165SAPE  H17X18662   5.813   5.732   4.566  0.5667 -1.3886  0.3328
  165SAPE  H17Y18663   5.971   5.763   4.489 -0.4410 -1.3686 -1.3197
  165SAPE  C31818664   5.859   5.602   4.395  0.1248  0.0601 -0.0371
  165SAPE  H18X18665   5.907   5.612   4.296  0.9847  0.5836  0.4158
  165SAPE  H18Y18666   5.753   5.572   4.386 -0.8038  2.3061  2.1745
  165SAPE  H18Z18667   5.914   5.522   4.449  1.0307  0.1294 -0.8345
  166SAPE     N18668   3.071   1.611   5.928  0.1883 -0.1512  0.3086
  166SAPE   HN118669   3.090   1.694   5.869 -2.6013 -1.0000 -2.0428
  166SAPE   HN218670   3.099   1.531   5.867 -1.8961  0.4484 -1.5989
  166SAPE   HN318671   2.968   1.599   5.937  0.1231  0.4658  0.4295
  166SAPE   C1218672   3.142   1.610   6.055 -0.0998  0.1842 -0.3848
  166SAPE  H12A18673   3.149   1.718   6.082  0.3724  0.6652 -2.3113
  166SAPE  H12B18674   3.246   1.571   6.055  0.1636  0.7168  2.1237
  166SAPE   C1118675   3.049   1.544   6.156 -0.0857  0.0068  0.1832
  166SAPE  H11A18676   3.117   1.488   6.224  0.1790 -2.0159 -1.5936
  166SAPE  H11B18677   2.997   1.457   6.109  1.4780 -0.2384 -1.2148
  166SAPE     P18678   2.812   1.649   6.175  0.0115 -0.0047 -0.0525
  166SAPE   O1318679   2.744   1.538   6.244 -0.2121  1.0815  0.0979
  166SAPE   O1418680   2.765   1.782   6.211 -0.3511  0.2745  0.5469
  166SAPE   O1218681   2.961   1.637   6.212  0.4308 -0.3669 -0.8460
  166SAPE   O1118682   2.806   1.635   6.018 -0.2200 -0.7246  0.5682
  166SAPE    C118683   2.676   1.594   5.964  0.7529  0.4044 -0.0140
  166SAPE    HA18684   2.672   1.483   5.965  1.4369  0.3787  0.0184
  166SAPE    HB18685   2.590   1.627   6.026  0.5236  1.3238 -0.8069
  166SAPE    C218686   2.650   1.650   5.820 -0.4627  0.4147 -0.0684
  166SAPE    HS18687   2.712   1.590   5.749 -1.9652  0.3202 -1.3531
  166SAPE   O2118688   2.677   1.789   5.822 -0.1987 -0.3084  0.4705
  166SAPE   C2118689   2.800   1.827   5.779  0.9042  0.8298  0.2600
  166SAPE   O2218690   2.885   1.747   5.747  0.0321  0.1517 -0.1615
  166SAPE   C2218691   2.802   1.979   5.742  0.6068 -0.5350  0.1982
  166SAPE   H2R18692   2.742   2.036   5.817  0.7674 -0.6082  0.3840
  166SAPE   H2S18693   2.908   2.009   5.752  0.1177  0.5336  4.1910
  166SAPE    C318694   2.504   1.613   5.774  0.1765 -0.2629 -0.0673
  166SAPE    HX18695   2.444   1.701   5.807  1.1210  1.6784 -3.0918
  166SAPE    HY18696   2.486   1.513   5.820 -1.4425 -0.2247 -0.5539
  166SAPE   O3118697   2.512   1.588   5.631 -0.3289  0.2296 -0.0370
  166SAPE   C3118698   2.467   1.683   5.555  0.2804  0.2728 -0.5594
  166SAPE   O3218699   2.414   1.789   5.597 -0.0363 -0.2507  0.2131
  166SAPE   C3218700   2.463   1.633   5.409 -0.1483  0.0540  0.5583
  166SAPE   H2X18701   2.381   1.559   5.397  1.5670 -1.8068 -0.3880
  166SAPE   H2Y18702   2.559   1.579   5.394  0.5690  1.1799  0.9304
  166SAPE   C2318703   2.735   2.000   5.604  0.0670  0.0080 -0.1944
  166SAPE   H3R18704   2.634   1.956   5.594 -0.6157  1.1200  1.3430
  166SAPE   H3S18705   2.799   1.940   5.536  3.0678  0.1330  2.2868
  166SAPE   C2418706   2.762   2.140   5.557 -0.4622 -0.3690  0.3307
  166SAPE   H4R18707   2.714   2.140   5.456 -1.6024  1.8958  0.7894
  166SAPE   H4S18708   2.871   2.140   5.536 -0.4704  1.2296  0.1161
  166SAPE   C2518709   2.726   2.257   5.641  0.4948 -0.2172 -0.5295
  166SAPE   H5R18710   2.678   2.231   5.736  2.5152  1.4306  1.0451
  166SAPE   C2618711   2.729   2.390   5.613  0.1544  0.7221  0.1514
  166SAPE   H6R18712   2.718   2.467   5.692  1.5356 -0.7730  1.8806
  166SAPE   C2718713   2.766   2.449   5.477 -0.4428 -0.1025 -0.2329
  166SAPE   H7R18714   2.804   2.364   5.417  2.2055 -0.1203  1.3167
  166SAPE   H7S18715   2.863   2.502   5.489  1.0966 -3.0201  1.3925
  166SAPE   C2818716   2.666   2.518   5.389  0.2584  0.0127  0.2099
  166SAPE   H8R18717   2.586   2.567   5.447 -0.7539  0.6670 -1.6605
  166SAPE   C2918718   2.674   2.533   5.259  0.3530  0.1141  0.5210
  166SAPE   H9R18719   2.599   2.601   5.215 -0.8244 -1.8821 -0.7730
  166SAPE  C21018720   2.786   2.478   5.174  0.1160 -0.1273  0.4252
  166SAPE  H10R18721   2.828   2.380   5.204 -1.3666 -0.7720  0.4815
  166SAPE  H10S18722   2.871   2.550   5.175  0.1532 -0.0725 -1.8967
  166SAPE  C21118723   2.750   2.462   5.034 -0.4309  0.4623  0.3239
  166SAPE  H11R18724   2.752   2.359   4.994  3.4072  1.2591 -2.0410
  166SAPE  C21218725   2.731   2.551   4.937  0.2665  1.2318 -0.4087
  166SAPE  H12R18726   2.681   2.531   4.841  1.5881  0.0324 -0.8922
  166SAPE  C21318727   2.734   2.695   4.954  0.0660 -0.3214  0.5378
  166SAPE  H13R18728   2.818   2.748   4.903  0.9780  0.3827  2.6364
  166SAPE  H13S18729   2.761   2.713   5.061  0.6247 -1.5219  0.6178
  166SAPE  C21418730   2.601   2.761   4.913  0.9767  0.0555 -0.0569
  166SAPE  H14R18731   2.516   2.731   4.977 -0.8813  1.8655 -1.5285
  166SAPE  C21518732   2.570   2.846   4.812 -0.7200 -0.2667 -0.4511
  166SAPE  H15R18733   2.464   2.875   4.799 -1.6102 -2.7308  0.7771
  166SAPE  C21618734   2.664   2.904   4.704  0.4728  0.2509 -0.4660
  166SAPE  H16R18735   2.738   2.965   4.761 -1.7245  2.1395  0.4909
  166SAPE  H16S18736   2.617   2.989   4.650  0.5679  0.3812 -0.3452
  166SAPE  C21718737   2.718   2.793   4.609  0.1066 -0.2778 -0.4037
  166SAPE  H17R18738   2.635   2.759   4.544 -0.4762 -0.7264  0.5476
  166SAPE  H17S18739   2.758   2.706   4.665  1.6612  0.7690  0.1754
  166SAPE  C21818740   2.834   2.840   4.518 -0.0301 -0.4595  0.2860
  166SAPE  H18R18741   2.925   2.832   4.581  0.1871  0.2429  0.0712
  166SAPE  H18S18742   2.815   2.938   4.469 -0.7972 -2.2081 -3.1794
  166SAPE  C21918743   2.852   2.742   4.403 -0.3279  0.6029  0.7451
  166SAPE  H19R18744   2.760   2.718   4.345  0.3317  1.0987 -0.5495
  166SAPE  H19S18745   2.864   2.646   4.457  0.4064  0.3856  0.2036
  166SAPE  C22018746   2.966   2.754   4.305 -0.6378  0.1818  0.0839
  166SAPE  H20R18747   2.956   2.835   4.230 -0.7652 -0.4747 -0.6092
  166SAPE  H20S18748   2.972   2.666   4.238  0.4896  0.6950 -0.5246
  166SAPE  H20T18749   3.060   2.762   4.364 -1.0286  0.3553  0.6960
  166SAPE   C3318750   2.436   1.753   5.318 -0.7149  0.0590  0.0008
  166SAPE   H3X18751   2.337   1.796   5.342 -0.9810 -0.8735  0.6302
  166SAPE   H3Y18752   2.431   1.716   5.213  2.0200 -0.5171 -0.0125
  166SAPE   C3418753   2.553   1.854   5.330 -0.0887 -0.5199 -0.4491
  166SAPE   H4X18754   2.651   1.802   5.335 -0.4389 -1.0840  0.8652
  166SAPE   H4Y18755   2.552   1.908   5.427 -0.8867 -2.1288  0.4798
  166SAPE   C3518756   2.558   1.968   5.224 -0.0907  0.2850  1.1399
  166SAPE   H5X18757   2.563   1.926   5.121  0.9265  1.2689  0.7650
  166SAPE   H5Y18758   2.653   2.022   5.247 -0.6044  0.5624  2.6818
  166SAPE   C3618759   2.437   2.059   5.219  0.0844  0.1434  0.2927
  166SAPE   H6X18760   2.440   2.140   5.295 -1.4340  0.7066 -0.2003
  166SAPE   H6Y18761   2.343   2.004   5.241  0.1988 -0.1946 -0.0460
  166SAPE   C3718762   2.434   2.133   5.093  1.2295  1.0452  0.2436
  166SAPE   H7X18763   2.429   2.065   5.005  1.9816  1.2445  0.0404
  166SAPE   H7Y18764   2.531   2.182   5.071  1.6214  0.2026  0.0578
  166SAPE   C3818765   2.344   2.252   5.083 -0.0855 -1.1064 -0.7648
  166SAPE   H8X18766   2.362   2.326   5.165 -0.7134 -2.7335  0.9138
  166SAPE   H8Y18767   2.238   2.231   5.109 -0.4376  0.3469 -0.9379
  166SAPE   C3918768   2.354   2.328   4.942  0.0831 -0.6993  0.2066
  166SAPE   H9X18769   2.301   2.260   4.872 -0.0864 -2.3530  1.8552
  166SAPE   H9Y18770   2.456   2.357   4.910 -0.3226 -0.4410 -0.8938
  166SAPE  C31018771   2.285   2.464   4.948 -0.2601  0.0984 -0.4089
  166SAPE  H10X18772   2.347   2.535   5.007 -1.1227  0.9653 -0.5238
  166SAPE  H10Y18773   2.184   2.465   4.993 -1.6174 -0.3801 -3.2344
  166SAPE  C31118774   2.269   2.532   4.810 -0.0416 -0.3712  0.6913
  166SAPE  H11X18775   2.366   2.532   4.756 -1.4588  2.7669 -2.1976
  166SAPE  H11Y18776   2.253   2.641   4.826 -0.6816 -0.4445  0.5732
  166SAPE  C31218777   2.147   2.470   4.737  0.7983 -0.2558  0.7061
  166SAPE  H12X18778   2.066   2.514   4.799  1.3898  0.8049  0.7448
  166SAPE  H12Y18779   2.143   2.360   4.723  3.3578 -0.1710 -1.3326
  166SAPE  C31318780   2.126   2.526   4.597  0.0477  0.3051  0.0138
  166SAPE  H13X18781   2.024   2.504   4.559  0.2727  0.0361 -0.4520
  166SAPE  H13Y18782   2.198   2.483   4.524 -1.4841  0.0759 -1.4275
  166SAPE  C31418783   2.147   2.679   4.600  0.7474 -0.4212  0.1104
  166SAPE  H14X18784   2.252   2.699   4.628  1.5312 -3.5976 -0.2330
  166SAPE  H14Y18785   2.076   2.725   4.672 -0.8176  0.6261 -1.9936
  166SAPE  C31518786   2.122   2.741   4.457  0.5019  0.9689 -0.8342
  166SAPE  H15X18787   2.013   2.724   4.439  0.2710 -1.8043  2.3084
  166SAPE  H15Y18788   2.171   2.688   4.373 -0.2792 -0.5307 -0.3735
  166SAPE  C31618789   2.162   2.888   4.460  0.0226  0.1681  0.2239
  166SAPE  H16X18790   2.271   2.899   4.477  0.0946  0.4304 -0.3973
  166SAPE  H16Y18791   2.119   2.934   4.552  2.6082 -0.0476  1.6363
  166SAPE  C31718792   2.119   2.955   4.331 -0.1207  0.1198 -0.6305
  166SAPE  H17X18793   2.009   2.949   4.323  0.0539 -0.1414 -3.9192
  166SAPE  H17Y18794   2.161   2.900   4.245 -1.3022 -0.1127 -1.0637
  166SAPE  C31818795   2.173   3.100   4.305  0.1794  0.4073 -0.3000
  166SAPE  H18X18796   2.283   3.100   4.289 -0.2292  0.0399 -3.8863
  166SAPE  H18Y18797   2.153   3.165   4.393 -1.8025  1.4610 -1.4624
  166SAPE  H18Z18798   2.146   3.149   4.209 -1.5238  0.1156  0.0003
  167SAPE     N18799   6.953   3.911   6.225  0.0180  0.1375  0.5452
  167SAPE   HN118800   6.934   3.829   6.286 -1.0420  0.0617  0.1258
  167SAPE   HN218801   7.046   3.954   6.245  0.2375 -0.6676  1.3160
  167SAPE   HN318802   6.874   3.978   6.237 -1.0343 -0.3715 -2.6267
  167SAPE   C1218803   6.950   3.852   6.088  0.4322 -0.1728  0.3297
  167SAPE  H12A18804   7.053   3.825   6.057  0.7163  0.8155  0.3719
  167SAPE  H12B18805   6.908   3.937   6.030  0.4905 -0.7585 -0.5785
  167SAPE   C1118806   6.850   3.734   6.064  0.0673 -0.2418 -0.3469
  167SAPE  H11A18807   6.867   3.706   5.958  0.5626 -0.3641 -0.2345
  167SAPE  H11B18808   6.749   3.776   6.086  0.2537 -0.8656  2.0286
  167SAPE     P18809   6.800   3.505   6.193 -0.0554 -0.1428 -0.0655
  167SAPE   O1318810   6.893   3.405   6.239 -0.3253  0.1415 -0.4149
  167SAPE   O1418811   6.691   3.534   6.283 -1.0343 -0.2389 -0.7245
  167SAPE   O1218812   6.886   3.641   6.161 -0.3566  0.0306 -0.2390
  167SAPE   O1118813   6.745   3.467   6.050  0.1790  0.1875 -0.0570
  167SAPE    C118814   6.840   3.416   5.960 -0.1136 -0.5192 -0.1284
  167SAPE    HA18815   6.805   3.450   5.860 -1.7233  0.5585  0.7440
  167SAPE    HB18816   6.942   3.458   5.976  0.0653 -1.5346  1.5476
  167SAPE    C218817   6.839   3.259   5.970 -0.1046 -0.4480  0.5437
  167SAPE    HS18818   6.874   3.229   6.071 -0.9242 -0.1228  0.9347
  167SAPE   O2118819   6.923   3.207   5.867  0.0769 -0.0064  0.0979
  167SAPE   C2118820   7.057   3.226   5.883  0.5194 -0.0538 -0.3811
  167SAPE   O2218821   7.103   3.257   5.990  0.0570  0.1686  0.2702
  167SAPE   C2218822   7.135   3.226   5.754 -0.2248  0.3460 -0.0891
  167SAPE   H2R18823   7.243   3.231   5.781 -0.2459  0.2034  0.0229
  167SAPE   H2S18824   7.120   3.130   5.701 -1.8436  1.1637 -1.1771
  167SAPE    C318825   6.690   3.213   5.956 -0.0843 -0.5577 -0.2067
  167SAPE    HX18826   6.626   3.253   6.037 -3.0548 -0.3851 -2.4589
  167SAPE    HY18827   6.692   3.104   5.977 -0.7971 -0.1161  2.4808
  167SAPE   O3118828   6.627   3.253   5.838 -0.0035 -0.2464 -0.2518
  167SAPE   C3118829   6.639   3.185   5.734 -0.1441  0.2868  0.1425
  167SAPE   O3218830   6.704   3.079   5.727 -0.1912 -0.2385 -0.0871
  167SAPE   C3218831   6.554   3.238   5.617 -0.3268  0.3795  0.2564
  167SAPE   H2X18832   6.528   3.346   5.623 -0.6104  0.4513 -1.8137
  167SAPE   H2Y18833   6.462   3.178   5.626  0.5013 -1.0261 -0.3388
  167SAPE   C2318834   7.101   3.342   5.660  0.1825  0.3288 -0.0968
  167SAPE   H3R18835   7.100   3.441   5.711 -0.5434  0.4736 -0.3815
  167SAPE   H3S18836   7.002   3.330   5.611 -0.8973 -0.3329  2.1154
  167SAPE   C2418837   7.213   3.363   5.549 -0.1724  0.5249  0.5104
  167SAPE   H4R18838   7.219   3.271   5.486 -0.3038  1.5440 -1.0656
  167SAPE   H4S18839   7.315   3.367   5.594  0.9282 -0.0194 -1.7794
  167SAPE   C2518840   7.202   3.489   5.463 -0.3767  0.2103 -0.0963
  167SAPE   H5R18841   7.211   3.583   5.518  1.3564 -0.2332  0.4464
  167SAPE   C2618842   7.187   3.490   5.330  0.2974 -0.3407 -0.2422
  167SAPE   H6R18843   7.180   3.589   5.281 -0.1318 -1.0894 -1.7429
  167SAPE   C2718844   7.182   3.376   5.232  0.3672 -0.1571  0.1085
  167SAPE   H7R18845   7.231   3.288   5.280 -0.2383 -0.3701  0.3371
  167SAPE   H7S18846   7.240   3.414   5.145 -1.2708  3.6066  0.4782
  167SAPE   C2818847   7.039   3.333   5.200  0.1629 -0.0227 -0.4771
  167SAPE   H8R18848   6.985   3.286   5.284 -0.8005  0.2390 -0.9384
  167SAPE   C2918849   6.973   3.337   5.086  0.6334 -0.1662  0.6873
  167SAPE   H9R18850   6.869   3.301   5.083  0.9592 -1.0481 -0.3453
  167SAPE  C21018851   7.019   3.395   4.951 -0.2609 -0.1227 -0.0122
  167SAPE  H10R18852   7.124   3.361   4.939  0.3878  1.8490 -0.1795
  167SAPE  H10S18853   7.016   3.506   4.947 -2.3311 -0.1656 -1.1629
  167SAPE  C21118854   6.953   3.331   4.834 -0.6701  0.8840  0.2538
  167SAPE  H11R18855   6.960   3.221   4.824  0.6281  0.9821 -0.1574
  167SAPE  C21218856   6.891   3.387   4.736 -0.1092 -0.1731  0.3370
  167SAPE  H12R18857   6.839   3.321   4.666 -1.9325  2.3268 -0.8347
  167SAPE  C21318858   6.868   3.538   4.712  0.1268  1.0334 -0.3563
  167SAPE  H13R18859   6.837   3.590   4.805  0.2230  1.6372 -0.6608
  167SAPE  H13S18860   6.796   3.537   4.628 -0.9975 -1.8130  0.5222
  167SAPE  C21418861   6.992   3.604   4.652 -0.7542 -0.6999 -0.5358
  167SAPE  H14R18862   7.087   3.556   4.681  0.0373  1.0668 -0.1164
  167SAPE  C21518863   7.001   3.721   4.580  0.2431 -0.0993 -0.5453
  167SAPE  H15R18864   7.102   3.762   4.567  1.0230 -0.7436  2.7543
  167SAPE  C21618865   6.882   3.814   4.558 -0.2958  0.3993 -0.2088
  167SAPE  H16R18866   6.914   3.913   4.596  1.0226  0.0621 -0.3872
  167SAPE  H16S18867   6.796   3.775   4.617 -0.5389 -0.1813 -0.9290
  167SAPE  C21718868   6.862   3.816   4.406  0.2746  0.1557 -0.5128
  167SAPE  H17R18869   6.829   3.717   4.366  0.5042 -0.8140  1.5830
  167SAPE  H17S18870   6.955   3.845   4.353 -0.2096  0.5804 -1.1490
  167SAPE  C21818871   6.738   3.907   4.386 -0.3305  0.4537  0.8539
  167SAPE  H18R18872   6.760   4.005   4.433 -0.7598  0.4412  1.0960
  167SAPE  H18S18873   6.648   3.864   4.436 -1.0697 -0.7298 -1.3901
  167SAPE  C21918874   6.710   3.919   4.236 -0.2360  0.3943  0.3409
  167SAPE  H19R18875   6.685   3.825   4.183  0.1454  0.0346  0.7848
  167SAPE  H19S18876   6.800   3.964   4.189 -0.0691 -0.5125 -0.2171
  167SAPE  C22018877   6.591   4.006   4.210 -0.4029 -0.4773 -0.3063
  167SAPE  H20R18878   6.586   4.015   4.100  2.8565  0.3045 -0.4943
  167SAPE  H20S18879   6.603   4.110   4.248  0.8995 -0.8056  0.2409
  167SAPE  H20T18880   6.496   3.963   4.249 -0.5059  1.1041  1.3124
  167SAPE   C3318881   6.637   3.212   5.487 -0.1736 -0.6328 -0.5438
  167SAPE   H3X18882   6.642   3.102   5.479  2.1057 -0.4700 -2.0135
  167SAPE   H3Y18883   6.741   3.250   5.480  0.5412 -2.6165 -1.5173
  167SAPE   C3418884   6.561   3.264   5.364 -0.5335  1.7353 -0.2590
  167SAPE   H4X18885   6.575   3.373   5.344  0.8850  1.6289  0.0907
  167SAPE   H4Y18886   6.456   3.243   5.394 -0.8188  3.1521 -0.1585
  167SAPE   C3518887   6.619   3.200   5.237  0.1218  0.0909  0.3457
  167SAPE   H5X18888   6.636   3.090   5.248 -0.1815 -0.2839 -2.2125
  167SAPE   H5Y18889   6.721   3.238   5.215 -0.1669  1.5243  1.3648
  167SAPE   C3618890   6.538   3.227   5.113 -0.0765  0.5685  0.0603
  167SAPE   H6X18891   6.504   3.332   5.106  1.0328  1.0849  1.9087
  167SAPE   H6Y18892   6.447   3.164   5.124  1.1285 -0.7954  3.4096
  167SAPE   C3718893   6.612   3.199   4.986 -0.1629  0.8079 -0.3559
  167SAPE   H7X18894   6.673   3.112   5.019 -0.2837  0.3576 -1.2877
  167SAPE   H7Y18895   6.675   3.285   4.954  1.1881  0.1904  0.5584
  167SAPE   C3818896   6.530   3.152   4.871 -0.6102 -0.8763 -0.4045
  167SAPE   H8X18897   6.456   3.227   4.837 -0.8709  0.0158  1.9651
  167SAPE   H8Y18898   6.463   3.070   4.904 -1.1842 -0.0959  0.4245
  167SAPE   C3918899   6.623   3.098   4.761 -0.3118  1.1481  0.0588
  167SAPE   H9X18900   6.715   3.058   4.808 -0.1120 -0.8334 -1.8543
  167SAPE   H9Y18901   6.649   3.178   4.689 -1.5162 -0.8720 -2.8718
  167SAPE  C31018902   6.552   2.992   4.680  0.3164  0.0551 -0.3606
  167SAPE  H10X18903   6.456   3.039   4.651 -0.1580 -1.1454 -0.8104
  167SAPE  H10Y18904   6.544   2.902   4.744  1.3316  0.3358  0.1823
  167SAPE  C31118905   6.631   2.947   4.548  0.2896  0.5798 -0.0436
  167SAPE  H11X18906   6.738   2.940   4.578 -0.0902 -0.2921  1.2195
  167SAPE  H11Y18907   6.628   3.031   4.476  0.3205  1.2845  0.7637
  167SAPE  C31218908   6.575   2.825   4.473  0.1013 -0.2115  1.3694
  167SAPE  H12X18909   6.537   2.743   4.537  1.0347 -2.5244 -0.8647
  167SAPE  H12Y18910   6.655   2.779   4.411 -0.9201 -1.2146  0.7320
  167SAPE  C31318911   6.455   2.863   4.376  0.0372  0.8600  0.1551
  167SAPE  H13X18912   6.485   2.945   4.307  1.3001  1.5457  1.4928
  167SAPE  H13Y18913   6.384   2.905   4.451  1.7526  0.6262  1.9662
  167SAPE  C31418914   6.411   2.738   4.307  0.0362 -0.0122 -0.6950
  167SAPE  H14X18915   6.365   2.669   4.381  1.1761  0.0101  0.0526
  167SAPE  H14Y18916   6.485   2.670   4.260 -0.5260  0.0644 -1.7285
  167SAPE  C31518917   6.307   2.756   4.192 -0.0109  0.6542 -0.0802
  167SAPE  H15X18918   6.206   2.779   4.232  0.5345  1.8885  0.6471
  167SAPE  H15Y18919   6.313   2.661   4.135 -0.1982  1.1119 -0.8708
  167SAPE  C31618920   6.340   2.868   4.091 -0.2277  0.5272 -0.5411
  167SAPE  H16X18921   6.355   2.967   4.140 -0.3714  1.7424 -2.8299
  167SAPE  H16Y18922   6.256   2.874   4.020 -0.8748  0.7926  0.2300
  167SAPE  C31718923   6.460   2.848   4.006  0.7156 -0.5334 -0.0522
  167SAPE  H17X18924   6.452   2.763   3.936 -0.5293 -1.0082  0.6412
  167SAPE  H17Y18925   6.553   2.841   4.066  0.8159  0.2197 -0.1058
  167SAPE  C31818926   6.489   2.974   3.915 -0.2162  0.9319 -0.4838
  167SAPE  H18X18927   6.579   2.950   3.854 -0.5041 -1.1428 -0.1936
  167SAPE  H18Y18928   6.521   3.050   3.989  0.4323 -1.1683  1.5271
  167SAPE  H18Z18929   6.408   3.009   3.848  0.7227  0.0345 -2.1707
  168SAPE     N18930   0.063   5.574   6.486 -0.2906  0.0323  0.2234
  168SAPE   HN118931  -0.039   5.587   6.468  0.5540  2.5064 -3.8518
  168SAPE   HN218932   0.078   5.474   6.510  0.2980 -0.7943 -3.1365
  168SAPE   HN318933   0.090   5.640   6.561 -0.2435 -2.0352  2.1468
  168SAPE   C1218934   0.135   5.614   6.358  0.0117 -0.0254  0.4414
  168SAPE  H12A18935   0.090   5.559   6.272 -0.6268  4.2678 -2.2522
  168SAPE  H12B18936   0.241   5.594   6.386 -0.4322 -0.2234  2.1007
  168SAPE   C1118937   0.108   5.764   6.342 -0.0992 -0.2894 -0.2600
  168SAPE  H11A18938   0.003   5.795   6.320 -0.4011  0.1115  1.6219
  168SAPE  H11B18939   0.169   5.791   6.253  0.3046  0.5931  0.2844
  168SAPE     P18940   0.234   5.971   6.450  0.3463  0.4287 -0.1742
  168SAPE   O1318941   0.201   6.040   6.579 -0.2016  0.4841 -0.5251
  168SAPE   O1418942   0.373   5.950   6.411 -0.0636 -0.6118 -0.0612
  168SAPE   O1218943   0.152   5.838   6.457 -0.1015 -0.0521 -0.5602
  168SAPE   O1118944   0.167   6.050   6.331 -0.5721  0.1884  0.0623
  168SAPE    C118945   0.255   6.147   6.263  1.0215  0.3986  0.0734
  168SAPE    HA18946   0.235   6.241   6.319 -2.5807 -0.2056  0.0491
  168SAPE    HB18947   0.361   6.115   6.257  1.2381  1.2139 -0.7372
  168SAPE    C218948   0.215   6.164   6.116  0.1420 -0.3503  0.2573
  168SAPE    HS18949   0.297   6.220   6.065  1.1238 -2.2881 -0.3682
  168SAPE   O2118950   0.086   6.228   6.110 -0.2373 -0.2629  0.0754
  168SAPE   C2118951   0.086   6.359   6.118  0.4059 -0.9889  0.2835
  168SAPE   O2218952   0.178   6.432   6.133 -0.6051 -0.0736  0.3056
  168SAPE   C2218953  -0.051   6.412   6.094 -0.6391 -0.6961  0.2520
  168SAPE   H2R18954  -0.074   6.411   5.985 -0.6328  0.3813  0.2331
  168SAPE   H2S18955  -0.121   6.337   6.136 -3.9442  3.1726  2.3241
  168SAPE    C318956   0.201   6.035   6.040 -0.1374  0.2431  0.2890
  168SAPE    HX18957   0.105   5.997   6.079  0.0365 -0.2260  0.2602
  168SAPE    HY18958   0.284   5.967   6.067  1.1114  1.1908 -0.9892
  168SAPE   O3118959   0.194   6.063   5.896  0.5229 -0.2534 -0.3308
  168SAPE   C3118960   0.286   6.000   5.825  0.0502 -0.1135 -0.4263
  168SAPE   O3218961   0.384   5.941   5.869  0.2252 -0.0650  0.4458
  168SAPE   C3218962   0.243   6.013   5.683  0.5262 -0.5236 -0.2598
  168SAPE   H2X18963   0.217   6.118   5.655  0.5905  0.0210  1.6146
  168SAPE   H2Y18964   0.145   5.960   5.674 -0.0573  0.3183  0.9450
  168SAPE   C2318965  -0.083   6.546   6.157  0.6116  0.2958  0.0069
  168SAPE   H3R18966  -0.059   6.554   6.265 -1.0865  0.0906  0.4277
  168SAPE   H3S18967  -0.192   6.558   6.139  0.5553  2.6173  1.4919
  168SAPE   C2418968  -0.028   6.673   6.082 -0.3990 -0.3811  0.0826
  168SAPE   H4R18969  -0.075   6.651   5.984 -1.3590 -0.3677  0.5266
  168SAPE   H4S18970   0.082   6.666   6.073 -0.5370 -0.5595 -1.8442
  168SAPE   C2518971  -0.064   6.802   6.148  0.5447 -0.7198  0.0980
  168SAPE   H5R18972  -0.065   6.807   6.258 -0.6093  0.6192  0.0581
  168SAPE   C2618973  -0.128   6.903   6.082 -0.1109  0.1366  0.1546
  168SAPE   H6R18974  -0.165   6.990   6.137  1.5926  0.8224  0.2845
  168SAPE   C2718975  -0.159   6.915   5.932 -0.0543 -0.5190  0.2154
  168SAPE   H7R18976  -0.153   6.824   5.868 -0.1531  0.6207 -1.4800
  168SAPE   H7S18977  -0.077   6.981   5.896  2.4284 -1.2977  3.8521
  168SAPE   C2818978  -0.293   6.983   5.899  0.4415  0.3374 -0.0146
  168SAPE   H8R18979  -0.304   7.079   5.951  0.0151 -0.2249  0.9738
  168SAPE   C2918980  -0.396   6.934   5.822  0.2065  0.1705  0.1127
  168SAPE   H9R18981  -0.493   6.982   5.842  0.9926  1.7481  0.3082
  168SAPE  C21018982  -0.391   6.792   5.755 -0.5394  0.4077 -0.6278
  168SAPE  H10R18983  -0.339   6.710   5.810 -0.8248 -0.8679 -2.1994
  168SAPE  H10S18984  -0.324   6.805   5.667  0.7580  2.3138  0.5551
  168SAPE  C21118985  -0.527   6.752   5.707 -0.3773  0.5758  0.4578
  168SAPE  H11R18986  -0.596   6.838   5.707 -0.0396  0.8621  1.8645
  168SAPE  C21218987  -0.561   6.631   5.654 -0.5597 -0.1839  0.5150
  168SAPE  H12R18988  -0.665   6.598   5.648  0.1935 -2.5867 -3.7484
  168SAPE  C21318989  -0.468   6.516   5.628  0.0673  1.2605  0.9436
  168SAPE  H13R18990  -0.368   6.544   5.589 -0.0580 -0.3654 -0.6505
  168SAPE  H13S18991  -0.495   6.448   5.544 -1.7664 -0.0347  2.4694
  168SAPE  C21418992  -0.457   6.432   5.759 -0.2667 -0.3053  0.2961
  168SAPE  H14R18993  -0.428   6.492   5.847 -1.1722  0.5327  0.0462
  168SAPE  C21518994  -0.488   6.299   5.777 -0.1856  0.1636  0.3018
  168SAPE  H15R18995  -0.475   6.254   5.877  0.2349  2.1027  1.1691
  168SAPE  C21618996  -0.554   6.209   5.676 -0.1870  0.5196  0.2106
  168SAPE  H16R18997  -0.493   6.116   5.667  0.3983  0.5937  2.6811
  168SAPE  H16S18998  -0.557   6.254   5.574 -2.9746 -1.2976 -0.6234
  168SAPE  C21718999  -0.706   6.180   5.696 -0.2405 -0.3004  0.3211
  168SAPE  H17R19000  -0.761   6.155   5.603 -0.9056  1.7004  0.1277
  168SAPE  H17S19001  -0.748   6.279   5.723 -0.4142  0.2804 -1.8878
  168SAPE  C21819002  -0.727   6.063   5.798 -0.4211  0.9244  0.2166
  168SAPE  H18R19003  -0.832   6.086   5.826  0.2878  1.9656  2.1996
  168SAPE  H18S19004  -0.660   6.072   5.885  0.1087 -3.7018  0.5355
  168SAPE  C21919005  -0.706   5.921   5.734 -0.1227 -0.6278  0.4132
  168SAPE  H19R19006  -0.616   5.926   5.670 -1.9564  0.5603 -2.2714
  168SAPE  H19S19007  -0.790   5.893   5.666 -0.2151 -0.9071  0.6394
  168SAPE  C22019008  -0.683   5.812   5.835  0.3116 -0.1004 -0.2369
  168SAPE  H20R19009  -0.592   5.842   5.891  0.3990  2.5109 -1.6240
  168SAPE  H20S19010  -0.678   5.713   5.784 -1.8909 -0.1303 -0.5004
  168SAPE  H20T19011  -0.763   5.812   5.912  0.6398 -0.1006  0.1078
  168SAPE   C3319012   0.342   5.945   5.585  0.5908 -0.3880 -0.3587
  168SAPE   H3X19013   0.355   5.841   5.622  1.3006 -0.5605 -1.0741
  168SAPE   H3Y19014   0.444   5.987   5.595  1.4149 -2.6975  2.8443
  168SAPE   C3419015   0.292   5.944   5.440 -0.6351  0.6973  0.2982
  168SAPE   H4X19016   0.203   5.878   5.441  1.5581 -2.4479 -0.1765
  168SAPE   H4Y19017   0.358   5.897   5.365 -1.0271  1.6234 -0.6691
  168SAPE   C3519018   0.250   6.085   5.383  0.1571 -0.0837  0.1959
  168SAPE   H5X19019   0.337   6.150   5.359  0.8634 -1.1535 -0.2066
  168SAPE   H5Y19020   0.194   6.144   5.459 -0.0129  0.8432 -0.6271
  168SAPE   C3619021   0.154   6.081   5.262  0.6136 -0.5802  0.2256
  168SAPE   H6X19022   0.086   5.994   5.265 -0.2034  0.0727  2.5227
  168SAPE   H6Y19023   0.224   6.064   5.176  0.6816  1.0043 -0.0649
  168SAPE   C3719024   0.106   6.223   5.226  1.0292  0.0835  0.1921
  168SAPE   H7X19025   0.168   6.297   5.280  1.5294 -1.0651  1.2465
  168SAPE   H7Y19026   0.003   6.234   5.267  0.7336  3.4895 -1.1175
  168SAPE   C3819027   0.087   6.232   5.071 -0.0906 -0.3470 -0.2250
  168SAPE   H8X19028   0.015   6.154   5.036 -2.4836  1.3419  0.7060
  168SAPE   H8Y19029   0.184   6.231   5.015  0.1899 -0.8547  0.2585
  168SAPE   C3919030   0.020   6.361   5.036  0.4937  0.6458  0.2218
  168SAPE   H9X19031   0.087   6.449   5.048  0.6521  0.6157 -0.4173
  168SAPE   H9Y19032  -0.066   6.382   5.104  0.2144  0.9612 -0.2264
  168SAPE  C31019033  -0.028   6.359   4.887 -0.0993 -0.2740  0.1372
  168SAPE  H10X19034  -0.091   6.269   4.872 -0.6709  0.2724 -0.8682
  168SAPE  H10Y19035   0.069   6.350   4.832 -0.3206  2.9444 -1.0071
  168SAPE  C31119036  -0.095   6.489   4.852  0.2747 -0.6945 -0.7055
  168SAPE  H11X19037  -0.033   6.581   4.861 -0.0310 -0.5881  0.5627
  168SAPE  H11Y19038  -0.175   6.497   4.929  0.8515 -1.3719 -0.0114
  168SAPE  C31219039  -0.149   6.481   4.708  0.0460  0.0798 -0.7712
  168SAPE  H12X19040  -0.226   6.559   4.693  0.5025  1.2255  2.2033
  168SAPE  H12Y19041  -0.198   6.382   4.693 -0.8445  0.3259  0.4461
  168SAPE  C31319042  -0.042   6.500   4.600 -0.2173  0.7045 -0.5393
  168SAPE  H13X19043   0.039   6.431   4.632 -1.7240 -1.7015 -1.6161
  168SAPE  H13Y19044  -0.003   6.603   4.591  0.9717  0.3432  0.2471
  168SAPE  C31419045  -0.087   6.468   4.457  0.0572 -0.2726 -0.5353
  168SAPE  H14X19046  -0.133   6.367   4.465 -1.8238  0.6365  1.0054
  168SAPE  H14Y19047   0.008   6.459   4.401  0.7660 -0.8041  0.6906
  168SAPE  C31519048  -0.182   6.568   4.401 -0.4186  0.1029 -0.0200
  168SAPE  H15X19049  -0.166   6.675   4.427  2.4897  0.0350 -1.2042
  168SAPE  H15Y19050  -0.282   6.540   4.441 -0.8006  0.7642 -0.5000
  168SAPE  C31619051  -0.194   6.566   4.249  0.2723  0.5513  0.4359
  168SAPE  H16X19052  -0.256   6.651   4.215  1.7352  1.3579 -0.3541
  168SAPE  H16Y19053  -0.235   6.470   4.211  0.6303  0.8346 -0.7297
  168SAPE  C31719054  -0.062   6.595   4.176 -0.0957  0.8627  0.3089
  168SAPE  H17X19055  -0.078   6.566   4.070  1.9620  1.9018 -0.3441
  168SAPE  H17Y19056   0.022   6.534   4.215 -1.5569 -1.6979 -0.3759
  168SAPE  C31819057  -0.027   6.740   4.187  0.3083 -0.0873  0.2283
  168SAPE  H18X19058   0.063   6.769   4.129  0.5103  0.0975  0.6257
  168SAPE  H18Y19059   0.006   6.772   4.288  3.8839  1.7134 -1.3195
  168SAPE  H18Z19060  -0.117   6.792   4.147  1.1895  0.2995 -1.3601
  169SAPE     N19061   5.446   0.512   6.443 -0.1509 -0.2147  0.4155
  169SAPE   HN119062   5.420   0.499   6.543 -2.1154 -1.7305 -0.2178
  169SAPE   HN219063   5.476   0.611   6.432 -0.9819  0.0483  0.3915
  169SAPE   HN319064   5.361   0.495   6.385 -0.8477  0.8910  1.0768
  169SAPE   C1219065   5.566   0.425   6.401  0.2146  0.4039 -0.6561
  169SAPE  H12A19066   5.618   0.392   6.493 -1.3242 -0.7251 -0.1404
  169SAPE  H12B19067   5.639   0.489   6.348  0.0508 -1.3381 -3.1278
  169SAPE   C1119068   5.521   0.309   6.310  0.5519 -0.5277  0.6285
  169SAPE  H11A19069   5.608   0.253   6.270 -0.1419 -0.4934 -0.9907
  169SAPE  H11B19070   5.466   0.341   6.219  0.7260 -1.7265  0.0728
  169SAPE     P19071   5.419   0.066   6.345 -0.0239  0.2296 -0.8042
  169SAPE   O1319072   5.540  -0.019   6.349  0.1436 -0.0998  0.3346
  169SAPE   O1419073   5.306   0.031   6.442 -1.2665 -0.0915 -0.6451
  169SAPE   O1219074   5.453   0.210   6.396 -0.9721 -0.0089 -1.0228
  169SAPE   O1119075   5.371   0.092   6.205 -0.7347  0.2089  0.0293
  169SAPE    C119076   5.243   0.052   6.153  0.2956  0.8820  0.0158
  169SAPE    HA19077   5.197  -0.025   6.220  1.5291 -0.0668 -0.1861
  169SAPE    HB19078   5.175   0.140   6.158 -2.0955 -0.7215 -1.8105
  169SAPE    C219079   5.251   0.002   6.010 -0.2367  0.0711 -0.3698
  169SAPE    HS19080   5.158  -0.047   5.974 -1.0096  0.0304  1.5652
  169SAPE   O2119081   5.363  -0.095   5.996  0.3662  0.6890 -0.4336
  169SAPE   C2119082   5.342  -0.213   6.049 -0.5653  0.4226 -0.4952
  169SAPE   O2219083   5.254  -0.250   6.125 -0.4814 -0.0998  0.4399
  169SAPE   C2219084   5.463  -0.305   6.019 -0.1696  0.3843  0.4065
  169SAPE   H2R19085   5.536  -0.313   6.102  0.5678  1.0716 -0.1653
  169SAPE   H2S19086   5.401  -0.393   5.989 -1.6753  1.3563  0.5541
  169SAPE    C319087   5.283   0.121   5.919 -0.6829 -0.1901  0.4426
  169SAPE    HX19088   5.374   0.171   5.957 -0.6531 -0.0090  0.1361
  169SAPE    HY19089   5.198   0.192   5.909  0.0967  0.6090 -0.7153
  169SAPE   O3119090   5.308   0.068   5.789 -0.2157  0.2435  0.0261
  169SAPE   C3119091   5.382   0.143   5.707  0.8018 -0.2651 -0.6366
  169SAPE   O3219092   5.451   0.238   5.748 -0.1520 -0.6533  0.7369
  169SAPE   C3219093   5.378   0.088   5.561  0.4445 -0.2514 -0.0605
  169SAPE   H2X19094   5.293   0.016   5.558  0.3822 -0.3932  2.4878
  169SAPE   H2Y19095   5.468   0.026   5.546  1.7529  1.6812 -0.5966
  169SAPE   C2319096   5.539  -0.250   5.894  0.5748 -0.0515  0.5375
  169SAPE   H3R19097   5.598  -0.158   5.920 -0.7586  0.6914  1.0125
  169SAPE   H3S19098   5.468  -0.213   5.818  1.1117 -0.4201 -0.1541
  169SAPE   C2419099   5.647  -0.341   5.833  0.3418 -0.7593  0.4324
  169SAPE   H4R19100   5.720  -0.372   5.910 -1.1868 -1.1132  1.7786
  169SAPE   H4S19101   5.704  -0.282   5.758  0.0641 -0.2994  0.5799
  169SAPE   C2519102   5.592  -0.472   5.770 -0.3942  0.6344  0.0066
  169SAPE   H5R19103   5.575  -0.551   5.844 -1.5297  0.8513 -0.0010
  169SAPE   C2619104   5.540  -0.489   5.650  0.7775 -0.6556 -0.2375
  169SAPE   H6R19105   5.509  -0.592   5.625 -1.5503 -0.5396  1.7934
  169SAPE   C2719106   5.527  -0.386   5.538 -0.2056 -0.1106 -0.9504
  169SAPE   H7R19107   5.590  -0.299   5.569 -2.5083  1.0741  0.6977
  169SAPE   H7S19108   5.426  -0.340   5.535 -0.3611 -0.4580 -1.0054
  169SAPE   C2819109   5.559  -0.437   5.400  0.1094  0.4909 -0.4339
  169SAPE   H8R19110   5.606  -0.536   5.393 -0.8263  0.0454 -0.5154
  169SAPE   C2919111   5.521  -0.391   5.288  0.9067 -0.1673  0.2051
  169SAPE   H9R19112   5.556  -0.441   5.197 -0.0054  1.0464 -0.8507
  169SAPE  C21019113   5.443  -0.257   5.284  0.0953  0.7546  0.6603
  169SAPE  H10R19114   5.465  -0.212   5.185  1.8551  0.0318  0.6869
  169SAPE  H10S19115   5.493  -0.183   5.349  3.4497 -1.3276  0.6449
  169SAPE  C21119116   5.288  -0.247   5.310  0.6156  0.2542 -0.7103
  169SAPE  H11R19117   5.255  -0.270   5.413 -0.4080 -2.7751 -1.6181
  169SAPE  C21219118   5.193  -0.206   5.221 -0.3239 -0.2961  0.3030
  169SAPE  H12R19119   5.085  -0.214   5.241 -0.5375  1.1100 -0.2224
  169SAPE  C21319120   5.228  -0.165   5.079  0.8539  1.0768 -0.4265
  169SAPE  H13R19121   5.328  -0.120   5.095  0.3435  1.3019  2.7244
  169SAPE  H13S19122   5.161  -0.079   5.056 -0.3210  0.6010  1.0724
  169SAPE  C21419123   5.231  -0.281   4.980 -0.3904 -0.9422  0.5145
  169SAPE  H14R19124   5.268  -0.377   5.019  0.1943 -0.3281  1.5109
  169SAPE  C21519125   5.178  -0.274   4.854  0.5291  0.5445  0.6209
  169SAPE  H15R19126   5.174  -0.364   4.791 -0.1184 -0.6448  2.2917
  169SAPE  C21619127   5.106  -0.152   4.804  0.1365  0.2403 -0.4446
  169SAPE  H16R19128   5.167  -0.063   4.833  0.1561  0.4851 -1.2151
  169SAPE  H16S19129   5.001  -0.156   4.841 -0.2991 -0.3042 -1.6714
  169SAPE  C21719130   5.079  -0.161   4.647 -0.3209 -0.1789 -0.2048
  169SAPE  H17R19131   5.006  -0.242   4.624  0.6195 -0.4688 -2.5061
  169SAPE  H17S19132   5.175  -0.193   4.602 -0.3985 -0.6336 -0.0569
  169SAPE  C21819133   5.024  -0.044   4.572 -0.1316 -0.0992 -0.9295
  169SAPE  H18R19134   5.094   0.039   4.595 -0.0919  0.0373 -1.5279
  169SAPE  H18S19135   4.926  -0.019   4.619  0.3869  0.5144 -0.1564
  169SAPE  C21919136   5.002  -0.070   4.418  0.1638 -0.3711  0.0730
  169SAPE  H19R19137   5.003   0.031   4.374  0.7847  0.6181  2.2210
  169SAPE  H19S19138   4.902  -0.117   4.409 -0.6046  1.2445 -0.1219
  169SAPE  C22019139   5.108  -0.168   4.357 -0.6966 -0.7797 -0.4734
  169SAPE  H20R19140   5.099  -0.190   4.249  0.8011 -1.4890 -0.4875
  169SAPE  H20S19141   5.095  -0.269   4.402  0.5239 -1.2440 -1.1169
  169SAPE  H20T19142   5.210  -0.138   4.388 -0.0267 -2.0197 -1.3781
  169SAPE   C3319143   5.377   0.206   5.466 -0.0956  0.9480 -0.1677
  169SAPE   H3X19144   5.465   0.273   5.481  0.2184  0.2978  0.9408
  169SAPE   H3Y19145   5.291   0.274   5.485 -1.7292  0.6594 -5.0506
  169SAPE   C3419146   5.368   0.165   5.319  0.6167 -0.1093 -0.9268
  169SAPE   H4X19147   5.318   0.256   5.279 -0.6664 -0.0756  0.6409
  169SAPE   H4Y19148   5.305   0.074   5.310 -0.0664 -0.0174  1.9677
  169SAPE   C3519149   5.507   0.146   5.257 -0.3791 -0.5163 -0.0631
  169SAPE   H5X19150   5.539   0.060   5.319 -1.6609 -0.0537  1.3201
  169SAPE   H5Y19151   5.566   0.238   5.278 -0.2575 -1.0500  2.2475
  169SAPE   C3619152   5.521   0.117   5.106  0.4839  0.5196  0.1405
  169SAPE   H6X19153   5.431   0.057   5.081  0.9419 -0.6018  1.1220
  169SAPE   H6Y19154   5.614   0.061   5.083  0.5995  1.0582 -0.8061
  169SAPE   C3719155   5.512   0.243   5.021 -0.1916 -0.1336  0.0192
  169SAPE   H7X19156   5.584   0.320   5.056 -1.5534  0.7923  0.8927
  169SAPE   H7Y19157   5.416   0.296   5.038 -0.2474 -0.7036  1.7126
  169SAPE   C3819158   5.533   0.209   4.868 -0.9269 -0.7218 -0.2183
  169SAPE   H8X19159   5.605   0.126   4.847 -0.5908 -0.2974 -0.7816
  169SAPE   H8Y19160   5.584   0.292   4.814 -1.0234 -1.6919 -1.8918
  169SAPE   C3919161   5.399   0.177   4.800  0.1931 -0.3329 -0.3807
  169SAPE   H9X19162   5.329   0.257   4.833  0.6776  0.6730 -1.7119
  169SAPE   H9Y19163   5.360   0.078   4.831 -0.3933  0.3102  1.0112
  169SAPE  C31019164   5.405   0.182   4.644 -0.0207 -0.2031  0.6485
  169SAPE  H10X19165   5.452   0.281   4.620  0.2561 -0.5899 -0.4814
  169SAPE  H10Y19166   5.305   0.187   4.596 -0.3483  1.1747  1.4403
  169SAPE  C31119167   5.503   0.084   4.574  0.1050  0.1784 -0.3476
  169SAPE  H11X19168   5.444  -0.010   4.567  0.2689  0.1099 -0.8633
  169SAPE  H11Y19169   5.594   0.060   4.632 -0.5440  1.1927  1.1488
  169SAPE  C31219170   5.539   0.131   4.436 -0.0905 -0.3169  0.6213
  169SAPE  H12X19171   5.444   0.165   4.389 -0.2624  1.6898  2.2784
  169SAPE  H12Y19172   5.575   0.042   4.380 -0.0892 -0.2772  0.5587
  169SAPE  C31319173   5.648   0.240   4.421  0.2564  0.3095 -0.1756
  169SAPE  H13X19174   5.748   0.195   4.434  0.8980  1.1456 -1.9013
  169SAPE  H13Y19175   5.625   0.306   4.506  0.9477  0.1435  0.1475
  169SAPE  C31419176   5.651   0.310   4.288  0.1000  0.1259  0.6921
  169SAPE  H14X19177   5.549   0.349   4.266 -0.0608 -0.2581  0.7406
  169SAPE  H14Y19178   5.684   0.230   4.219 -0.8489 -0.1578  0.5601
  169SAPE  C31519179   5.755   0.426   4.298 -0.4368  0.0253  0.8167
  169SAPE  H15X19180   5.846   0.383   4.346  0.3029  0.8675  0.2070
  169SAPE  H15Y19181   5.724   0.501   4.374 -1.4279 -1.1290  1.5789
  169SAPE  C31619182   5.799   0.502   4.166  0.6850 -0.2471 -0.3019
  169SAPE  H16X19183   5.840   0.423   4.098 -0.4202  0.0121 -1.3023
  169SAPE  H16Y19184   5.887   0.567   4.185  0.7270  0.0466 -1.4190
  169SAPE  C31719185   5.683   0.567   4.090  0.3256 -0.1821 -0.3591
  169SAPE  H17X19186   5.619   0.620   4.165  0.4019 -1.3498  0.5588
  169SAPE  H17Y19187   5.622   0.487   4.043 -0.5759 -0.1676  0.7419
  169SAPE  C31819188   5.716   0.671   3.982 -0.3310 -0.0007 -0.3043
  169SAPE  H18X19189   5.786   0.749   4.018 -1.2309  0.2817  0.9082
  169SAPE  H18Y19190   5.621   0.724   3.958 -2.0340 -3.0074 -0.7948
  169SAPE  H18Z19191   5.743   0.617   3.888 -0.5069 -2.5269  1.0148
  170SAPE     N19192   0.394   3.655   6.165  0.1121  0.6186  0.6170
  170SAPE   HN119193   0.451   3.581   6.120  2.6766  2.1797  1.0847
  170SAPE   HN219194   0.313   3.611   6.212 -0.4039 -0.3694 -1.1136
  170SAPE   HN319195   0.358   3.716   6.088 -2.6772  0.1498  1.4402
  170SAPE   C1219196   0.478   3.739   6.262  0.4114 -0.0373  0.2110
  170SAPE  H12A19197   0.550   3.792   6.197 -0.4915 -0.9584 -1.5973
  170SAPE  H12B19198   0.533   3.671   6.330  0.6983  0.0074  0.0211
  170SAPE   C1119199   0.386   3.841   6.339 -0.4872 -0.3882 -0.8054
  170SAPE  H11A19200   0.454   3.890   6.412  0.4107 -2.7064 -0.0141
  170SAPE  H11B19201   0.296   3.807   6.393 -0.4446 -0.0229 -0.5007
  170SAPE     P19202   0.283   4.074   6.289  0.0061  0.1730 -0.6828
  170SAPE   O1319203   0.149   4.087   6.229  0.0542 -0.7106  0.4660
  170SAPE   O1419204   0.286   4.080   6.436  0.3820 -0.4450 -0.3316
  170SAPE   O1219205   0.338   3.932   6.244 -0.1767 -0.1196  0.3875
  170SAPE   O1119206   0.387   4.172   6.222  0.8067  0.3364  0.2483
  170SAPE    C119207   0.477   4.144   6.114 -0.5799  0.1193 -0.2884
  170SAPE    HA19208   0.579   4.181   6.137  0.4615 -2.0858 -1.0496
  170SAPE    HB19209   0.486   4.034   6.095 -1.0188  0.2063 -1.0488
  170SAPE    C219210   0.443   4.206   5.977 -0.0871 -0.2652 -0.9937
  170SAPE    HS19211   0.439   4.316   5.990 -0.4555  0.3404 -4.9787
  170SAPE   O2119212   0.321   4.144   5.931 -0.4786 -0.8236 -0.4368
  170SAPE   C2119213   0.220   4.227   5.922  0.6882 -0.8546 -0.1617
  170SAPE   O2219214   0.221   4.349   5.937  0.6254 -0.6216 -0.6750
  170SAPE   C2219215   0.103   4.155   5.869  0.4424 -0.0899  0.3806
  170SAPE   H2R19216   0.113   4.047   5.891 -0.3839  0.0766  1.7520
  170SAPE   H2S19217   0.009   4.189   5.919 -1.5603 -2.9295 -1.1673
  170SAPE    C319218   0.560   4.193   5.871  0.2105  0.3116 -0.3276
  170SAPE    HX19219   0.587   4.087   5.853  1.8369  0.6031  0.2514
  170SAPE    HY19220   0.647   4.237   5.922  0.0177 -0.0425  0.3133
  170SAPE   O3119221   0.518   4.262   5.752  0.1510  0.0723 -0.3048
  170SAPE   C3119222   0.549   4.388   5.736 -0.0794  1.0709  0.3135
  170SAPE   O3219223   0.635   4.448   5.803  0.2936  0.2922  0.3604
  170SAPE   C3219224   0.472   4.443   5.616 -0.1005  0.7272 -0.4372
  170SAPE   H2X19225   0.446   4.361   5.546  0.9719  0.7177 -0.8467
  170SAPE   H2Y19226   0.552   4.498   5.563 -0.3966  0.0968 -1.5583
  170SAPE   C2319227   0.072   4.181   5.721  1.2985  0.0078 -0.0878
  170SAPE   H3R19228   0.063   4.291   5.707 -0.1628 -0.1292 -0.3583
  170SAPE   H3S19229  -0.028   4.136   5.703  0.1553  1.2945  2.3902
  170SAPE   C2419230   0.171   4.124   5.617 -0.5236  0.0903 -1.0023
  170SAPE   H4R19231   0.260   4.188   5.631 -1.8120  1.2805  3.3971
  170SAPE   H4S19232   0.120   4.155   5.524  1.6631  1.6003 -1.7780
  170SAPE   C2519233   0.196   3.978   5.633 -0.0491  0.1286 -0.2638
  170SAPE   H5R19234   0.246   3.946   5.725 -3.7179 -0.0533  1.8829
  170SAPE   C2619235   0.160   3.882   5.547 -0.2467  0.2591 -0.4690
  170SAPE   H6R19236   0.207   3.784   5.565  0.5219  0.8073  0.6087
  170SAPE   C2719237   0.093   3.896   5.411 -0.3610 -0.2740  0.3080
  170SAPE   H7R19238  -0.004   3.947   5.432 -0.4691  1.3752 -3.4766
  170SAPE   H7S19239   0.061   3.799   5.369  1.9406 -0.0701 -2.2042
  170SAPE   C2819240   0.174   3.975   5.304  0.1982 -0.3302 -0.5355
  170SAPE   H8R19241   0.282   3.960   5.319  0.2683 -0.9260 -1.5291
  170SAPE   C2919242   0.135   4.049   5.199 -0.7821  0.7066 -1.0894
  170SAPE   H9R19243   0.205   4.091   5.125 -0.6920 -0.0990 -1.4743
  170SAPE  C21019244  -0.012   4.072   5.169 -0.3297 -0.4601 -0.2880
  170SAPE  H10R19245  -0.053   4.169   5.205 -0.7065 -0.4972 -0.6128
  170SAPE  H10S19246  -0.068   3.990   5.218  0.4770 -0.7911  0.1050
  170SAPE  C21119247  -0.049   4.053   5.026  0.0781 -0.7809  1.1494
  170SAPE  H11R19248  -0.051   4.150   4.974  2.6546 -1.7316 -0.9177
  170SAPE  C21219249  -0.087   3.943   4.966  0.1408 -0.7937  0.0560
  170SAPE  H12R19250  -0.130   3.955   4.866 -0.8752  0.0374  0.5711
  170SAPE  C21319251  -0.099   3.807   5.015 -0.6456 -0.1201 -0.3481
  170SAPE  H13R19252  -0.067   3.805   5.121  1.0362  0.8091 -0.8178
  170SAPE  H13S19253  -0.024   3.749   4.958 -0.6567  0.1713 -0.6603
  170SAPE  C21419254  -0.239   3.752   4.999  0.3053  0.0357 -0.4324
  170SAPE  H14R19255  -0.304   3.787   4.918 -0.4739  0.8783  0.5238
  170SAPE  C21519256  -0.281   3.653   5.089  0.5248 -0.5167  0.3294
  170SAPE  H15R19257  -0.385   3.626   5.064  1.3307 -2.3695 -1.4335
  170SAPE  C21619258  -0.214   3.589   5.202  0.2119  0.0186 -0.4679
  170SAPE  H16R19259  -0.105   3.605   5.195  0.2850 -0.5185 -0.5742
  170SAPE  H16S19260  -0.236   3.481   5.203 -0.1869  0.0606 -2.3089
  170SAPE  C21719261  -0.253   3.637   5.347 -0.0850 -0.8463  0.9878
  170SAPE  H17R19262  -0.363   3.624   5.358 -0.9478  1.6941 -2.5585
  170SAPE  H17S19263  -0.228   3.745   5.355 -2.9271 -0.0956  0.9021
  170SAPE  C21819264  -0.186   3.557   5.451 -0.6325  0.6902  0.8796
  170SAPE  H18R19265  -0.077   3.556   5.429 -0.5252  1.1162  1.3811
  170SAPE  H18S19266  -0.223   3.453   5.455 -2.2629  1.2921  3.0519
  170SAPE  C21919267  -0.198   3.612   5.594 -0.2814 -0.0986  0.3804
  170SAPE  H19R19268  -0.142   3.708   5.593 -0.4251 -0.0225 -0.1568
  170SAPE  H19S19269  -0.149   3.532   5.654 -0.5459 -1.7693 -1.5464
  170SAPE  C22019270  -0.337   3.642   5.642 -0.0026  0.4578  0.0543
  170SAPE  H20R19271  -0.366   3.738   5.595  0.2073  0.3446 -0.3111
  170SAPE  H20S19272  -0.328   3.655   5.752  2.4436 -0.0137 -0.0372
  170SAPE  H20T19273  -0.409   3.561   5.616 -0.9709  1.6255 -1.0220
  170SAPE   C3319274   0.342   4.524   5.631 -0.1162  0.4259 -0.6405
  170SAPE   H3X19275   0.359   4.633   5.643 -1.9081  0.6647 -0.0483
  170SAPE   H3Y19276   0.299   4.502   5.731  0.0303  1.9944 -0.2085
  170SAPE   C3419277   0.246   4.511   5.517 -0.0316  0.1681  0.9787
  170SAPE   H4X19278   0.161   4.577   5.547 -0.3717  0.7897 -1.1849
  170SAPE   H4Y19279   0.202   4.409   5.517  1.3593 -0.4497  0.9948
  170SAPE   C3519280   0.295   4.568   5.375  0.1424  0.0333 -0.5317
  170SAPE   H5X19281   0.252   4.499   5.299 -2.5822  0.2797  0.6985
  170SAPE   H5Y19282   0.406   4.572   5.372  0.3183  1.0628  3.0100
  170SAPE   C3619283   0.258   4.716   5.354 -0.5087 -0.1347  0.1579
  170SAPE   H6X19284   0.300   4.781   5.435  2.3166 -2.0582  0.3665
  170SAPE   H6Y19285   0.148   4.717   5.365 -0.5593 -1.5888 -0.0781
  170SAPE   C3719286   0.313   4.760   5.217 -0.6899  0.2089 -0.3298
  170SAPE   H7X19287   0.284   4.683   5.143 -1.2870  3.0006 -3.1721
  170SAPE   H7Y19288   0.423   4.772   5.206 -0.7860 -0.0153 -1.5835
  170SAPE   C3819289   0.236   4.882   5.174  1.1758 -0.5697 -0.3342
  170SAPE   H8X19290   0.258   4.976   5.230 -2.0199  1.1742 -1.7667
  170SAPE   H8Y19291   0.131   4.860   5.201  0.7378  0.2922 -1.2577
  170SAPE   C3919292   0.255   4.907   5.026 -0.7296 -0.1002  0.1423
  170SAPE   H9X19293   0.201   4.841   4.954  0.3251  0.2921 -1.0659
  170SAPE   H9Y19294   0.363   4.887   5.009 -0.5577  1.2111 -0.4900
  170SAPE  C31019295   0.217   5.053   4.987  0.5121  0.5215  0.2295
  170SAPE  H10X19296   0.281   5.122   5.046 -0.4714  2.3014 -0.7173
  170SAPE  H10Y19297   0.112   5.081   5.008  0.1416  0.0978 -0.9628
  170SAPE  C31119298   0.256   5.081   4.841 -0.1669 -0.2413 -0.3491
  170SAPE  H11X19299   0.202   5.024   4.762  0.8680 -1.3651 -0.2730
  170SAPE  H11Y19300   0.364   5.057   4.832  0.1419  1.1068 -0.5033
  170SAPE  C31219301   0.251   5.230   4.814  0.5185 -0.0712 -0.1493
  170SAPE  H12X19302   0.301   5.291   4.893  1.2684  2.0006 -2.1069
  170SAPE  H12Y19303   0.144   5.255   4.801  0.0768 -2.1217 -0.7060
  170SAPE  C31319304   0.308   5.262   4.676  0.3617  0.5279  0.5599
  170SAPE  H13X19305   0.241   5.211   4.603  1.4602 -0.1045 -0.0279
  170SAPE  H13Y19306   0.410   5.223   4.659 -0.2056  0.0837 -2.4471
  170SAPE  C31419307   0.314   5.413   4.645  0.2313  0.2366 -0.2513
  170SAPE  H14X19308   0.383   5.463   4.715 -0.9798 -0.2063  1.3174
  170SAPE  H14Y19309   0.211   5.455   4.642  0.6996  1.3629 -1.9018
  170SAPE  C31519310   0.372   5.434   4.504  0.1627 -0.0512  0.7598
  170SAPE  H15X19311   0.332   5.360   4.432  2.9915  0.7711 -1.9060
  170SAPE  H15Y19312   0.482   5.420   4.507  0.4852  2.0629  0.6315
  170SAPE  C31619313   0.347   5.575   4.463  0.2438 -0.0862 -0.4215
  170SAPE  H16X19314   0.396   5.648   4.531  2.5414 -1.0403 -0.9364
  170SAPE  H16Y19315   0.237   5.589   4.468  0.3374  0.2441  1.8477
  170SAPE  C31719316   0.405   5.595   4.320  0.5944 -0.5554  0.3545
  170SAPE  H17X19317   0.437   5.496   4.282 -0.8881 -0.0226 -2.5022
  170SAPE  H17Y19318   0.500   5.652   4.322  1.0436 -1.2915  0.4732
  170SAPE  C31819319   0.304   5.667   4.227 -0.7767  0.0120  0.0861
  170SAPE  H18X19320   0.337   5.659   4.121 -1.0870 -2.2415  0.1133
  170SAPE  H18Y19321   0.280   5.773   4.251 -2.3320 -0.1954 -0.4848
  170SAPE  H18Z19322   0.211   5.607   4.233  0.0986 -1.3214  0.8412
  171SAPE     N19323   2.680   0.145   6.122 -0.1289 -0.3534  0.5598
  171SAPE   HN119324   2.724   0.228   6.079  0.0546 -0.1400  1.1528
  171SAPE   HN219325   2.646   0.183   6.213  3.2167  0.7353  1.4912
  171SAPE   HN319326   2.752   0.070   6.128  1.2978  0.7857 -1.3043
  171SAPE   C1219327   2.559   0.092   6.052  0.1384 -0.2271  0.2336
  171SAPE  H12A19328   2.592   0.045   5.957  1.7357  2.0024 -0.4025
  171SAPE  H12B19329   2.490   0.175   6.027 -1.0819 -1.6180 -1.2702
  171SAPE   C1119330   2.476  -0.003   6.140  0.6031 -0.2719 -0.7329
  171SAPE  H11A19331   2.545  -0.084   6.174 -0.4584 -0.1053  2.0274
  171SAPE  H11B19332   2.397  -0.055   6.081  0.7538  0.4262 -1.5826
  171SAPE     P19333   2.288   0.154   6.268 -0.4972 -0.0079 -0.0609
  171SAPE   O1319334   2.230   0.122   6.401 -0.1242  0.2198 -0.3812
  171SAPE   O1419335   2.313   0.297   6.224 -0.5197  0.1272 -0.0688
  171SAPE   O1219336   2.422   0.070   6.259 -0.2832  0.2965 -0.1684
  171SAPE   O1119337   2.194   0.080   6.158 -0.1824 -0.0398 -0.4886
  171SAPE    C119338   2.144   0.153   6.047  0.2717 -0.7982 -0.1861
  171SAPE    HA19339   2.049   0.201   6.080 -0.6560 -2.0375 -0.9421
  171SAPE    HB19340   2.214   0.231   6.011  0.2166  0.0497  1.4502
  171SAPE    C219341   2.110   0.069   5.914 -0.3838  0.1904  0.9235
  171SAPE    HS19342   2.015   0.017   5.936  0.1985 -0.1156  2.9249
  171SAPE   O2119343   2.219  -0.024   5.892 -0.7148  0.1269 -0.2034
  171SAPE   C2119344   2.186  -0.129   5.810  0.5875  0.6309 -0.2999
  171SAPE   O2219345   2.080  -0.146   5.755  0.9739 -0.7428 -0.2581
  171SAPE   C2219346   2.316  -0.202   5.780 -0.4192  0.2111 -0.0522
  171SAPE   H2R19347   2.342  -0.262   5.870  1.9558  0.9966 -0.1526
  171SAPE   H2S19348   2.290  -0.271   5.697 -0.7829  0.5346 -0.2111
  171SAPE    C319349   2.093   0.164   5.799  0.4504  0.0373 -0.1264
  171SAPE    HX19350   2.195   0.201   5.775  1.1726 -1.0383  1.1845
  171SAPE    HY19351   2.036   0.253   5.834  2.0416  1.1498 -0.2427
  171SAPE   O3119352   2.040   0.107   5.678 -0.1844  0.5571  0.2615
  171SAPE   C3119353   1.912   0.080   5.689 -0.6576 -0.8132  0.3405
  171SAPE   O3219354   1.844   0.092   5.790 -0.0462  0.3478 -0.2546
  171SAPE   C3219355   1.859   0.018   5.563 -0.5158  0.5494  0.6328
  171SAPE   H2X19356   1.937  -0.041   5.509 -2.4040 -0.2588 -1.3972
  171SAPE   H2Y19357   1.823   0.101   5.499 -0.7890  0.4015  0.5922
  171SAPE   C2319358   2.435  -0.114   5.730 -0.6609  0.0759 -0.0715
  171SAPE   H3R19359   2.440  -0.022   5.793 -0.3290 -0.1909  0.3014
  171SAPE   H3S19360   2.408  -0.083   5.627  1.3319  0.7142 -0.4607
  171SAPE   C2419361   2.567  -0.188   5.730 -0.0954 -0.7382  0.0230
  171SAPE   H4R19362   2.555  -0.269   5.656 -0.8006 -0.7000  0.0857
  171SAPE   H4S19363   2.570  -0.227   5.834  1.0034  0.5745  0.5217
  171SAPE   C2519364   2.691  -0.107   5.701 -0.2909  0.7029  0.0593
  171SAPE   H5R19365   2.732  -0.053   5.788 -0.3327 -3.7162  3.1487
  171SAPE   C2619366   2.757  -0.083   5.584 -0.3297 -0.5472  0.5281
  171SAPE   H6R19367   2.836  -0.007   5.581  0.4420 -1.2925  1.2986
  171SAPE   C2719368   2.710  -0.153   5.458 -0.4838 -0.1492  0.3174
  171SAPE   H7R19369   2.599  -0.149   5.443 -0.1185 -0.1559 -3.2773
  171SAPE   H7S19370   2.710  -0.263   5.465 -0.3327 -0.3013 -1.4623
  171SAPE   C2819371   2.785  -0.103   5.335  0.0318  0.1173 -0.5558
  171SAPE   H8R19372   2.894  -0.115   5.343  0.2167  2.4950  4.0277
  171SAPE   C2919373   2.732  -0.047   5.220 -0.3718  0.5252  0.0295
  171SAPE   H9R19374   2.800  -0.028   5.136  1.4752 -0.1462  1.3125
  171SAPE  C21019375   2.585  -0.043   5.194 -0.1264  0.0175 -0.6589
  171SAPE  H10R19376   2.523  -0.114   5.253 -0.4360  0.1677 -0.8033
  171SAPE  H10S19377   2.570  -0.082   5.091 -1.0555 -2.5981  0.3740
  171SAPE  C21119378   2.521   0.096   5.195 -0.8652 -0.0461 -0.6934
  171SAPE  H11R19379   2.561   0.172   5.126  0.5683  1.3046  1.4720
  171SAPE  C21219380   2.403   0.126   5.260 -0.6741 -0.1105 -0.4506
  171SAPE  H12R19381   2.362   0.228   5.249  2.2738  0.9975 -2.2749
  171SAPE  C21319382   2.316   0.039   5.346 -0.5472 -0.3960 -0.1613
  171SAPE  H13R19383   2.345   0.063   5.451 -0.0649 -0.7086 -0.2212
  171SAPE  H13S19384   2.336  -0.067   5.322  1.4226  0.3051 -1.8649
  171SAPE  C21419385   2.168   0.069   5.332  0.6140 -0.0594 -0.2769
  171SAPE  H14R19386   2.116   0.075   5.429  1.7999 -0.5680  0.4165
  171SAPE  C21519387   2.087   0.068   5.222 -0.1581  0.1497  0.4166
  171SAPE  H15R19388   1.981   0.093   5.233 -0.2609 -0.8260  1.7953
  171SAPE  C21619389   2.133   0.027   5.087  0.6405  0.6058 -0.4894
  171SAPE  H16R19390   2.222  -0.034   5.113  0.9789  1.9056  1.5873
  171SAPE  H16S19391   2.170   0.110   5.024  2.3155  0.1662 -0.1354
  171SAPE  C21719392   2.043  -0.062   5.001  0.4987  0.0445 -0.0629
  171SAPE  H17R19393   1.976   0.007   4.946  2.1058  1.0018 -0.8692
  171SAPE  H17S19394   1.987  -0.142   5.054 -1.2182 -0.1401 -2.0377
  171SAPE  C21819395   2.109  -0.145   4.887 -0.1847 -0.1551 -0.6738
  171SAPE  H18R19396   2.186  -0.206   4.939  1.2285  0.3475 -2.0795
  171SAPE  H18S19397   2.166  -0.075   4.822  1.0485  1.1689  1.7320
  171SAPE  C21919398   2.014  -0.242   4.816  0.7453  0.1280 -0.1712
  171SAPE  H19R19399   1.973  -0.306   4.896 -1.8992  1.6456 -0.1920
  171SAPE  H19S19400   2.052  -0.301   4.730 -0.1843  1.9274 -1.8997
  171SAPE  C22019401   1.887  -0.173   4.759  0.0541 -0.4176 -0.2744
  171SAPE  H20R19402   1.831  -0.121   4.839  1.0529  0.8111 -0.3495
  171SAPE  H20S19403   1.905  -0.103   4.674 -0.7756 -0.6063 -0.6159
  171SAPE  H20T19404   1.828  -0.252   4.708 -0.1970  0.0427 -0.7048
  171SAPE   C3319405   1.751  -0.089   5.578 -0.8717 -0.3625  0.1062
  171SAPE   H3X19406   1.669  -0.043   5.637  1.0114  0.2691  2.3825
  171SAPE   H3Y19407   1.792  -0.177   5.631  0.2312 -0.1011 -0.2924
  171SAPE   C3419408   1.694  -0.118   5.435  0.2551 -0.2347  0.5654
  171SAPE   H4X19409   1.657  -0.024   5.387 -1.0648 -0.3892  1.2402
  171SAPE   H4Y19410   1.603  -0.179   5.453  0.1124  0.2656  1.6188
  171SAPE   C3519411   1.782  -0.186   5.331  0.1776 -0.3320  0.8273
  171SAPE   H5X19412   1.822  -0.278   5.380 -0.9884 -0.8546  0.8325
  171SAPE   H5Y19413   1.871  -0.122   5.312  0.7909 -1.1632  0.8143
  171SAPE   C3619414   1.716  -0.235   5.197  0.0938  0.5252  1.0588
  171SAPE   H6X19415   1.639  -0.310   5.223  1.7286 -0.4742  3.3147
  171SAPE   H6Y19416   1.792  -0.288   5.135  0.4848 -1.3607  3.0392
  171SAPE   C3719417   1.644  -0.118   5.117 -0.5268  0.4187  0.3004
  171SAPE   H7X19418   1.711  -0.040   5.074  0.9360 -1.8925 -1.8269
  171SAPE   H7Y19419   1.577  -0.069   5.191  0.9835  0.9100  1.3838
  171SAPE   C3819420   1.565  -0.165   4.994 -0.2202  0.9651  0.1006
  171SAPE   H8X19421   1.487  -0.233   5.036 -0.1330  0.1049 -1.0861
  171SAPE   H8Y19422   1.646  -0.216   4.939 -1.1249 -2.1157  1.3694
  171SAPE   C3919423   1.504  -0.053   4.911 -0.9151 -0.7136  0.6369
  171SAPE   H9X19424   1.589   0.018   4.894 -1.4375 -0.1981  0.0996
  171SAPE   H9Y19425   1.437   0.008   4.975  1.9288  1.8674  1.4368
  171SAPE  C31019426   1.431  -0.092   4.780 -0.1610  0.4407  0.0829
  171SAPE  H10X19427   1.326  -0.122   4.801  0.6255 -2.4079  0.4184
  171SAPE  H10Y19428   1.469  -0.190   4.744  2.8276  1.7285 -0.5031
  171SAPE  C31119429   1.445   0.020   4.667 -0.1003  0.8968 -0.4082
  171SAPE  H11X19430   1.425   0.115   4.721 -3.0044  0.7856 -1.1134
  171SAPE  H11Y19431   1.365   0.009   4.591 -1.0545 -0.0906  0.7022
  171SAPE  C31219432   1.584   0.010   4.597 -0.0757  0.7199  0.2288
  171SAPE  H12X19433   1.667   0.002   4.670  0.4651  1.6332 -0.2736
  171SAPE  H12Y19434   1.602   0.099   4.533  0.2345 -1.2419 -2.6112
  171SAPE  C31319435   1.594  -0.100   4.486  0.1231  0.0357 -0.3531
  171SAPE  H13X19436   1.523  -0.067   4.407 -0.5642 -0.6683 -0.0501
  171SAPE  H13Y19437   1.559  -0.201   4.517  0.1876 -0.7137 -2.5848
  171SAPE  C31419438   1.736  -0.114   4.418 -0.4859  1.2804  0.5006
  171SAPE  H14X19439   1.817  -0.064   4.474  2.0452 -0.8398 -0.9885
  171SAPE  H14Y19440   1.734  -0.070   4.316  0.0579  1.6470  0.6492
  171SAPE  C31519441   1.776  -0.268   4.404 -0.1731 -0.0175 -0.0346
  171SAPE  H15X19442   1.779  -0.299   4.511 -0.7451  1.3288  0.3943
  171SAPE  H15Y19443   1.878  -0.265   4.359  0.5329 -0.8954  1.4011
  171SAPE  C31619444   1.676  -0.351   4.319  0.5846  0.8107  0.7281
  171SAPE  H16X19445   1.672  -0.305   4.218  4.1858  1.7146  0.8590
  171SAPE  H16Y19446   1.574  -0.342   4.362 -0.1212  0.1541 -0.7318
  171SAPE  C31719447   1.707  -0.505   4.307  0.0450 -0.5000  0.2522
  171SAPE  H17X19448   1.714  -0.558   4.404  1.3159 -1.9458 -0.5876
  171SAPE  H17Y19449   1.813  -0.504   4.274 -0.0344 -0.0957 -0.0095
  171SAPE  C31819450   1.619  -0.588   4.215  0.4742 -0.3718  0.4810
  171SAPE  H18X19451   1.667  -0.689   4.213  0.7789 -0.2535  1.5278
  171SAPE  H18Y19452   1.610  -0.541   4.115  4.3507  0.8027  0.5294
  171SAPE  H18Z19453   1.516  -0.590   4.257 -0.2277 -0.1083 -1.1503
  172SAPE     N19454   0.385   0.576   6.419 -0.2027  0.0035 -0.5982
  172SAPE   HN119455   0.413   0.547   6.514  0.0745 -1.3135 -1.0610
  172SAPE   HN219456   0.401   0.678   6.404 -2.3407  0.3970 -0.5414
  172SAPE   HN319457   0.287   0.544   6.409  0.2619 -1.8951  0.4317
  172SAPE   C1219458   0.454   0.491   6.321 -0.2087  0.8739  0.3439
  172SAPE  H12A19459   0.565   0.492   6.332  0.0890 -0.6824 -1.7782
  172SAPE  H12B19460   0.430   0.543   6.226 -1.2849  1.5515  0.9664
  172SAPE   C1119461   0.402   0.348   6.327 -1.0059  0.0446 -1.1136
  172SAPE  H11A19462   0.470   0.292   6.259  0.8802  2.6307 -1.5007
  172SAPE  H11B19463   0.296   0.352   6.293 -1.6165  1.6313  0.8007
  172SAPE     P19464   0.465   0.160   6.487  0.3395  0.4378 -0.4809
  172SAPE   O1319465   0.609   0.171   6.522  0.6827 -0.5220 -0.1524
  172SAPE   O1419466   0.374   0.087   6.584 -0.3230 -0.4846 -0.1987
  172SAPE   O1219467   0.400   0.301   6.462 -0.3136  0.3536  0.2405
  172SAPE   O1119468   0.439   0.081   6.351 -0.2892 -0.6617 -0.0695
  172SAPE    C119469   0.502  -0.048   6.338 -0.3815 -0.1079  0.4243
  172SAPE    HA19470   0.595  -0.062   6.398  0.4360 -0.9470 -0.9835
  172SAPE    HB19471   0.432  -0.126   6.377  0.1446 -0.1730  1.2634
  172SAPE    C219472   0.533  -0.091   6.185 -0.2288 -0.2656  0.1285
  172SAPE    HS19473   0.595  -0.007   6.145  0.2411  0.8246  2.9127
  172SAPE   O2119474   0.404  -0.111   6.115 -0.0592 -0.3431  0.2729
  172SAPE   C2119475   0.415  -0.076   5.992  1.1280 -0.2496 -0.0658
  172SAPE   O2219476   0.498  -0.005   5.943  0.3835 -0.0012 -0.1704
  172SAPE   C2219477   0.299  -0.135   5.926  0.1695  0.6639  0.7506
  172SAPE   H2R19478   0.287  -0.236   5.970 -0.7965  0.7266  0.6628
  172SAPE   H2S19479   0.211  -0.076   5.962 -0.3566  0.7642 -0.6227
  172SAPE    C319480   0.608  -0.226   6.169 -0.2991 -0.0018 -0.5184
  172SAPE    HX19481   0.550  -0.311   6.212 -1.0038  1.5248  1.7408
  172SAPE    HY19482   0.705  -0.212   6.222 -0.9243 -1.6929  1.2020
  172SAPE   O3119483   0.641  -0.260   6.036  0.6304 -0.4567 -0.1088
  172SAPE   C3119484   0.740  -0.202   5.971 -0.2720 -0.6181  0.0450
  172SAPE   O3219485   0.821  -0.126   6.024  0.0254  0.7627 -0.3848
  172SAPE   C3219486   0.732  -0.226   5.823  0.2010 -0.0068  0.1629
  172SAPE   H2X19487   0.653  -0.158   5.784  0.7264  0.2240 -0.5192
  172SAPE   H2Y19488   0.704  -0.334   5.815  1.2767 -0.2726 -0.1652
  172SAPE   C2319489   0.306  -0.139   5.768  0.3939 -0.0685  0.1594
  172SAPE   H3R19490   0.308  -0.242   5.725  2.6901 -1.0538  2.4004
  172SAPE   H3S19491   0.399  -0.090   5.731  0.3023  0.8179  1.0797
  172SAPE   C2419492   0.184  -0.063   5.702 -0.0784  0.5782  0.0078
  172SAPE   H4R19493   0.089  -0.107   5.741  1.0630 -1.6335  0.4808
  172SAPE   H4S19494   0.200  -0.079   5.593  1.3303 -0.0972  0.2938
  172SAPE   C2519495   0.191   0.079   5.746 -0.2246 -0.0809  0.5362
  172SAPE   H5R19496   0.207   0.109   5.851 -1.3078 -1.4356  1.1192
  172SAPE   C2619497   0.187   0.184   5.662  0.5732  0.0033  0.3022
  172SAPE   H6R19498   0.200   0.287   5.699  0.0175  0.5112 -0.8508
  172SAPE   C2719499   0.182   0.190   5.510  0.5519 -0.5402 -0.7521
  172SAPE   H7R19500   0.181   0.086   5.472 -1.2943 -1.1757  0.8358
  172SAPE   H7S19501   0.280   0.230   5.478  0.4568  0.1537 -0.2053
  172SAPE   C2819502   0.057   0.263   5.454  0.0146 -0.2085 -0.4640
  172SAPE   H8R19503  -0.037   0.257   5.511 -0.3628 -0.1948 -1.0823
  172SAPE   C2919504   0.057   0.351   5.347 -0.2845  0.1252 -0.5880
  172SAPE   H9R19505  -0.040   0.391   5.313 -0.9282 -1.9477 -1.3624
  172SAPE  C21019506   0.174   0.408   5.269 -0.3127  0.2613 -0.3568
  172SAPE  H10R19507   0.263   0.370   5.323 -0.5497 -0.6176 -0.5839
  172SAPE  H10S19508   0.175   0.519   5.282  0.9951  0.1591  0.5554
  172SAPE  C21119509   0.188   0.375   5.121  0.4819  0.6681  0.5862
  172SAPE  H11R19510   0.245   0.283   5.102  1.2712  1.2832 -0.0756
  172SAPE  C21219511   0.165   0.463   5.020 -0.3121  0.5262  0.2151
  172SAPE  H12R19512   0.187   0.424   4.920  1.0338  0.3899  0.5373
  172SAPE  C21319513   0.108   0.601   5.031  0.2347 -0.4453  0.0206
  172SAPE  H13R19514   0.072   0.626   5.133 -1.9748 -0.9568 -0.5900
  172SAPE  H13S19515   0.013   0.609   4.975 -0.1523 -1.3683  0.5328
  172SAPE  C21419516   0.214   0.705   4.983  0.2395 -0.5995 -0.2511
  172SAPE  H14R19517   0.290   0.739   5.056  2.2267 -2.3561 -1.3714
  172SAPE  C21519518   0.224   0.770   4.875  0.2621  0.1034  0.0815
  172SAPE  H15R19519   0.301   0.847   4.858 -2.3960  2.2384 -3.6426
  172SAPE  C21619520   0.130   0.763   4.761 -0.0987 -0.4443 -0.0902
  172SAPE  H16R19521   0.036   0.823   4.773  1.2291  1.4454  1.5432
  172SAPE  H16S19522   0.093   0.660   4.742  0.0382 -0.8548  1.7465
  172SAPE  C21719523   0.193   0.822   4.633 -0.7632  0.6684 -0.0697
  172SAPE  H17R19524   0.124   0.800   4.548  0.7445  1.3720 -1.5371
  172SAPE  H17S19525   0.286   0.766   4.609 -0.9745 -0.3616  1.4268
  172SAPE  C21819526   0.241   0.965   4.633 -0.2673  0.1430  0.2461
  172SAPE  H18R19527   0.313   0.981   4.715  1.9695 -2.2449 -1.0932
  172SAPE  H18S19528   0.158   1.037   4.650 -1.9478 -1.2120 -1.6455
  172SAPE  C21919529   0.298   0.991   4.496 -0.4902 -0.0394  0.2377
  172SAPE  H19R19530   0.210   0.985   4.428 -1.2761 -0.8146  1.2884
  172SAPE  H19S19531   0.372   0.913   4.469 -0.9507 -1.0857  1.8121
  172SAPE  C22019532   0.353   1.137   4.481 -0.5484  0.8021  0.2931
  172SAPE  H20R19533   0.436   1.151   4.554 -0.7708 -2.5316  1.3667
  172SAPE  H20S19534   0.273   1.210   4.503 -0.5739  0.9276 -0.1926
  172SAPE  H20T19535   0.390   1.159   4.378  1.1123  0.2830  0.7467
  172SAPE   C3319536   0.856  -0.212   5.742  0.4496 -0.3198 -0.0853
  172SAPE   H3X19537   0.942  -0.252   5.799 -0.6397  0.1333  1.9991
  172SAPE   H3Y19538   0.872  -0.103   5.724  0.4898 -0.3160 -0.0282
  172SAPE   C3419539   0.857  -0.266   5.595  0.2183 -0.4441  0.3845
  172SAPE   H4X19540   0.887  -0.373   5.598  2.4150  0.0991 -0.2143
  172SAPE   H4Y19541   0.942  -0.214   5.546  1.6102 -1.7136  1.3539
  172SAPE   C3519542   0.720  -0.241   5.519 -0.5619 -0.2457  0.6510
  172SAPE   H5X19543   0.679  -0.142   5.546 -3.8280 -1.5283  0.8109
  172SAPE   H5Y19544   0.645  -0.316   5.550  1.3547 -2.3592  0.4524
  172SAPE   C3619545   0.744  -0.253   5.370 -0.2261 -0.3765 -0.9577
  172SAPE   H6X19546   0.783  -0.353   5.340 -0.9176 -0.9714  0.0597
  172SAPE   H6Y19547   0.830  -0.191   5.334 -0.2878 -0.5624 -1.4298
  172SAPE   C3719548   0.632  -0.210   5.278 -0.2492  0.2706  0.1774
  172SAPE   H7X19549   0.540  -0.261   5.316 -0.0727  0.7143  1.2426
  172SAPE   H7Y19550   0.641  -0.228   5.169 -0.2146 -1.3238  0.4194
  172SAPE   C3819551   0.577  -0.067   5.297 -0.2702 -0.6575  0.6329
  172SAPE   H8X19552   0.675  -0.019   5.276 -1.2847  0.8429 -0.9731
  172SAPE   H8Y19553   0.544  -0.044   5.401 -3.1782 -0.2159 -0.2978
  172SAPE   C3919554   0.474  -0.020   5.195  0.4695  0.3368 -0.8132
  172SAPE   H9X19555   0.508  -0.039   5.091 -1.6379 -1.6731 -1.2284
  172SAPE   H9Y19556   0.472   0.091   5.200 -0.9736  0.2993  0.0143
  172SAPE  C31019557   0.325  -0.075   5.213  0.2167  0.1104 -0.1566
  172SAPE  H10X19558   0.294  -0.040   5.314  2.3788  2.1604 -0.1109
  172SAPE  H10Y19559   0.338  -0.185   5.226  2.2746  0.3700  0.3985
  172SAPE  C31119560   0.240  -0.022   5.102  0.0727  0.2123 -0.5882
  172SAPE  H11X19561   0.278  -0.073   5.011 -0.9397 -5.4378  1.7336
  172SAPE  H11Y19562   0.259   0.085   5.079  0.1912 -0.0292 -1.6522
  172SAPE  C31219563   0.086  -0.047   5.123 -0.0680 -0.7351 -0.3293
  172SAPE  H12X19564   0.044   0.024   5.198 -1.5284 -1.9108  0.0272
  172SAPE  H12Y19565   0.071  -0.146   5.172  3.1747 -1.1675  0.0367
  172SAPE  C31319566   0.001  -0.037   4.994 -0.4966  0.7133  0.3025
  172SAPE  H13X19567  -0.107  -0.023   5.015 -0.6105 -0.0947  0.2721
  172SAPE  H13Y19568   0.025  -0.130   4.939 -1.0051 -0.8453  2.5808
  172SAPE  C31419569   0.043   0.088   4.914 -0.4295 -0.2562  0.9735
  172SAPE  H14X19570   0.144   0.082   4.868 -0.2400 -0.0830  1.3642
  172SAPE  H14Y19571   0.052   0.176   4.982 -0.1732  0.2266  0.3332
  172SAPE  C31519572  -0.060   0.116   4.800 -0.3705 -0.6077 -0.0798
  172SAPE  H15X19573  -0.038   0.217   4.760  1.7838 -1.4192 -1.0663
  172SAPE  H15Y19574  -0.158   0.119   4.853 -0.2574  1.4423  0.0960
  172SAPE  C31619575  -0.040   0.024   4.675 -0.3308  0.2137 -0.0799
  172SAPE  H16X19576  -0.038  -0.082   4.709 -1.1259  1.5642  4.9739
  172SAPE  H16Y19577   0.056   0.050   4.626 -1.4044  2.0260 -1.3366
  172SAPE  C31719578  -0.150   0.052   4.566 -0.9588  0.1309 -0.2665
  172SAPE  H17X19579  -0.093   0.063   4.471  1.3487 -1.0376  0.9212
  172SAPE  H17Y19580  -0.204   0.147   4.589  0.1053  0.7845 -0.3971
  172SAPE  C31819581  -0.250  -0.059   4.568 -0.2902  0.1283  0.3399
  172SAPE  H18X19582  -0.199  -0.154   4.541 -0.5057  0.0193  0.3205
  172SAPE  H18Y19583  -0.331  -0.029   4.498  0.6517  1.2097 -0.3241
  172SAPE  H18Z19584  -0.287  -0.066   4.673  1.5209 -1.8128  0.9237
  173SAPE     N19585   1.403   5.484   6.278 -0.3362 -0.4860  0.3139
  173SAPE   HN119586   1.439   5.431   6.361  1.2054 -0.5997 -0.3957
  173SAPE   HN219587   1.299   5.479   6.287 -0.3859 -1.3872 -0.5478
  173SAPE   HN319588   1.419   5.426   6.194 -1.9484 -0.5366  0.0050
  173SAPE   C1219589   1.454   5.619   6.239  0.0163 -0.3557  0.1044
  173SAPE  H12A19590   1.564   5.630   6.251 -0.0365  0.9233 -0.4149
  173SAPE  H12B19591   1.413   5.697   6.307 -0.4312  0.7263 -1.3625
  173SAPE   C1119592   1.414   5.665   6.097  0.6240  0.1635 -0.2186
  173SAPE  H11A19593   1.480   5.615   6.024  0.9506 -0.2278  0.3378
  173SAPE  H11B19594   1.441   5.773   6.086  0.3270  0.1862 -0.7316
  173SAPE     P19595   1.210   5.527   5.995 -0.0233 -0.1955  0.5561
  173SAPE   O1319596   1.296   5.408   6.010 -0.1145  0.3201  0.1449
  173SAPE   O1419597   1.068   5.511   6.032  0.1820 -0.0106 -0.3762
  173SAPE   O1219598   1.277   5.647   6.080  0.3354 -0.4752  0.3683
  173SAPE   O1119599   1.228   5.582   5.847 -0.0169  0.1616 -0.1450
  173SAPE    C119600   1.226   5.720   5.818 -0.0674  0.3918  0.0436
  173SAPE    HA19601   1.147   5.772   5.876 -0.8967 -0.7378 -0.0282
  173SAPE    HB19602   1.320   5.769   5.851 -0.5875 -0.2091  2.6473
  173SAPE    C219603   1.191   5.752   5.668  0.4590  0.1233 -0.5842
  173SAPE    HS19604   1.084   5.730   5.650  0.2004 -1.4087  2.2960
  173SAPE   O2119605   1.282   5.686   5.578  0.5377 -0.4533  0.0595
  173SAPE   C2119606   1.234   5.648   5.460 -0.3282 -0.5055 -0.3225
  173SAPE   O2219607   1.117   5.669   5.431 -0.0613 -0.0213  0.0079
  173SAPE   C2219608   1.347   5.578   5.382 -0.0908 -0.6945 -0.2034
  173SAPE   H2R19609   1.422   5.660   5.381 -0.3447 -0.4328  1.0742
  173SAPE   H2S19610   1.388   5.491   5.437  1.3890 -0.5863 -1.0543
  173SAPE    C319611   1.194   5.909   5.653  0.7397  0.2350  0.0826
  173SAPE    HX19612   1.297   5.945   5.669  1.7331 -2.0065 -0.8966
  173SAPE    HY19613   1.133   5.944   5.739  1.1298 -0.1713  0.5319
  173SAPE   O3119614   1.133   5.958   5.529  0.0417  0.3033 -0.5090
  173SAPE   C3119615   1.213   5.992   5.430  0.5308  0.7433  0.5273
  173SAPE   O3219616   1.333   5.968   5.431  0.2086  0.7738  0.0984
  173SAPE   C3219617   1.146   6.060   5.307 -0.0796  0.4696 -0.0235
  173SAPE   H2X19618   1.230   6.101   5.249 -0.3554  0.4059 -0.4689
  173SAPE   H2Y19619   1.083   6.143   5.345 -2.2940 -1.9262  1.9278
  173SAPE   C2319620   1.311   5.556   5.233 -0.3833  0.1174  0.0983
  173SAPE   H3R19621   1.255   5.641   5.189  0.0139  0.2284 -0.1953
  173SAPE   H3S19622   1.242   5.470   5.215  0.3767 -0.4918  0.0063
  173SAPE   C2419623   1.443   5.533   5.156 -0.0908 -0.7299  0.0094
  173SAPE   H4R19624   1.507   5.624   5.161 -1.9502  0.5983  0.7465
  173SAPE   H4S19625   1.413   5.520   5.050  0.3340  1.1777 -0.3854
  173SAPE   C2519626   1.526   5.413   5.192 -0.2821 -0.1099 -0.7725
  173SAPE   H5R19627   1.490   5.356   5.279  1.1463 -0.9770 -0.7183
  173SAPE   C2619628   1.640   5.382   5.131  0.3968 -0.7126 -0.4662
  173SAPE   H6R19629   1.691   5.291   5.165  2.7833  0.3772 -0.8955
  173SAPE   C2719630   1.711   5.450   5.016 -0.0778  0.6234  1.3959
  173SAPE   H7R19631   1.812   5.404   5.013 -0.7895 -1.0431  1.8911
  173SAPE   H7S19632   1.728   5.556   5.044  0.7956  0.9068 -0.0993
  173SAPE   C2819633   1.644   5.439   4.879  0.5387  0.3949  0.4943
  173SAPE   H8R19634   1.549   5.385   4.880  0.5614  0.2869 -0.8510
  173SAPE   C2919635   1.698   5.490   4.765  0.3051 -0.1637  0.3048
  173SAPE   H9R19636   1.644   5.481   4.669  1.0306  0.2849 -0.1551
  173SAPE  C21019637   1.832   5.562   4.766  0.3827 -0.3658 -0.1197
  173SAPE  H10R19638   1.902   5.512   4.836 -1.3260 -0.3618  1.6401
  173SAPE  H10S19639   1.818   5.661   4.814  1.4347 -0.5381  0.5824
  173SAPE  C21119640   1.902   5.573   4.631  0.0442  0.4289  0.1787
  173SAPE  H11R19641   1.971   5.489   4.618  1.8931  2.1232 -1.6056
  173SAPE  C21219642   1.884   5.675   4.547  0.6684 -0.9698 -0.2179
  173SAPE  H12R19643   1.946   5.673   4.456  1.0204 -0.3900  0.0085
  173SAPE  C21319644   1.788   5.787   4.545  0.4686  0.0615  0.7613
  173SAPE  H13R19645   1.693   5.748   4.588  0.3428 -0.6766 -0.1611
  173SAPE  H13S19646   1.773   5.809   4.437  0.3946 -2.1639  0.2780
  173SAPE  C21419647   1.826   5.902   4.635  0.0543 -0.4620 -0.0895
  173SAPE  H14R19648   1.912   5.876   4.698  0.0639 -2.6833 -0.9459
  173SAPE  C21519649   1.764   6.021   4.643 -0.1088 -0.3439 -0.4389
  173SAPE  H15R19650   1.804   6.099   4.710 -2.6761  1.6358 -1.0531
  173SAPE  C21619651   1.640   6.069   4.563 -0.0992  0.7640  0.2463
  173SAPE  H16R19652   1.607   5.997   4.485  0.8142  0.0305  0.5219
  173SAPE  H16S19653   1.670   6.157   4.503  2.4454  0.0496  0.3479
  173SAPE  C21719654   1.516   6.089   4.648  0.4255  0.3082 -0.2245
  173SAPE  H17R19655   1.442   6.143   4.586  0.0847 -0.5662 -0.5976
  173SAPE  H17S19656   1.545   6.146   4.739 -0.3066 -0.0266  0.2249
  173SAPE  C21819657   1.456   5.948   4.695 -0.2120  1.0921  0.5594
  173SAPE  H18R19658   1.542   5.890   4.733  0.4001  1.2186 -0.5864
  173SAPE  H18S19659   1.417   5.899   4.602  1.6793 -2.0336  1.2580
  173SAPE  C21919660   1.350   5.959   4.799  0.4332  0.5354  0.1333
  173SAPE  H19R19661   1.286   6.049   4.789  0.7307  0.7569  0.2079
  173SAPE  H19S19662   1.398   5.980   4.897 -1.6243  2.5961  0.7775
  173SAPE  C22019663   1.250   5.837   4.809  0.5066  0.2501 -0.0983
  173SAPE  H20R19664   1.190   5.832   4.902  0.5051 -0.2416 -0.1229
  173SAPE  H20S19665   1.307   5.742   4.807 -0.7797 -0.5439  0.0159
  173SAPE  H20T19666   1.181   5.839   4.721 -0.6302  0.6455  0.7808
  173SAPE   C3319667   1.071   5.953   5.226 -0.0517 -0.6434 -0.1038
  173SAPE   H3X19668   1.003   5.898   5.293 -0.1181 -0.2554  0.1531
  173SAPE   H3Y19669   1.140   5.870   5.199  2.7370  0.3758  3.1465
  173SAPE   C3419670   0.988   6.005   5.111  0.0768  0.0108  0.5173
  173SAPE   H4X19671   0.912   6.080   5.142 -0.4678 -0.3742  0.1581
  173SAPE   H4Y19672   0.939   5.916   5.065  0.8190 -1.2901  2.1706
  173SAPE   C3519673   1.069   6.078   5.010  0.3551 -0.0246  0.2319
  173SAPE   H5X19674   1.167   6.027   5.003 -0.3181 -1.2204 -0.9548
  173SAPE   H5Y19675   1.084   6.187   5.027 -1.3135  0.6090 -1.8977
  173SAPE   C3619676   0.987   6.088   4.875  0.0207 -0.5698  0.5534
  173SAPE   H6X19677   1.004   5.994   4.819  1.6936  0.8714 -1.5441
  173SAPE   H6Y19678   1.030   6.169   4.812 -0.7564  0.3169  1.1364
  173SAPE   C3719679   0.840   6.129   4.888  0.0946  0.0698 -0.5776
  173SAPE   H7X19680   0.834   6.202   4.971 -0.7029  0.4381 -0.9527
  173SAPE   H7Y19681   0.778   6.046   4.928  2.4286 -0.5890  1.9696
  173SAPE   C3819682   0.775   6.193   4.765 -0.0322 -0.0533 -0.0672
  173SAPE   H8X19683   0.796   6.121   4.683 -0.9346 -0.4526  0.0374
  173SAPE   H8Y19684   0.827   6.289   4.744  1.3288 -0.5978  0.6997
  173SAPE   C3919685   0.622   6.207   4.762 -0.1320 -0.2228 -0.4120
  173SAPE   H9X19686   0.589   6.275   4.681  0.4018  1.4242  0.7059
  173SAPE   H9Y19687   0.581   6.252   4.855 -1.5550  0.0601 -1.1463
  173SAPE  C31019688   0.536   6.082   4.734 -0.5624 -0.3099 -0.4474
  173SAPE  H10X19689   0.437   6.090   4.785 -0.3414  0.6067 -0.1421
  173SAPE  H10Y19690   0.594   6.000   4.781 -0.1378 -0.0488 -0.5083
  173SAPE  C31119691   0.500   6.053   4.580 -0.6779 -0.2762  0.2111
  173SAPE  H11X19692   0.410   6.114   4.559  1.1068  2.2160 -0.7824
  173SAPE  H11Y19693   0.480   5.944   4.575  2.2111 -0.8998  0.5475
  173SAPE  C31219694   0.616   6.078   4.481 -0.0433 -0.6795 -0.0896
  173SAPE  H12X19695   0.700   6.014   4.516 -0.3959 -0.8887  0.3790
  173SAPE  H12Y19696   0.637   6.188   4.481 -2.0498 -0.2570  0.5231
  173SAPE  C31319697   0.571   6.057   4.334  0.3260  0.0506  0.1581
  173SAPE  H13X19698   0.466   6.089   4.321  0.6200  0.5348 -1.1173
  173SAPE  H13Y19699   0.582   5.948   4.312  0.3758 -0.1022  0.9151
  173SAPE  C31419700   0.648   6.145   4.234  0.1678  0.1042  0.1039
  173SAPE  H14X19701   0.749   6.117   4.270 -0.8892 -0.2349  3.0158
  173SAPE  H14Y19702   0.624   6.251   4.257 -3.7474 -0.3138 -1.2848
  173SAPE  C31519703   0.617   6.108   4.090  0.0324  1.0484 -0.1687
  173SAPE  H15X19704   0.510   6.120   4.064  0.2761  1.5291 -0.9739
  173SAPE  H15Y19705   0.640   6.002   4.066 -2.6481  0.4731 -0.4891
  173SAPE  C31619706   0.685   6.193   3.981 -0.9235 -0.0349 -0.3048
  173SAPE  H16X19707   0.796   6.191   3.980 -0.6973  3.7941 -2.3611
  173SAPE  H16Y19708   0.643   6.290   4.018 -1.0905  0.4093 -1.5880
  173SAPE  C31719709   0.642   6.168   3.834  0.1171 -0.1388 -1.0897
  173SAPE  H17X19710   0.532   6.162   3.839  0.1019  1.0306  0.8843
  173SAPE  H17Y19711   0.682   6.070   3.798  1.1290 -0.1167 -0.0673
  173SAPE  C31819712   0.676   6.279   3.738 -0.0547  0.3521  0.7862
  173SAPE  H18X19713   0.656   6.379   3.782 -0.8086 -0.2671  1.8771
  173SAPE  H18Y19714   0.616   6.282   3.644  0.1949 -0.1545  0.6043
  173SAPE  H18Z19715   0.785   6.275   3.718 -0.2378  2.3811 -1.0097
  174SAPE     N19716   0.604   5.951   6.556  0.0048 -0.2493  0.1209
  174SAPE   HN119717   0.699   5.928   6.521 -0.4756  0.4137 -1.7471
  174SAPE   HN219718   0.564   5.872   6.610 -0.2967 -0.0957  0.1225
  174SAPE   HN319719   0.539   5.975   6.479 -3.4262 -1.5684  2.3599
  174SAPE   C1219720   0.608   6.072   6.653 -0.4961 -0.8843  0.0792
  174SAPE  H12A19721   0.688   6.052   6.728  0.0229 -0.2938 -0.3154
  174SAPE  H12B19722   0.510   6.081   6.705  0.8907  0.4868  2.7147
  174SAPE   C1119723   0.623   6.212   6.594  0.6396 -0.6750  0.0848
  174SAPE  H11A19724   0.638   6.291   6.671 -1.6553  0.4910 -0.5825
  174SAPE  H11B19725   0.523   6.221   6.547  1.2405  1.8335 -0.8667
  174SAPE     P19726   0.748   6.348   6.418  0.5391  0.1992 -0.3622
  174SAPE   O1319727   0.714   6.470   6.486  0.4290 -0.1483 -0.2804
  174SAPE   O1419728   0.878   6.339   6.349 -0.2708  0.2044  0.3017
  174SAPE   O1219729   0.733   6.222   6.512  0.4107 -0.4045  0.5338
  174SAPE   O1119730   0.632   6.326   6.310  0.1916  0.7881 -0.0593
  174SAPE    C119731   0.645   6.215   6.215 -0.1025  0.1188  0.2642
  174SAPE    HA19732   0.736   6.153   6.230 -0.2492 -0.5467 -1.3611
  174SAPE    HB19733   0.567   6.137   6.227  0.9607 -1.1140 -0.4624
  174SAPE    C219734   0.657   6.252   6.058 -0.6292 -0.0740 -0.4726
  174SAPE    HS19735   0.757   6.301   6.061  0.9616 -3.0782  2.0907
  174SAPE   O2119736   0.543   6.325   6.019  0.4224 -0.0871 -0.0848
  174SAPE   C2119737   0.571   6.427   5.931 -0.7688  0.6000 -0.3087
  174SAPE   O2219738   0.678   6.433   5.881 -0.2325 -0.6701  0.5092
  174SAPE   C2219739   0.461   6.508   5.890  0.1706  0.2297 -0.0941
  174SAPE   H2R19740   0.439   6.565   5.983 -1.6973 -3.3965  1.9169
  174SAPE   H2S19741   0.499   6.589   5.824 -0.3152  0.8109  0.3312
  174SAPE    C319742   0.664   6.119   5.969 -0.4572  0.3413 -0.2936
  174SAPE    HX19743   0.582   6.052   6.003  0.1667 -0.1580  0.2407
  174SAPE    HY19744   0.759   6.064   5.985 -1.5531 -2.0797 -1.4623
  174SAPE   O3119745   0.658   6.140   5.826 -0.4574  0.2863  0.4572
  174SAPE   C3119746   0.772   6.193   5.782  0.8693 -0.0759 -0.3518
  174SAPE   O3219747   0.871   6.226   5.848  0.3037  0.4452  0.1968
  174SAPE   C3219748   0.768   6.236   5.633  0.2514 -0.1834  0.1101
  174SAPE   H2X19749   0.855   6.302   5.614 -1.3224  1.6842 -0.9877
  174SAPE   H2Y19750   0.677   6.296   5.612 -0.4838 -0.0491  3.2141
  174SAPE   C2319751   0.338   6.437   5.841  0.0100  0.1491  0.5842
  174SAPE   H3R19752   0.247   6.497   5.860  0.6540  0.8943  1.4064
  174SAPE   H3S19753   0.331   6.344   5.902  0.8012  0.1311  0.6552
  174SAPE   C2419754   0.355   6.406   5.689  0.5125 -0.0691  0.5210
  174SAPE   H4R19755   0.268   6.345   5.658  0.1860 -0.3968  2.0001
  174SAPE   H4S19756   0.448   6.346   5.677  1.2060  1.2445 -1.1060
  174SAPE   C2519757   0.376   6.522   5.604 -0.1418 -0.0820  0.3178
  174SAPE   H5R19758   0.467   6.582   5.615  0.6891 -1.2540 -0.0373
  174SAPE   C2619759   0.288   6.566   5.509 -0.2097 -0.1245 -0.4999
  174SAPE   H6R19760   0.309   6.665   5.466  2.5433 -0.1082  0.6951
  174SAPE   C2719761   0.155   6.508   5.483 -0.1660 -0.2410  0.1455
  174SAPE   H7R19762   0.085   6.525   5.567  0.9184  0.8332  0.8586
  174SAPE   H7S19763   0.182   6.401   5.468  0.9333 -0.0607  0.7607
  174SAPE   C2819764   0.099   6.575   5.358  0.3486 -0.7822  0.3029
  174SAPE   H8R19765   0.145   6.543   5.264 -0.8037  0.6255 -0.7779
  174SAPE   C2919766   0.002   6.662   5.347  0.0770 -0.3927 -0.0709
  174SAPE   H9R19767  -0.013   6.689   5.242  1.7364 -1.0858 -0.5201
  174SAPE  C21019768  -0.084   6.718   5.457  0.2420  0.5727 -0.2718
  174SAPE  H10R19769  -0.032   6.692   5.551  2.9389  0.2446 -1.7465
  174SAPE  H10S19770  -0.176   6.655   5.455  1.1018 -0.7077 -1.0675
  174SAPE  C21119771  -0.123   6.864   5.475 -0.6020  0.3385  0.5600
  174SAPE  H11R19772  -0.095   6.914   5.568 -0.4169  0.9889  0.1607
  174SAPE  C21219773  -0.203   6.929   5.389  0.8673 -0.1305 -0.2354
  174SAPE  H12R19774  -0.237   7.032   5.405 -1.1761 -0.5305 -1.6328
  174SAPE  C21319775  -0.262   6.875   5.261  0.4849 -0.6211 -0.2861
  174SAPE  H13R19776  -0.182   6.821   5.206  0.4686 -2.3388  1.3115
  174SAPE  H13S19777  -0.294   6.967   5.206  2.9010  0.2326 -0.4116
  174SAPE  C21419778  -0.383   6.792   5.289  0.0963  0.5567  0.2727
  174SAPE  H14R19779  -0.391   6.762   5.394 -0.1513 -2.6775 -0.5318
  174SAPE  C21519780  -0.470   6.748   5.195 -0.2760  0.3837  0.5212
  174SAPE  H15R19781  -0.556   6.685   5.221  0.7442 -1.3109 -0.0824
  174SAPE  C21619782  -0.460   6.778   5.049 -0.0540  0.2730  0.7088
  174SAPE  H16R19783  -0.506   6.695   4.992  0.9867  1.0808 -1.3879
  174SAPE  H16S19784  -0.356   6.797   5.014 -0.7529  1.6153 -0.7565
  174SAPE  C21719785  -0.536   6.911   5.017 -0.0897  0.1464 -0.1617
  174SAPE  H17R19786  -0.491   6.987   5.085 -1.5341  0.1646  0.8446
  174SAPE  H17S19787  -0.645   6.903   5.038 -0.2789  2.0735 -0.2105
  174SAPE  C21819788  -0.506   6.975   4.878 -0.2562  0.0980  0.1185
  174SAPE  H18R19789  -0.546   6.910   4.797 -0.4804  0.4672 -0.0690
  174SAPE  H18S19790  -0.396   6.984   4.870 -0.1973  0.4225  1.1797
  174SAPE  C21919791  -0.574   7.112   4.855  0.5038 -0.3083  0.3471
  174SAPE  H19R19792  -0.538   7.183   4.932  2.4916 -0.0028 -0.7906
  174SAPE  H19S19793  -0.685   7.105   4.850  0.5364 -0.0284 -1.2239
  174SAPE  C22019794  -0.525   7.174   4.728 -0.1510  0.1876 -0.3826
  174SAPE  H20R19795  -0.541   7.282   4.709  0.3290  0.0760 -1.5292
  174SAPE  H20S19796  -0.584   7.131   4.643 -0.4228  1.7638 -1.0182
  174SAPE  H20T19797  -0.418   7.148   4.713  0.1866  1.4226 -0.1527
  174SAPE   C3319798   0.757   6.112   5.540  0.0818 -0.4352 -0.3414
  174SAPE   H3X19799   0.657   6.068   5.562 -0.6072  1.4108  0.4076
  174SAPE   H3Y19800   0.836   6.038   5.567  0.7304 -0.0876 -1.2159
  174SAPE   C3419801   0.751   6.131   5.391  0.2698  0.1064  0.3351
  174SAPE   H4X19802   0.768   6.037   5.336  2.1635  0.9309 -0.5877
  174SAPE   H4Y19803   0.833   6.196   5.356 -0.7842 -0.0861 -2.7346
  174SAPE   C3519804   0.620   6.212   5.358  1.1886 -0.3657 -0.3825
  174SAPE   H5X19805   0.622   6.317   5.394  0.6517 -0.4457 -0.1222
  174SAPE   H5Y19806   0.532   6.155   5.393 -1.0923  1.2234 -3.0322
  174SAPE   C3619807   0.611   6.227   5.202 -0.6765 -0.5480  0.5036
  174SAPE   H6X19808   0.608   6.126   5.155 -2.8901 -0.7076  0.8742
  174SAPE   H6Y19809   0.709   6.275   5.183  0.3250 -2.6812 -0.0692
  174SAPE   C3719810   0.499   6.316   5.148 -0.8957 -1.0516 -0.0773
  174SAPE   H7X19811   0.401   6.280   5.186 -1.5076  1.1622  0.5871
  174SAPE   H7Y19812   0.508   6.287   5.041 -1.0916 -3.1854  0.4468
  174SAPE   C3819813   0.527   6.465   5.173 -0.2666  0.5770  0.7617
  174SAPE   H8X19814   0.625   6.496   5.130 -1.4297  0.1128 -2.4502
  174SAPE   H8Y19815   0.527   6.474   5.284  1.1254 -1.4843  0.9932
  174SAPE   C3919816   0.420   6.554   5.103 -0.1829  0.6591  0.3433
  174SAPE   H9X19817   0.440   6.661   5.123  1.1687  1.0230 -2.4503
  174SAPE   H9Y19818   0.328   6.527   5.159  0.2195  0.4955  0.9410
  174SAPE  C31019819   0.412   6.541   4.954  0.1472 -0.2502 -0.2796
  174SAPE  H10X19820   0.363   6.445   4.929 -1.7837  0.3517  0.9136
  174SAPE  H10Y19821   0.515   6.540   4.913  0.9602  1.5206  1.5399
  174SAPE  C31119822   0.328   6.654   4.893  0.0913 -0.3701  0.7487
  174SAPE  H11X19823   0.369   6.753   4.925 -0.0038  0.1013 -0.5350
  174SAPE  H11Y19824   0.222   6.645   4.927 -0.7988  0.2087 -1.6817
  174SAPE  C31219825   0.320   6.657   4.742 -0.3997  0.5440  0.0573
  174SAPE  H12X19826   0.281   6.559   4.706  1.6035 -1.5669  3.0835
  174SAPE  H12Y19827   0.424   6.669   4.706 -0.1628 -1.3794  0.0047
  174SAPE  C31319828   0.236   6.764   4.679  0.8015  0.4197  0.5230
  174SAPE  H13X19829   0.277   6.860   4.715  0.6783  0.8310 -0.4084
  174SAPE  H13Y19830   0.133   6.749   4.719  0.2365  2.5633 -0.0095
  174SAPE  C31419831   0.237   6.765   4.528  1.3529 -0.7244  0.3462
  174SAPE  H14X19832   0.187   6.856   4.488 -0.6030 -1.6750  0.5363
  174SAPE  H14Y19833   0.173   6.681   4.494  0.2705 -0.1251  0.8534
  174SAPE  C31519834   0.371   6.758   4.448 -0.2440 -0.0987  0.3001
  174SAPE  H15X19835   0.425   6.661   4.454 -1.5804 -0.8832 -0.0863
  174SAPE  H15Y19836   0.445   6.830   4.491 -0.0172  0.9610 -1.7566
  174SAPE  C31619837   0.349   6.811   4.304  0.3265  0.6621 -0.1447
  174SAPE  H16X19838   0.271   6.743   4.263  1.0727 -0.8818  0.8767
  174SAPE  H16Y19839   0.443   6.795   4.247 -0.6264 -0.9486 -1.3567
  174SAPE  C31719840   0.305   6.964   4.290  0.1921  0.3761  0.6305
  174SAPE  H17X19841   0.282   7.011   4.388  2.2211 -0.1036  1.3891
  174SAPE  H17Y19842   0.207   6.957   4.237  0.1750 -2.2020  0.9045
  174SAPE  C31819843   0.407   7.052   4.227  0.1225 -0.5900  0.7834
  174SAPE  H18X19844   0.376   7.158   4.241 -1.8217 -0.6954 -1.8964
  174SAPE  H18Y19845   0.395   7.026   4.120 -2.2827 -0.2495  0.9040
  174SAPE  H18Z19846   0.507   7.033   4.269 -0.1379 -2.0300  0.7944
  175SAPE     N19847   3.704   3.982   1.969  0.1112  0.3123  0.7017
  175SAPE   HN119848   3.703   3.884   2.003  3.5990 -0.0479  0.0963
  175SAPE   HN219849   3.645   3.993   1.884 -0.7601 -3.6340  0.5904
  175SAPE   HN319850   3.801   3.996   1.934 -0.6127  2.2923 -0.7055
  175SAPE   C1219851   3.669   4.072   2.086  0.3113  0.5821 -0.0424
  175SAPE  H12A19852   3.691   4.174   2.049 -0.2455  0.5848 -0.3734
  175SAPE  H12B19853   3.726   4.052   2.179  1.4626  0.6840 -0.7017
  175SAPE   C1119854   3.518   4.068   2.119 -0.0536  0.0460  0.2415
  175SAPE  H11A19855   3.503   4.128   2.211  0.7917 -1.1209  1.1681
  175SAPE  H11B19856   3.493   3.966   2.157  0.4443  0.3858  1.5523
  175SAPE     P19857   3.294   4.067   1.996  0.2293  0.1900 -0.2118
  175SAPE   O1319858   3.241   4.129   1.875 -0.1155 -0.5312  0.2454
  175SAPE   O1419859   3.272   3.920   2.007 -0.0813 -0.0791  0.3538
  175SAPE   O1219860   3.439   4.104   2.003  0.0956  0.3135  0.0623
  175SAPE   O1119861   3.233   4.139   2.120 -0.2612 -0.5261 -0.1296
  175SAPE    C119862   3.271   4.277   2.140  0.1468  0.4640 -0.7179
  175SAPE    HA19863   3.380   4.296   2.136  0.0471  1.0735 -0.6249
  175SAPE    HB19864   3.233   4.337   2.055  1.0276  0.2089 -1.2937
  175SAPE    C219865   3.230   4.325   2.284 -0.1938 -0.3236 -0.0676
  175SAPE    HS19866   3.119   4.326   2.293 -0.0223 -0.7117  2.8618
  175SAPE   O2119867   3.279   4.455   2.313  0.1067 -0.0591 -0.1494
  175SAPE   C2119868   3.219   4.565   2.258  0.0390  0.4841 -0.2547
  175SAPE   O2219869   3.112   4.567   2.205  0.1621  0.5944 -0.2614
  175SAPE   C2219870   3.302   4.681   2.304 -0.2837  0.0536 -0.0371
  175SAPE   H2R19871   3.370   4.650   2.387  0.4446  1.6233 -0.0181
  175SAPE   H2S19872   3.370   4.712   2.223 -1.5663 -0.5164 -1.3838
  175SAPE    C319873   3.289   4.234   2.393  0.7027  0.1700 -0.5566
  175SAPE    HX19874   3.399   4.237   2.377  0.7298  0.8686 -0.2804
  175SAPE    HY19875   3.247   4.133   2.378 -0.2908  0.7797 -2.1364
  175SAPE   O3119876   3.266   4.278   2.532 -0.2138 -0.0214 -0.0682
  175SAPE   C3119877   3.145   4.247   2.572  0.1395 -0.6700 -0.9387
  175SAPE   O3219878   3.057   4.205   2.504  0.7233 -0.0512 -0.0561
  175SAPE   C3219879   3.134   4.274   2.725 -0.4480 -0.7523  0.1946
  175SAPE   H2X19880   3.227   4.239   2.775 -0.4574 -0.7277  0.2296
  175SAPE   H2Y19881   3.049   4.211   2.759 -0.9373 -1.3812 -2.0299
  175SAPE   C2319882   3.216   4.801   2.358 -0.0169  0.7576 -0.3652
  175SAPE   H3R19883   3.123   4.818   2.298 -2.2415 -0.5107  2.5173
  175SAPE   H3S19884   3.274   4.895   2.366  1.7878 -0.4467  1.4633
  175SAPE   C2419885   3.168   4.768   2.496  0.7728  0.5588  0.1398
  175SAPE   H4R19886   3.257   4.754   2.561  0.6578 -0.2338  0.1338
  175SAPE   H4S19887   3.109   4.675   2.506  1.8478 -0.1194  0.2305
  175SAPE   C2519888   3.086   4.882   2.551 -0.4148 -0.2894 -0.3066
  175SAPE   H5R19889   2.990   4.912   2.504 -1.3457  1.7549  2.6293
  175SAPE   C2619890   3.107   4.947   2.664  0.1179  0.4582 -0.2677
  175SAPE   H6R19891   3.042   5.032   2.694  0.9990  0.8453  0.6170
  175SAPE   C2719892   3.213   4.919   2.768  0.2099 -0.1539  0.1239
  175SAPE   H7R19893   3.211   4.808   2.773 -3.4596 -0.1446  1.3338
  175SAPE   H7S19894   3.183   4.945   2.871  1.1012 -1.7473  0.8289
  175SAPE   C2819895   3.352   4.962   2.736  0.0568 -0.4798 -0.3356
  175SAPE   H8R19896   3.373   4.962   2.628 -0.7677  3.0563 -0.5954
  175SAPE   C2919897   3.433   5.019   2.825 -0.1416  0.6196 -0.4535
  175SAPE   H9R19898   3.515   5.079   2.783 -0.0439  1.4019  0.8142
  175SAPE  C21019899   3.410   5.046   2.972 -0.1451  0.4069  0.3535
  175SAPE  H10R19900   3.481   4.985   3.031 -0.3176 -0.5240 -0.3905
  175SAPE  H10S19901   3.310   5.014   3.007 -0.4867 -0.4063 -1.2806
  175SAPE  C21119902   3.424   5.191   3.010 -0.5101 -0.2168  0.2506
  175SAPE  H11R19903   3.486   5.259   2.949 -0.2976  0.2550  0.9807
  175SAPE  C21219904   3.395   5.250   3.129 -0.2929  0.1948 -0.0074
  175SAPE  H12R19905   3.407   5.359   3.143 -0.1164 -0.0486  2.0857
  175SAPE  C21319906   3.329   5.177   3.244  0.0607 -0.3341 -0.5346
  175SAPE  H13R19907   3.283   5.082   3.212 -1.6914 -0.4631  2.0914
  175SAPE  H13S19908   3.237   5.228   3.279  1.5562  1.4380  1.0464
  175SAPE  C21419909   3.422   5.141   3.354  0.2304  0.0418 -0.7234
  175SAPE  H14R19910   3.479   5.047   3.340  1.6081  0.8059 -0.4802
  175SAPE  C21519911   3.461   5.204   3.465  0.1958 -0.6238  0.2921
  175SAPE  H15R19912   3.541   5.161   3.526 -1.7974 -0.5703  3.1801
  175SAPE  C21619913   3.412   5.335   3.515 -0.1824 -0.5013 -0.7270
  175SAPE  H16R19914   3.338   5.378   3.444 -0.3252  1.9783  0.8093
  175SAPE  H16S19915   3.495   5.409   3.505 -0.8222  0.2599 -0.5350
  175SAPE  C21719916   3.359   5.327   3.659  0.4592 -0.1940  0.6935
  175SAPE  H17R19917   3.334   5.429   3.696  1.5783 -0.3903  2.0929
  175SAPE  H17S19918   3.448   5.303   3.721  0.9836  1.5883  0.6908
  175SAPE  C21819919   3.232   5.249   3.690 -0.1440  0.2757 -0.0605
  175SAPE  H18R19920   3.265   5.146   3.662  1.7217  1.4575 -2.6095
  175SAPE  H18S19921   3.156   5.287   3.619 -0.5839  1.6897  1.1223
  175SAPE  C21919922   3.175   5.249   3.833 -0.2618 -0.1634  0.3142
  175SAPE  H19R19923   3.246   5.212   3.910  0.5664  0.9214  0.0969
  175SAPE  H19S19924   3.086   5.182   3.828 -0.6614  0.3575  0.4449
  175SAPE  C22019925   3.112   5.385   3.874 -0.2790  0.0895 -0.0946
  175SAPE  H20R19926   3.039   5.423   3.799 -2.1043 -2.5616  0.2184
  175SAPE  H20S19927   3.185   5.467   3.890 -0.4822  0.4471 -0.9362
  175SAPE  H20T19928   3.060   5.370   3.970  0.1818  2.0859  0.5136
  175SAPE   C3319929   3.111   4.418   2.755 -0.2479  0.3661  0.5084
  175SAPE   H3X19930   3.012   4.460   2.727 -0.9006 -2.2565 -1.4516
  175SAPE   H3Y19931   3.191   4.468   2.696  0.8667 -0.6832  1.0772
  175SAPE   C3419932   3.137   4.458   2.899  0.1867  0.2598  0.2611
  175SAPE   H4X19933   3.146   4.568   2.895  0.3101  0.2430  0.0325
  175SAPE   H4Y19934   3.236   4.432   2.941  0.5447  0.2657 -0.5558
  175SAPE   C3519935   3.051   4.399   3.010 -0.4834 -0.4564  0.3984
  175SAPE   H5X19936   3.111   4.428   3.099  1.0124 -1.0398 -0.3910
  175SAPE   H5Y19937   3.059   4.288   3.004  1.3874 -0.3777  0.6503
  175SAPE   C3619938   2.914   4.465   3.015 -0.2283 -0.6061  0.2459
  175SAPE   H6X19939   2.860   4.469   2.918  0.9131 -0.4610 -0.3985
  175SAPE   H6Y19940   2.930   4.572   3.041  0.5340 -0.7213  0.2746
  175SAPE   C3719941   2.822   4.417   3.133  0.4612  0.0914  0.0475
  175SAPE   H7X19942   2.872   4.437   3.230 -1.3161 -0.5677  1.1419
  175SAPE   H7Y19943   2.801   4.310   3.113 -0.3927  0.4370 -1.0835
  175SAPE   C3819944   2.693   4.503   3.128 -0.2284 -0.1227 -0.0500
  175SAPE   H8X19945   2.655   4.516   3.024 -1.7454  1.6387  0.6681
  175SAPE   H8Y19946   2.724   4.604   3.160 -1.2841  0.5312 -1.0019
  175SAPE   C3919947   2.586   4.453   3.231 -0.2197  0.2753  0.1405
  175SAPE   H9X19948   2.626   4.461   3.334  0.0736 -1.5559  0.1976
  175SAPE   H9Y19949   2.566   4.346   3.209 -0.8426  0.2996  0.5712
  175SAPE  C31019950   2.449   4.514   3.217 -0.0760  0.1815 -0.5001
  175SAPE  H10X19951   2.429   4.526   3.109 -1.9590  4.1750  0.0897
  175SAPE  H10Y19952   2.446   4.621   3.249 -0.1285  0.5386 -1.6650
  175SAPE  C31119953   2.341   4.437   3.281 -0.4906 -0.7462 -1.0075
  175SAPE  H11X19954   2.344   4.330   3.251 -0.2245 -0.7593 -0.9349
  175SAPE  H11Y19955   2.236   4.472   3.265 -0.5643 -0.8254 -0.7118
  175SAPE  C31219956   2.352   4.449   3.438  0.4780  0.5257 -0.2145
  175SAPE  H12X19957   2.359   4.554   3.471 -0.0673  0.4600  0.1306
  175SAPE  H12Y19958   2.453   4.417   3.474  0.3481  2.5827  2.3027
  175SAPE  C31319959   2.247   4.363   3.519 -0.2227  0.2795  0.0560
  175SAPE  H13X19960   2.231   4.265   3.470 -0.1599 -0.1868  0.9450
  175SAPE  H13Y19961   2.146   4.409   3.518 -0.8704 -1.0480 -1.6872
  175SAPE  C31419962   2.280   4.341   3.668  0.3321  0.2352  0.1389
  175SAPE  H14X19963   2.303   4.441   3.711  1.1853 -0.1877  0.6853
  175SAPE  H14Y19964   2.379   4.295   3.684  1.3817  1.9389 -1.1275
  175SAPE  C31519965   2.160   4.266   3.736  0.0407  0.2378  0.0643
  175SAPE  H15X19966   2.172   4.160   3.705  0.5919  0.9954 -2.5470
  175SAPE  H15Y19967   2.060   4.309   3.712 -1.0420 -1.6811  0.9761
  175SAPE  C31619968   2.160   4.270   3.897  0.3742  0.0320  0.0776
  175SAPE  H16X19969   2.252   4.224   3.940 -0.4825  0.1003  2.0690
  175SAPE  H16Y19970   2.088   4.196   3.937  1.6486 -1.4628 -0.2718
  175SAPE  C31719971   2.150   4.417   3.951  0.1520  0.1709  0.2319
  175SAPE  H17X19972   2.064   4.474   3.909 -0.9879 -1.3770  0.4087
  175SAPE  H17Y19973   2.242   4.471   3.919 -0.3895  1.9573  1.5635
  175SAPE  C31819974   2.150   4.410   4.099  0.4458 -0.2860 -0.8185
  175SAPE  H18X19975   2.043   4.420   4.128  0.7113  1.2226 -0.2782
  175SAPE  H18Y19976   2.196   4.501   4.142  2.1898 -0.7178 -1.7106
  175SAPE  H18Z19977   2.200   4.319   4.139  0.0762 -1.4589 -2.8864
  176SAPE     N19978   2.184   2.457   2.061 -0.0001 -0.4956  0.0740
  176SAPE   HN119979   2.140   2.500   1.978  1.1453  0.5900  0.0003
  176SAPE   HN219980   2.138   2.364   2.068 -1.3780  0.0605 -1.1174
  176SAPE   HN319981   2.145   2.508   2.143 -2.2370 -1.0801 -0.5684
  176SAPE   C1219982   2.334   2.465   2.039 -0.1764 -0.6609  0.1015
  176SAPE  H12A19983   2.372   2.361   2.030 -0.1177 -0.4562 -3.4636
  176SAPE  H12B19984   2.373   2.507   2.134 -0.2381  1.3742 -0.7098
  176SAPE   C1119985   2.376   2.534   1.908  0.3465  0.4271 -0.3141
  176SAPE  H11A19986   2.315   2.497   1.823  2.6738  0.2012 -1.9828
  176SAPE  H11B19987   2.476   2.493   1.882 -0.1008 -0.9445  0.0498
  176SAPE     P19988   2.493   2.758   1.973  0.6592 -0.4109 -0.3805
  176SAPE   O1319989   2.579   2.668   2.052  0.1533  0.4281 -0.1237
  176SAPE   O1419990   2.546   2.832   1.860  0.1620  0.2886 -0.0174
  176SAPE   O1219991   2.368   2.676   1.921 -0.8009 -0.1354  0.6111
  176SAPE   O1119992   2.415   2.853   2.084  0.2498 -0.0746 -0.5142
  176SAPE    C119993   2.494   2.946   2.156  0.5634 -0.2199 -0.3694
  176SAPE    HA19994   2.576   2.987   2.093  0.2210 -0.4496 -0.9647
  176SAPE    HB19995   2.431   3.033   2.184  0.4401 -0.9556  1.8112
  176SAPE    C219996   2.558   2.894   2.284 -0.4375  0.4662 -0.3034
  176SAPE    HS19997   2.638   2.832   2.240 -0.1819  0.7453 -0.2371
  176SAPE   O2119998   2.463   2.823   2.370  0.0317  0.5016  0.1432
  176SAPE   C2119999   2.518   2.709   2.412  0.0897 -0.3303 -0.3671
  176SAPE   O2220000   2.606   2.643   2.360  0.1803  0.0627 -0.3010
  176SAPE   C2220001   2.454   2.661   2.541  0.1535 -0.0551  0.1710
  176SAPE   H2R20002   2.364   2.720   2.566 -0.8675 -2.3321  2.3947
  176SAPE   H2S20003   2.414   2.559   2.524 -1.2236  0.6096 -0.7225
  176SAPE    C320004   2.628   3.012   2.366 -0.5393 -0.0295 -0.0528
  176SAPE    HX20005   2.544   3.083   2.378 -0.7017  0.0957 -1.6455
  176SAPE    HY20006   2.705   3.056   2.299 -1.4098  2.1690  0.3349
  176SAPE   O3120007   2.692   2.968   2.485 -0.0060 -0.3322  0.2199
  176SAPE   C3120008   2.680   3.053   2.589 -1.0697  0.2100 -0.1598
  176SAPE   O3220009   2.643   3.168   2.584  0.3025 -0.3030 -0.4498
  176SAPE   C3220010   2.732   2.996   2.722 -1.0233 -0.1139  0.0797
  176SAPE   H2X20011   2.840   3.022   2.716 -1.5165  2.0710 -0.0769
  176SAPE   H2Y20012   2.737   2.885   2.721 -0.3532 -0.1190  1.5180
  176SAPE   C2320013   2.566   2.651   2.651 -0.4415  0.0996 -0.0585
  176SAPE   H3R20014   2.577   2.755   2.688 -2.9164  1.0639 -1.7114
  176SAPE   H3S20015   2.665   2.620   2.612  0.9555  2.7359  1.0965
  176SAPE   C2420016   2.530   2.572   2.776 -0.7257 -0.0107  0.3336
  176SAPE   H4R20017   2.618   2.593   2.842 -0.4576  1.5678 -0.4621
  176SAPE   H4S20018   2.541   2.467   2.742 -0.7600  0.4048 -1.0207
  176SAPE   C2520019   2.397   2.581   2.850  0.3240 -0.0654 -1.0773
  176SAPE   H5R20020   2.308   2.532   2.806 -0.3741  0.3516 -0.1675
  176SAPE   C2620021   2.384   2.645   2.970  0.0108  0.2543 -0.4601
  176SAPE   H6R20022   2.290   2.631   3.026 -0.8896  0.8820 -1.7350
  176SAPE   C2720023   2.501   2.714   3.047  0.1109 -0.8307  0.1820
  176SAPE   H7R20024   2.461   2.805   3.097  1.1079 -0.3205  0.0737
  176SAPE   H7S20025   2.581   2.750   2.978  0.6241 -2.7232 -0.2692
  176SAPE   C2820026   2.565   2.623   3.148 -0.4591 -0.6520 -0.4887
  176SAPE   H8R20027   2.565   2.516   3.120  1.1133 -1.6898  2.9444
  176SAPE   C2920028   2.637   2.661   3.260 -1.1662 -0.3729 -0.4655
  176SAPE   H9R20029   2.679   2.596   3.338 -1.4949  1.6462  1.4931
  176SAPE  C21020030   2.656   2.810   3.279  0.2783 -0.0148  0.0015
  176SAPE  H10R20031   2.567   2.835   3.341  0.1439 -2.4956  0.9163
  176SAPE  H10S20032   2.650   2.873   3.187  0.6455 -1.1741 -0.8415
  176SAPE  C21120033   2.782   2.847   3.352  0.2883  0.0132  0.0454
  176SAPE  H11R20034   2.874   2.857   3.293  1.3110 -1.0442  1.4110
  176SAPE  C21220035   2.792   2.874   3.482 -0.6500  0.9807  0.0146
  176SAPE  H12R20036   2.893   2.891   3.522  0.6746 -3.6586 -0.7699
  176SAPE  C21320037   2.686   2.856   3.592  0.5421  0.9504 -0.0633
  176SAPE  H13R20038   2.585   2.890   3.562 -0.0973 -2.8556 -2.9624
  176SAPE  H13S20039   2.716   2.907   3.687 -1.2934 -0.4647  1.3647
  176SAPE  C21420040   2.687   2.706   3.634 -0.3424  0.4870  0.3842
  176SAPE  H14R20041   2.749   2.636   3.576 -3.6367 -1.0775 -1.5422
  176SAPE  C21520042   2.597   2.663   3.728  0.0171 -0.1480 -0.1720
  176SAPE  H15R20043   2.583   2.555   3.742 -1.2081  0.0692  0.4881
  176SAPE  C21620044   2.494   2.752   3.791  0.1939  0.0800  0.7043
  176SAPE  H16R20045   2.396   2.700   3.777  0.2587  0.6116 -2.5375
  176SAPE  H16S20046   2.470   2.841   3.728 -0.7252 -0.3067  0.4912
  176SAPE  C21720047   2.530   2.774   3.937 -0.1762  0.0176 -0.3385
  176SAPE  H17R20048   2.556   2.679   3.989 -1.9719 -1.6908 -2.4126
  176SAPE  H17S20049   2.437   2.823   3.971  0.8220  2.9344 -1.5241
  176SAPE  C21820050   2.644   2.881   3.948  0.4171 -0.3881  0.3859
  176SAPE  H18R20051   2.600   2.970   3.899  0.2552  0.4303  1.9392
  176SAPE  H18S20052   2.738   2.853   3.895  1.1298  0.0245  1.3782
  176SAPE  C21920053   2.684   2.918   4.090 -0.2751 -0.3632  0.1997
  176SAPE  H19R20054   2.709   2.823   4.142 -0.9841  1.2699  3.8294
  176SAPE  H19S20055   2.597   2.952   4.151 -0.4908 -1.4292  0.5091
  176SAPE  C22020056   2.798   3.011   4.109  0.2429  0.3272  0.0384
  176SAPE  H20R20057   2.890   2.976   4.057  0.0927  1.2244 -0.8697
  176SAPE  H20S20058   2.823   3.035   4.215 -0.6258 -1.7688  0.7658
  176SAPE  H20T20059   2.778   3.112   4.067  0.2107 -0.3560 -1.6741
  176SAPE   C3320060   2.689   3.070   2.849 -0.6709  0.3523 -0.7777
  176SAPE   H3X20061   2.590   3.028   2.878  0.8059 -1.8776  1.4468
  176SAPE   H3Y20062   2.670   3.175   2.819 -2.3447  0.7737  1.5516
  176SAPE   C3420063   2.787   3.059   2.968  0.1964 -0.7543  0.5373
  176SAPE   H4X20064   2.886   3.100   2.936  0.4100  1.2903  3.3923
  176SAPE   H4Y20065   2.801   2.952   2.993 -0.8103 -1.2435 -0.8826
  176SAPE   C3520066   2.757   3.142   3.091 -0.5599 -0.6626 -0.2834
  176SAPE   H5X20067   2.670   3.099   3.146 -0.0315  1.1861  2.1385
  176SAPE   H5Y20068   2.718   3.242   3.062  0.2201 -1.0522 -2.9256
  176SAPE   C3620069   2.877   3.150   3.182  0.7217  0.6331 -0.2158
  176SAPE   H6X20070   2.965   3.196   3.131 -0.3248  0.2479 -2.4782
  176SAPE   H6Y20071   2.897   3.043   3.203 -1.6597  0.2040  0.1683
  176SAPE   C3720072   2.845   3.212   3.320 -0.0319 -0.0548  0.2700
  176SAPE   H7X20073   2.747   3.181   3.362 -0.6590  1.0233 -0.3468
  176SAPE   H7Y20074   2.817   3.314   3.286  0.8187 -0.0807 -0.5407
  176SAPE   C3820075   2.962   3.208   3.416  0.1633  0.1473  0.4531
  176SAPE   H8X20076   3.052   3.251   3.369 -1.0756  0.9759 -1.2569
  176SAPE   H8Y20077   2.997   3.105   3.438  2.1668  1.0310  1.6337
  176SAPE   C3920078   2.936   3.269   3.551 -0.5371 -0.2106 -0.6907
  176SAPE   H9X20079   2.840   3.226   3.589 -0.1679 -0.4382  0.0115
  176SAPE   H9Y20080   2.909   3.377   3.548 -0.6647 -0.1982  0.2999
  176SAPE  C31020081   3.057   3.239   3.646 -0.0171 -0.1156  0.7361
  176SAPE  H10X20082   3.133   3.315   3.622 -0.6665  0.2051 -0.3827
  176SAPE  H10Y20083   3.108   3.142   3.627  0.6240  0.0918  1.3829
  176SAPE  C31120084   3.026   3.237   3.792 -0.8476  0.3936 -0.6385
  176SAPE  H11X20085   2.993   3.133   3.813  1.6554 -0.2484  0.5721
  176SAPE  H11Y20086   2.955   3.318   3.818 -0.6910  0.4970 -0.5292
  176SAPE  C31220087   3.156   3.261   3.877 -0.1308  0.2637  0.2280
  176SAPE  H12X20088   3.182   3.369   3.875  0.7892  0.0518 -0.8943
  176SAPE  H12Y20089   3.245   3.208   3.836 -0.7318  0.6995 -1.7374
  176SAPE  C31320090   3.154   3.224   4.023 -0.5777 -0.1662 -0.3343
  176SAPE  H13X20091   3.205   3.126   4.031 -1.0454 -0.3683  0.3597
  176SAPE  H13Y20092   3.050   3.205   4.058  0.2593 -2.1558  1.3320
  176SAPE  C31420093   3.212   3.330   4.124  0.3639  0.0898  0.6197
  176SAPE  H14X20094   3.153   3.424   4.134  2.4487  1.4871  0.4733
  176SAPE  H14Y20095   3.315   3.360   4.095  1.0790 -1.4742  1.4686
  176SAPE  C31520096   3.239   3.276   4.265  0.2279 -0.1767 -0.0235
  176SAPE  H15X20097   3.305   3.347   4.320  0.2015 -1.0946  1.2416
  176SAPE  H15Y20098   3.293   3.179   4.271 -1.5534 -1.1454  1.2499
  176SAPE  C31620099   3.095   3.270   4.336  0.1902 -0.1625  0.4986
  176SAPE  H16X20100   3.045   3.194   4.271  2.0096 -1.3423  0.4091
  176SAPE  H16Y20101   3.044   3.368   4.333 -1.8328 -1.1782 -0.6794
  176SAPE  C31720102   3.098   3.212   4.479 -0.1343  1.0449  0.8891
  176SAPE  H17X20103   3.135   3.287   4.552  1.6266  0.6097  0.5061
  176SAPE  H17Y20104   3.155   3.118   4.495 -0.6392  0.6774  0.5558
  176SAPE  C31820105   2.954   3.180   4.512  0.1734  0.5740 -0.0371
  176SAPE  H18X20106   2.915   3.108   4.437  1.4466 -0.9717  0.7227
  176SAPE  H18Y20107   2.898   3.275   4.505 -2.1665 -0.8377 -3.3091
  176SAPE  H18Z20108   2.934   3.131   4.609  0.1285 -2.8417 -1.6188
  177SAPE     N20109   2.749   2.126   1.851 -0.4040  0.1956  0.3861
  177SAPE   HN120110   2.681   2.153   1.925  0.8129  0.0132  1.6129
  177SAPE   HN220111   2.707   2.128   1.756 -1.0444  0.7848  0.6676
  177SAPE   HN320112   2.773   2.025   1.856  2.8459  0.7718 -0.9646
  177SAPE   C1220113   2.882   2.190   1.868  0.5419 -1.1112 -0.6368
  177SAPE  H12A20114   2.873   2.297   1.841  0.8313 -0.5603  1.3432
  177SAPE  H12B20115   2.958   2.148   1.798 -0.4045 -0.8969 -1.8269
  177SAPE   C1120116   2.950   2.155   1.998 -0.5264  0.6623 -0.2748
  177SAPE  H11A20117   2.877   2.183   2.077  1.7860  0.5112  2.0432
  177SAPE  H11B20118   3.042   2.215   2.014 -1.3583  2.5484 -2.1494
  177SAPE     P20119   3.105   1.954   1.967 -0.2416  0.0149  0.1050
  177SAPE   O1320120   3.114   1.806   1.984 -0.0510 -0.5129  0.6184
  177SAPE   O1420121   3.147   2.014   1.842  0.0777 -0.2778 -0.3915
  177SAPE   O1220122   2.962   2.009   2.006 -0.3039  0.0849 -0.1724
  177SAPE   O1120123   3.203   2.018   2.070 -0.1293 -0.7653  0.6110
  177SAPE    C120124   3.246   1.941   2.185 -0.4975  0.3883  0.4873
  177SAPE    HA20125   3.287   1.843   2.154  0.3878  1.0209 -0.4202
  177SAPE    HB20126   3.328   1.994   2.237  1.6127 -3.8572  1.9060
  177SAPE    C220127   3.131   1.929   2.290  0.1522  0.8452  0.3249
  177SAPE    HS20128   3.044   1.882   2.240 -0.6154  1.6640  0.8612
  177SAPE   O2120129   3.101   2.061   2.340  0.3273 -0.2770  0.0301
  177SAPE   C2120130   2.969   2.077   2.364 -0.3329  0.1157 -0.0494
  177SAPE   O2220131   2.880   1.994   2.347  0.0100 -0.4009  0.0079
  177SAPE   C2220132   2.950   2.219   2.420 -0.6281 -0.2421 -0.0517
  177SAPE   H2R20133   3.026   2.237   2.499 -1.2625  0.3710  0.4380
  177SAPE   H2S20134   2.992   2.294   2.349 -0.4122 -1.1393 -0.8945
  177SAPE    C320135   3.179   1.827   2.403  0.7932 -0.3819  0.0271
  177SAPE    HX20136   3.272   1.871   2.444  2.3179 -2.0271 -1.4471
  177SAPE    HY20137   3.213   1.728   2.365  0.3612  0.4587 -2.7509
  177SAPE   O3120138   3.085   1.818   2.519  0.1011 -0.7041  0.1019
  177SAPE   C3120139   2.981   1.732   2.509 -0.1789 -0.1521  0.0878
  177SAPE   O3220140   2.973   1.640   2.430  0.1678  0.4700  0.0836
  177SAPE   C3220141   2.880   1.768   2.617 -0.1704  0.4434  0.2901
  177SAPE   H2X20142   2.830   1.864   2.592 -2.5483 -1.1204 -1.3468
  177SAPE   H2Y20143   2.934   1.772   2.714  0.3805  0.4985 -0.0159
  177SAPE   C2320144   2.807   2.250   2.459 -0.1210  0.3580  0.7445
  177SAPE   H3R20145   2.746   2.198   2.382 -0.3879  1.9477 -0.1598
  177SAPE   H3S20146   2.786   2.359   2.451 -0.3430  0.4269  2.0005
  177SAPE   C2420147   2.758   2.215   2.602  0.3447 -0.2820  0.2520
  177SAPE   H4R20148   2.779   2.106   2.617 -0.9782 -0.7781 -1.2686
  177SAPE   H4S20149   2.650   2.239   2.607  0.3441 -0.4354  3.5097
  177SAPE   C2520150   2.821   2.284   2.720  0.2924  0.0135  0.2154
  177SAPE   H5R20151   2.894   2.364   2.699 -0.2622  1.0847  2.1553
  177SAPE   C2620152   2.803   2.242   2.844  0.2054 -0.0755 -0.1977
  177SAPE   H6R20153   2.845   2.303   2.926 -1.6666  0.0562  0.7141
  177SAPE   C2720154   2.717   2.121   2.882  0.0944 -0.0177  0.0897
  177SAPE   H7R20155   2.640   2.099   2.806  0.5171  0.1025 -0.3746
  177SAPE   H7S20156   2.658   2.146   2.973 -0.0550 -0.0466  0.0013
  177SAPE   C2820157   2.806   2.001   2.890 -0.7074  0.3569  0.7611
  177SAPE   H8R20158   2.832   1.954   2.794  0.1324  1.7963  0.2474
  177SAPE   C2920159   2.853   1.952   3.007  0.2961 -0.2576  0.5759
  177SAPE   H9R20160   2.926   1.871   3.018  0.6319  0.2122  1.9956
  177SAPE  C21020161   2.812   2.009   3.145  0.2958 -0.5934 -0.0530
  177SAPE  H10R20162   2.804   2.119   3.129  0.5270 -0.6923 -0.8840
  177SAPE  H10S20163   2.897   1.982   3.211  2.9375  2.0345 -2.1268
  177SAPE  C21120164   2.679   1.961   3.196  0.0487  0.1377  0.5639
  177SAPE  H11R20165   2.585   1.993   3.148 -0.9515 -0.0953  2.2826
  177SAPE  C21220166   2.660   1.880   3.306 -0.2799  0.0426 -0.4297
  177SAPE  H12R20167   2.573   1.814   3.323  1.4944 -1.7080  2.8164
  177SAPE  C21320168   2.781   1.848   3.393 -0.1658  0.1409  0.4879
  177SAPE  H13R20169   2.824   1.946   3.421 -0.2424  0.4013 -0.2842
  177SAPE  H13S20170   2.848   1.780   3.335 -0.2019  1.6638 -1.4507
  177SAPE  C21420171   2.748   1.773   3.523 -0.8454 -0.3995 -1.0260
  177SAPE  H14R20172   2.741   1.664   3.513  1.7456 -0.6882 -0.3867
  177SAPE  C21520173   2.711   1.818   3.637  0.3790 -0.0897  0.4091
  177SAPE  H15R20174   2.700   1.748   3.721  0.8711 -0.1100  0.4613
  177SAPE  C21620175   2.688   1.961   3.677  0.5248  0.2517  0.6964
  177SAPE  H16R20176   2.582   1.991   3.661  0.0560 -2.0516 -1.0224
  177SAPE  H16S20177   2.750   2.035   3.622 -1.6400  0.4373 -1.6697
  177SAPE  C21720178   2.703   1.965   3.836  0.6267  0.3868  0.0618
  177SAPE  H17R20179   2.644   1.895   3.898  0.5002 -0.2445 -0.7557
  177SAPE  H17S20180   2.664   2.068   3.854 -0.8754 -0.0387 -0.6277
  177SAPE  C21820181   2.848   1.965   3.892  0.0295 -0.4904  0.1555
  177SAPE  H18R20182   2.922   2.005   3.819  1.3515  0.2262  1.8192
  177SAPE  H18S20183   2.869   1.858   3.911 -0.1166 -0.3958  0.8771
  177SAPE  C21920184   2.868   2.046   4.016 -0.6368  0.1553 -0.0787
  177SAPE  H19R20185   2.812   1.997   4.099  0.2452 -1.4675 -0.4190
  177SAPE  H19S20186   2.832   2.150   3.997  2.3286  1.5301  1.1916
  177SAPE  C22020187   3.016   2.056   4.062  0.9783  0.6176  0.0637
  177SAPE  H20R20188   3.039   2.125   4.146  0.6138  0.8709 -0.0446
  177SAPE  H20S20189   3.092   2.086   3.986  0.4205 -0.1660 -0.8195
  177SAPE  H20T20190   3.044   1.955   4.099 -2.9623 -1.0650 -1.0900
  177SAPE   C3320191   2.776   1.661   2.621 -0.2987  0.1197 -0.0425
  177SAPE   H3X20192   2.821   1.562   2.599 -2.2840 -0.7734 -0.3597
  177SAPE   H3Y20193   2.703   1.682   2.539 -0.0367  0.1150 -0.2785
  177SAPE   C3420194   2.702   1.643   2.757  0.3627 -0.1123 -0.9510
  177SAPE   H4X20195   2.639   1.733   2.774 -0.6431 -0.7679 -1.0817
  177SAPE   H4Y20196   2.773   1.640   2.843 -1.2375 -0.6390  0.4332
  177SAPE   C3520197   2.613   1.517   2.764 -0.5302  0.9033 -0.0413
  177SAPE   H5X20198   2.682   1.430   2.772 -1.6800  0.0852  1.3028
  177SAPE   H5Y20199   2.560   1.500   2.668 -1.4593  1.5469  0.3427
  177SAPE   C3620200   2.509   1.530   2.876  0.7245 -0.0072 -0.0581
  177SAPE   H6X20201   2.557   1.552   2.974  1.0278 -3.7747  0.8004
  177SAPE   H6Y20202   2.456   1.433   2.892  0.9512 -0.1638 -0.2547
  177SAPE   C3720203   2.395   1.633   2.858  1.0003 -0.1098  0.1135
  177SAPE   H7X20204   2.338   1.613   2.764  1.3878 -0.2576 -0.0940
  177SAPE   H7Y20205   2.436   1.734   2.838  1.0192 -0.4523 -1.8142
  177SAPE   C3820206   2.292   1.638   2.969 -0.4048  0.5494  0.4562
  177SAPE   H8X20207   2.270   1.539   3.014  5.3459 -0.4230  1.9444
  177SAPE   H8Y20208   2.199   1.673   2.920 -1.5932 -1.5049  1.1345
  177SAPE   C3920209   2.326   1.734   3.086  0.4853 -0.2413  0.2468
  177SAPE   H9X20210   2.341   1.836   3.046  0.6289 -1.0563 -1.9495
  177SAPE   H9Y20211   2.420   1.700   3.134  0.3655  1.0641  1.4385
  177SAPE  C31020212   2.208   1.724   3.193 -0.5768  0.5653  0.5715
  177SAPE  H10X20213   2.207   1.620   3.232 -0.3356  1.1511  2.2065
  177SAPE  H10Y20214   2.108   1.739   3.148 -0.7313  1.8684  1.3041
  177SAPE  C31120215   2.236   1.822   3.309  0.0262  0.2397  0.4544
  177SAPE  H11X20216   2.243   1.923   3.264  0.2126 -0.0000 -0.0603
  177SAPE  H11Y20217   2.336   1.795   3.349  0.3185  0.5052 -0.0895
  177SAPE  C31220218   2.138   1.810   3.424  0.2214  0.0787  0.1739
  177SAPE  H12X20219   2.115   1.702   3.437 -0.5108 -0.3031 -3.2949
  177SAPE  H12Y20220   2.045   1.867   3.404 -0.8622 -1.5015  0.4829
  177SAPE  C31320221   2.179   1.846   3.564  0.1062  0.2747 -0.0353
  177SAPE  H13X20222   2.112   1.802   3.640  1.5892  0.7147  1.5854
  177SAPE  H13Y20223   2.189   1.957   3.571 -0.2107  0.3744 -1.0193
  177SAPE  C31420224   2.317   1.787   3.604  0.1949 -0.2737  0.3858
  177SAPE  H14X20225   2.399   1.835   3.546 -0.4233 -0.5965 -0.7869
  177SAPE  H14Y20226   2.306   1.678   3.581  1.6080 -0.5703  0.9944
  177SAPE  C31520227   2.344   1.777   3.758 -0.2998  0.2064 -0.5714
  177SAPE  H15X20228   2.444   1.735   3.783  0.1249  1.1248 -0.7034
  177SAPE  H15Y20229   2.264   1.705   3.787  0.4192 -0.8240 -1.0661
  177SAPE  C31620230   2.324   1.901   3.844 -0.1032  0.0969 -0.0354
  177SAPE  H16X20231   2.233   1.951   3.803 -0.6606 -1.1566 -0.3856
  177SAPE  H16Y20232   2.419   1.958   3.834  0.3579 -0.8246 -1.1359
  177SAPE  C31720233   2.292   1.869   3.987  0.0848  0.0036 -0.5555
  177SAPE  H17X20234   2.206   1.799   4.000 -1.5429  2.1383  0.8351
  177SAPE  H17Y20235   2.270   1.963   4.042  0.6745  1.1762 -2.2545
  177SAPE  C31820236   2.410   1.803   4.056  0.4947 -0.3488 -0.3222
  177SAPE  H18X20237   2.458   1.724   3.995  2.5208  0.4665  0.1351
  177SAPE  H18Y20238   2.377   1.770   4.157  1.1323 -2.9336 -0.9000
  177SAPE  H18Z20239   2.482   1.887   4.065 -0.0536  0.2214 -1.1518
  178SAPE     N20240   2.660   4.454   2.214 -0.2548  0.1148 -0.2995
  178SAPE   HN120241   2.763   4.444   2.223 -0.1820  0.7476 -0.3257
  178SAPE   HN220242   2.624   4.461   2.312  2.2262 -0.3611  0.7301
  178SAPE   HN320243   2.627   4.366   2.170  2.8573 -0.9204 -0.8263
  178SAPE   C1220244   2.606   4.573   2.134 -0.0974  0.1183  0.1222
  178SAPE  H12A20245   2.669   4.572   2.042 -0.9127 -0.4601 -0.4484
  178SAPE  H12B20246   2.629   4.669   2.185  0.8895  0.9483 -1.7756
  178SAPE   C1120247   2.457   4.554   2.091  0.4125 -0.5876  0.1051
  178SAPE  H11A20248   2.422   4.655   2.060 -0.2370 -0.8728 -0.1137
  178SAPE  H11B20249   2.393   4.525   2.177  2.3647 -0.1834  1.7709
  178SAPE     P20250   2.407   4.321   1.994 -0.8743  0.1070  0.1922
  178SAPE   O1320251   2.377   4.259   1.863 -0.2635  0.6403  0.2223
  178SAPE   O1420252   2.513   4.263   2.078 -0.3671  0.1720 -0.5291
  178SAPE   O1220253   2.446   4.471   1.972 -0.1140 -0.1038  0.1590
  178SAPE   O1120254   2.268   4.339   2.082  0.2446  0.9133  0.0160
  178SAPE    C120255   2.144   4.375   2.013 -0.1281 -0.4022 -0.7995
  178SAPE    HA20256   2.146   4.341   1.907 -0.9838 -3.6596  0.1314
  178SAPE    HB20257   2.067   4.334   2.081  0.8278  1.0962  1.2866
  178SAPE    C220258   2.104   4.526   2.024 -0.4330  0.0331  0.1395
  178SAPE    HS20259   2.180   4.581   1.965 -2.2019  2.3102 -0.1554
  178SAPE   O2120260   2.119   4.570   2.157 -0.1173 -0.5777  0.0803
  178SAPE   C2120261   2.128   4.697   2.166 -0.4725 -0.0403  0.7600
  178SAPE   O2220262   2.147   4.781   2.078 -0.6765 -0.1924  0.3188
  178SAPE   C2220263   2.123   4.733   2.315 -0.0524  0.4481 -0.6622
  178SAPE   H2R20264   2.033   4.679   2.352  2.1458 -2.5875  0.6531
  178SAPE   H2S20265   2.217   4.695   2.360 -1.5566 -0.3850  1.9605
  178SAPE    C320266   1.965   4.559   1.960  0.2384  0.5793 -0.1227
  178SAPE    HX20267   1.976   4.518   1.858 -1.7479 -0.8644  0.1670
  178SAPE    HY20268   1.955   4.668   1.942  1.4393  0.8042  0.4519
  178SAPE   O3120269   1.852   4.505   2.033  0.1681 -0.2206 -0.0541
  178SAPE   C3120270   1.810   4.582   2.133 -0.3245 -0.3187 -0.4608
  178SAPE   O3220271   1.844   4.697   2.150  0.5163 -0.1534  1.0950
  178SAPE   C3220272   1.703   4.514   2.220 -0.3504 -0.3172 -0.8643
  178SAPE   H2X20273   1.742   4.412   2.241 -1.5552 -0.1505  2.9163
  178SAPE   H2Y20274   1.611   4.506   2.158 -0.2082 -0.3407 -1.0712
  178SAPE   C2320275   2.098   4.882   2.334 -0.2334 -0.7207 -1.1325
  178SAPE   H3R20276   2.014   4.910   2.267 -1.7616  0.8357  1.3066
  178SAPE   H3S20277   2.194   4.919   2.290 -0.1461 -0.5487 -0.7982
  178SAPE   C2420278   2.109   4.928   2.481 -0.3856  0.2972  0.0492
  178SAPE   H4R20279   2.130   5.037   2.484  0.6335  0.1068  0.4298
  178SAPE   H4S20280   2.194   4.882   2.535  0.9148 -0.1023 -2.1950
  178SAPE   C2520281   1.978   4.900   2.554  0.0547 -0.2904  0.0698
  178SAPE   H5R20282   1.890   4.888   2.489 -0.8683 -0.1678  1.2641
  178SAPE   C2620283   1.955   4.898   2.685 -0.0717 -0.0110 -0.5612
  178SAPE   H6R20284   1.853   4.867   2.715  0.3890 -0.7949  0.2665
  178SAPE   C2720285   2.047   4.915   2.802  0.1055  0.2548 -0.4341
  178SAPE   H7R20286   2.139   4.950   2.750  0.3620 -0.0945 -0.2177
  178SAPE   H7S20287   2.076   4.814   2.840  1.5144  1.1456  0.9797
  178SAPE   C2820288   2.019   5.005   2.916 -0.3682  0.3572  0.1941
  178SAPE   H8R20289   2.015   5.110   2.884 -2.1355  0.5962  1.0685
  178SAPE   C2920290   1.986   4.970   3.043  0.4812  0.4457 -0.5089
  178SAPE   H9R20291   1.950   5.045   3.115  0.3905  0.6238 -0.7368
  178SAPE  C21020292   1.978   4.830   3.103 -0.0255 -0.4834  0.3991
  178SAPE  H10R20293   1.939   4.758   3.028  0.0238  0.2014 -0.3090
  178SAPE  H10S20294   1.892   4.827   3.172 -1.1001 -0.4551 -0.8950
  178SAPE  C21120295   2.111   4.780   3.157  0.6062 -0.5276  0.4207
  178SAPE  H11R20296   2.185   4.737   3.089 -0.6098 -3.3410  0.7578
  178SAPE  C21220297   2.141   4.770   3.289  0.2204 -0.1350 -0.4190
  178SAPE  H12R20298   2.246   4.754   3.320  0.8714  2.1885 -1.2142
  178SAPE  C21320299   2.052   4.803   3.414  0.7950  1.1455  1.0500
  178SAPE  H13R20300   2.054   4.722   3.489 -2.5643  0.2943  0.3848
  178SAPE  H13S20301   1.946   4.806   3.382  0.6141 -0.3741  1.4449
  178SAPE  C21420302   2.078   4.928   3.496 -0.1934  0.3328 -0.1577
  178SAPE  H14R20303   2.042   5.024   3.454 -0.2789  0.0536 -0.7424
  178SAPE  C21520304   2.170   4.944   3.593 -0.4659 -0.2690 -0.1401
  178SAPE  H15R20305   2.181   5.044   3.637 -0.0110 -1.4265  2.6042
  178SAPE  C21620306   2.263   4.838   3.658  0.6938 -0.2291  0.1943
  178SAPE  H16R20307   2.354   4.884   3.703  0.8329 -1.3749  1.1062
  178SAPE  H16S20308   2.310   4.786   3.571 -1.3450 -0.6974 -0.6792
  178SAPE  C21720309   2.190   4.738   3.745 -0.3118 -0.6242 -0.6089
  178SAPE  H17R20310   2.259   4.658   3.778  1.5905  1.7193  1.4184
  178SAPE  H17S20311   2.104   4.691   3.692 -0.0086 -1.1908 -0.6061
  178SAPE  C21820312   2.144   4.811   3.879  0.8161 -0.2874  0.3405
  178SAPE  H18R20313   2.079   4.745   3.941  1.0655 -0.3222  0.5656
  178SAPE  H18S20314   2.084   4.902   3.856  0.4316 -1.0882 -2.0687
  178SAPE  C21920315   2.264   4.852   3.962  0.4350 -0.3127 -0.0897
  178SAPE  H19R20316   2.310   4.945   3.922 -0.7023  0.5695  0.5767
  178SAPE  H19S20317   2.341   4.772   3.968  1.8271  0.7067 -2.8156
  178SAPE  C22020318   2.216   4.873   4.106 -0.4639  0.5172  0.6207
  178SAPE  H20R20319   2.182   4.778   4.153 -2.0137  0.5857 -0.2845
  178SAPE  H20S20320   2.129   4.942   4.107 -0.9938 -0.1000 -1.0490
  178SAPE  H20T20321   2.299   4.922   4.162 -0.0931 -1.3812  1.8360
  178SAPE   C3320322   1.682   4.583   2.357 -0.1432  0.2199  0.1240
  178SAPE   H3X20323   1.657   4.690   2.337 -1.0021  0.4279  2.1204
  178SAPE   H3Y20324   1.773   4.577   2.420  0.3633 -0.5331 -0.6541
  178SAPE   C3420325   1.569   4.531   2.434 -0.0882 -0.0031  0.1693
  178SAPE   H4X20326   1.585   4.422   2.454 -1.3665 -0.1687  0.3546
  178SAPE   H4Y20327   1.477   4.536   2.372 -0.2345  0.3193  0.4127
  178SAPE   C3520328   1.561   4.602   2.569 -0.7361  0.5527 -0.6194
  178SAPE   H5X20329   1.460   4.597   2.615  0.2892 -1.0145  1.6490
  178SAPE   H5Y20330   1.586   4.709   2.556 -0.7269  0.5698 -0.4569
  178SAPE   C3620331   1.660   4.555   2.680 -0.2741  0.1228 -0.3264
  178SAPE   H6X20332   1.758   4.603   2.660 -0.1691  0.0032 -0.1096
  178SAPE   H6Y20333   1.669   4.444   2.673  0.2173 -0.1129  2.5863
  178SAPE   C3720334   1.607   4.589   2.827  0.3138  0.1571  0.9795
  178SAPE   H7X20335   1.503   4.549   2.832 -0.1544  1.4278  1.7720
  178SAPE   H7Y20336   1.596   4.699   2.832 -0.8697  0.0999 -0.0033
  178SAPE   C3820337   1.699   4.540   2.942 -0.2602 -0.2226  0.3654
  178SAPE   H8X20338   1.790   4.599   2.920  0.1005  0.2861  2.9443
  178SAPE   H8Y20339   1.713   4.430   2.931  4.2452  0.3296 -1.7331
  178SAPE   C3920340   1.654   4.592   3.079  0.0359 -0.6659 -0.3623
  178SAPE   H9X20341   1.548   4.570   3.103  0.5488 -1.1397  1.6601
  178SAPE   H9Y20342   1.669   4.702   3.079  1.2388 -0.7980  1.2326
  178SAPE  C31020343   1.742   4.534   3.190  0.2936  0.4423 -0.5395
  178SAPE  H10X20344   1.847   4.566   3.173  0.3648 -0.7087 -2.5486
  178SAPE  H10Y20345   1.740   4.423   3.186  2.5479  0.4049 -2.0856
  178SAPE  C31120346   1.700   4.603   3.323  0.7527 -0.1064 -0.6784
  178SAPE  H11X20347   1.590   4.602   3.335  0.9433  1.6629  2.5052
  178SAPE  H11Y20348   1.731   4.710   3.330 -0.0970  0.0144  2.3012
  178SAPE  C31220349   1.754   4.521   3.445 -0.1219 -0.3559  0.3952
  178SAPE  H12X20350   1.865   4.512   3.438 -0.0357  0.2087  0.8614
  178SAPE  H12Y20351   1.723   4.417   3.425  1.1765 -0.5000 -1.0430
  178SAPE  C31320352   1.701   4.571   3.580 -0.1252  0.4754  0.1215
  178SAPE  H13X20353   1.591   4.569   3.587 -0.2347  2.0836 -0.7000
  178SAPE  H13Y20354   1.730   4.677   3.597  2.0036 -0.0768  0.3100
  178SAPE  C31420355   1.757   4.482   3.698 -0.2015 -0.0678 -0.2605
  178SAPE  H14X20356   1.864   4.500   3.722 -0.1421 -1.3047  0.5238
  178SAPE  H14Y20357   1.747   4.378   3.659 -0.8370  0.3173 -1.1365
  178SAPE  C31520358   1.687   4.487   3.838  0.0904  0.1998 -0.0118
  178SAPE  H15X20359   1.579   4.472   3.819 -0.5061  4.3938 -1.0709
  178SAPE  H15Y20360   1.699   4.591   3.875 -1.1872 -0.0720  1.2374
  178SAPE  C31620361   1.755   4.389   3.937  0.1706 -0.0929  0.4427
  178SAPE  H16X20362   1.856   4.429   3.962  0.6893 -1.2179  0.2146
  178SAPE  H16Y20363   1.757   4.287   3.894 -1.1605 -0.0430  0.2310
  178SAPE  C31720364   1.665   4.364   4.062 -0.1960 -0.7929 -0.4360
  178SAPE  H17X20365   1.605   4.455   4.081 -1.1600 -1.2298 -1.3207
  178SAPE  H17Y20366   1.730   4.357   4.152 -0.3482 -1.1847 -0.3567
  178SAPE  C31820367   1.575   4.244   4.046 -0.4587  0.2165  0.2407
  178SAPE  H18X20368   1.508   4.236   4.134  2.6750 -2.0270  2.6810
  178SAPE  H18Y20369   1.635   4.150   4.050 -3.1525 -1.6092  0.8411
  178SAPE  H18Z20370   1.521   4.227   3.950  1.0341 -1.4485 -0.3757
  179SAPE     N20371   1.731   1.263   1.593  0.1936 -0.4222  0.5616
  179SAPE   HN120372   1.780   1.209   1.519 -1.7113  0.8902 -1.8368
  179SAPE   HN220373   1.707   1.216   1.682 -0.9008  1.8484  1.5517
  179SAPE   HN320374   1.644   1.287   1.542  0.6824  0.3165  0.0442
  179SAPE   C1220375   1.808   1.396   1.610  0.0554 -0.0001 -0.3058
  179SAPE  H12A20376   1.779   1.464   1.527 -0.1012  2.3501  1.5334
  179SAPE  H12B20377   1.913   1.362   1.599 -0.1826 -0.1246 -2.4987
  179SAPE   C1120378   1.779   1.468   1.744 -0.0372  0.2311 -0.2227
  179SAPE  H11A20379   1.685   1.527   1.734 -0.5113 -0.6754 -1.3767
  179SAPE  H11B20380   1.865   1.538   1.750  0.0428  0.0368  1.3758
  179SAPE     P20381   1.699   1.412   1.994 -0.2708 -0.0731 -0.3265
  179SAPE   O1320382   1.577   1.487   1.976  0.3148 -0.0456  0.3324
  179SAPE   O1420383   1.693   1.290   2.074 -0.0095  0.2473 -0.1476
  179SAPE   O1220384   1.767   1.373   1.851 -0.4573 -0.5023 -0.8801
  179SAPE   O1120385   1.818   1.505   2.049 -0.2128 -0.1367 -0.1190
  179SAPE    C120386   1.924   1.447   2.126 -0.5402  0.1020 -0.2336
  179SAPE    HA20387   1.950   1.345   2.092  0.3371  0.1615  0.2249
  179SAPE    HB20388   2.010   1.514   2.101 -1.6296  2.0909  1.0511
  179SAPE    C220389   1.907   1.456   2.277 -0.1182 -0.1565 -0.5242
  179SAPE    HS20390   1.825   1.385   2.302 -0.6192  0.0436 -1.5623
  179SAPE   O2120391   1.870   1.591   2.320  0.6298  0.5462 -0.1391
  179SAPE   C2120392   1.738   1.609   2.327  0.5942 -0.0766  0.5484
  179SAPE   O2220393   1.653   1.525   2.307 -0.0446  0.0806  0.3004
  179SAPE   C2220394   1.712   1.756   2.349  0.0035  0.7554 -0.0050
  179SAPE   H2R20395   1.750   1.806   2.257  3.8557  0.1156  1.0468
  179SAPE   H2S20396   1.603   1.775   2.357 -0.8035 -1.8785 -2.8698
  179SAPE    C320397   2.040   1.418   2.354 -0.1040 -0.7517  0.2882
  179SAPE    HX20398   2.119   1.488   2.320  0.0636  0.1002  2.2999
  179SAPE    HY20399   2.087   1.323   2.321  1.0319 -0.2511  0.4186
  179SAPE   O3120400   2.036   1.435   2.496  0.3545  0.1983  0.5118
  179SAPE   C3120401   1.989   1.331   2.565 -0.0873  0.1562 -0.2159
  179SAPE   O3220402   1.958   1.221   2.519 -0.4233  0.1030 -0.3988
  179SAPE   C3220403   1.985   1.357   2.711  0.5627  0.2117 -0.7959
  179SAPE   H2X20404   1.931   1.453   2.717  0.8869  0.5099 -2.1984
  179SAPE   H2Y20405   2.091   1.365   2.745 -0.0773 -2.4029  2.2764
  179SAPE   C2320406   1.783   1.818   2.473  0.2673  0.1066 -0.0444
  179SAPE   H3R20407   1.774   1.929   2.480  3.7913  0.5447 -0.7527
  179SAPE   H3S20408   1.893   1.816   2.464  0.3576  1.0785  0.6317
  179SAPE   C2420409   1.730   1.760   2.601  0.0139 -0.1722 -0.1017
  179SAPE   H4R20410   1.800   1.683   2.639 -0.9516 -0.7279  0.5962
  179SAPE   H4S20411   1.642   1.698   2.573 -0.1237 -0.3355  0.6759
  179SAPE   C2520412   1.689   1.867   2.696 -0.0026 -0.5418 -0.7077
  179SAPE   H5R20413   1.608   1.930   2.656  2.1572  1.8594 -1.5425
  179SAPE   C2620414   1.744   1.894   2.816  0.4385 -0.0084 -0.2252
  179SAPE   H6R20415   1.714   1.989   2.862  0.8313 -0.3555  0.7744
  179SAPE   C2720416   1.863   1.812   2.880  1.0946 -1.0711  0.1523
  179SAPE   H7R20417   1.937   1.781   2.804  0.0731  0.8300 -1.7159
  179SAPE   H7S20418   1.816   1.723   2.926 -1.6296  1.2033  2.1811
  179SAPE   C2820419   1.927   1.882   2.999  0.1512 -0.2954  0.2615
  179SAPE   H8R20420   2.032   1.913   2.984  0.3818 -1.0555  0.3088
  179SAPE   C2920421   1.874   1.907   3.122 -0.0557  0.3197  0.2836
  179SAPE   H9R20422   1.940   1.965   3.188  2.7837 -1.7664 -0.5577
  179SAPE  C21020423   1.729   1.870   3.166  0.3445 -0.1149  0.6108
  179SAPE  H10R20424   1.670   1.840   3.077  0.0527 -2.5691  1.5562
  179SAPE  H10S20425   1.680   1.962   3.205  2.8121  1.2970  0.5998
  179SAPE  C21120426   1.717   1.763   3.264 -0.2645 -0.1784 -0.1663
  179SAPE  H11R20427   1.687   1.668   3.216  1.2693 -0.4270 -0.6697
  179SAPE  C21220428   1.731   1.766   3.396 -0.1048 -0.4382  0.0434
  179SAPE  H12R20429   1.717   1.674   3.453 -1.4118  0.0060  0.4768
  179SAPE  C21320430   1.762   1.888   3.471 -0.0831  1.1139 -0.2284
  179SAPE  H13R20431   1.840   1.954   3.427  2.6275 -1.9439 -0.4283
  179SAPE  H13S20432   1.817   1.866   3.565  0.9381 -2.8118 -1.5395
  179SAPE  C21420433   1.642   1.969   3.517  0.3255 -0.3512  0.6378
  179SAPE  H14R20434   1.631   2.059   3.456 -2.3107 -0.6798  0.5023
  179SAPE  C21520435   1.549   1.944   3.612 -0.2877 -0.2191  0.2623
  179SAPE  H15R20436   1.468   2.013   3.639  0.7403 -0.1720  3.5912
  179SAPE  C21620437   1.557   1.811   3.688 -0.2150  0.4901 -0.1215
  179SAPE  H16R20438   1.643   1.748   3.658 -1.0215 -1.0665  0.7006
  179SAPE  H16S20439   1.468   1.748   3.670  1.1605 -1.9671  1.1594
  179SAPE  C21720440   1.563   1.838   3.838 -0.2268  0.8091  0.1711
  179SAPE  H17R20441   1.652   1.903   3.854  2.8965 -3.1306  0.4167
  179SAPE  H17S20442   1.596   1.744   3.888 -2.6660  0.9935  2.3625
  179SAPE  C21820443   1.442   1.892   3.905 -0.0147 -0.2470  0.3052
  179SAPE  H18R20444   1.431   1.998   3.874  0.8263 -0.1546  0.2933
  179SAPE  H18S20445   1.454   1.902   4.015  1.5585 -0.3295  0.1598
  179SAPE  C21920446   1.304   1.816   3.898  0.1853 -0.5019 -0.1706
  179SAPE  H19R20447   1.307   1.748   3.985  0.5710 -1.7411 -1.1288
  179SAPE  H19S20448   1.298   1.762   3.802  0.0284 -0.1259 -0.3758
  179SAPE  C22020449   1.174   1.902   3.914  0.5381 -0.4372  0.2049
  179SAPE  H20R20450   1.090   1.836   3.882 -0.6738  1.2100 -0.1232
  179SAPE  H20S20451   1.175   1.992   3.850  1.2370  0.8438  1.9346
  179SAPE  H20T20452   1.155   1.935   4.019 -1.8133 -0.4736 -0.1645
  179SAPE   C3320453   1.931   1.233   2.795 -0.4291 -0.5561  0.2014
  179SAPE   H3X20454   1.993   1.144   2.773 -3.0812 -3.5210  3.5519
  179SAPE   H3Y20455   1.831   1.200   2.758 -0.1079  0.5596 -1.8427
  179SAPE   C3420456   1.919   1.263   2.947 -0.3347 -0.3611  0.0232
  179SAPE   H4X20457   1.848   1.348   2.956  0.2005  0.0937  0.0383
  179SAPE   H4Y20458   2.017   1.308   2.976  0.0821  0.0657 -1.8471
  179SAPE   C3520459   1.891   1.150   3.046  0.3589 -0.2858 -0.0915
  179SAPE   H5X20460   1.980   1.084   3.040  0.0210 -1.1089  2.5807
  179SAPE   H5Y20461   1.798   1.100   3.011  0.1782  0.3914 -0.5997
  179SAPE   C3620462   1.872   1.193   3.190 -0.2691 -0.6541 -0.5177
  179SAPE   H6X20463   1.807   1.125   3.249 -0.9775  1.2425  1.0227
  179SAPE   H6Y20464   1.824   1.294   3.192  0.5273 -0.2532 -1.1245
  179SAPE   C3720465   2.008   1.187   3.267  0.0826  0.0831  0.2688
  179SAPE   H7X20466   2.060   1.277   3.230  0.2282 -0.4385 -0.8495
  179SAPE   H7Y20467   2.058   1.092   3.236 -1.3581 -0.4737 -0.5074
  179SAPE   C3820468   1.991   1.212   3.416  0.6552  0.0063 -1.0081
  179SAPE   H8X20469   2.093   1.204   3.459  0.4713  0.5562 -0.4513
  179SAPE   H8Y20470   1.934   1.132   3.470  2.5636 -0.8466 -0.1580
  179SAPE   C3920471   1.939   1.351   3.455  0.2075 -0.1949 -0.0218
  179SAPE   H9X20472   1.829   1.361   3.466  0.4598  2.8860  0.8103
  179SAPE   H9Y20473   1.969   1.426   3.378 -0.5969  0.1374 -0.0156
  179SAPE  C31020474   2.000   1.390   3.594 -0.1066  0.0254 -0.0009
  179SAPE  H10X20475   2.102   1.427   3.573 -0.7206  2.1062  0.3933
  179SAPE  H10Y20476   2.003   1.309   3.669 -2.2934 -0.8604 -0.7662
  179SAPE  C31120477   1.914   1.505   3.659  0.5320  0.8269 -0.7746
  179SAPE  H11X20478   1.813   1.461   3.673  0.9396 -0.0188 -0.4001
  179SAPE  H11Y20479   1.912   1.590   3.587 -0.0220  0.4401 -1.2317
  179SAPE  C31220480   1.978   1.550   3.792  0.1916  0.1793  0.4417
  179SAPE  H12X20481   1.950   1.657   3.803 -1.9653 -0.3340  0.4185
  179SAPE  H12Y20482   2.087   1.547   3.774 -0.0951 -2.7750 -1.5107
  179SAPE  C31320483   1.935   1.467   3.916  0.5351  0.0432 -0.0608
  179SAPE  H13X20484   1.982   1.366   3.916 -0.6934 -0.5528  0.5843
  179SAPE  H13Y20485   1.827   1.443   3.915  0.8756 -1.9477 -3.4344
  179SAPE  C31420486   1.971   1.535   4.044  0.3207 -0.2383  0.2026
  179SAPE  H14X20487   1.914   1.627   4.069 -3.3180 -2.6096  1.5018
  179SAPE  H14Y20488   2.076   1.572   4.038 -0.2611  1.7516  1.5064
  179SAPE  C31520489   1.955   1.439   4.169 -0.8283  0.3104 -0.6516
  179SAPE  H15X20490   2.027   1.354   4.164 -3.2903 -1.8728 -0.7663
  179SAPE  H15Y20491   1.851   1.400   4.170 -1.1999  1.2791  0.1229
  179SAPE  C31620492   1.983   1.503   4.304 -0.3818  1.1753 -0.2509
  179SAPE  H16X20493   1.921   1.593   4.324 -1.9517 -0.0711  0.7152
  179SAPE  H16Y20494   2.089   1.538   4.304 -0.4747  1.4640 -0.3057
  179SAPE  C31720495   1.955   1.408   4.426 -0.1444  1.1565  0.1872
  179SAPE  H17X20496   2.015   1.317   4.403 -1.0856  0.6567 -0.3870
  179SAPE  H17Y20497   1.849   1.375   4.433 -0.0057  1.0964  2.8913
  179SAPE  C31820498   1.995   1.458   4.567 -0.0105 -0.6509 -0.8367
  179SAPE  H18X20499   2.060   1.547   4.558  2.1643 -1.9213  1.0662
  179SAPE  H18Y20500   2.051   1.386   4.630  0.1809 -1.2458 -1.6641
  179SAPE  H18Z20501   1.909   1.494   4.627  1.1329  1.2513 -0.2776
  180SAPE     N20502   3.107   1.542   1.953  0.6540 -0.1842 -0.3838
  180SAPE   HN120503   3.211   1.541   1.944  0.7500 -2.5841  0.4839
  180SAPE   HN220504   3.083   1.644   1.949  2.0758  0.3303  2.1040
  180SAPE   HN320505   3.094   1.511   2.051 -1.6372 -0.2395 -0.6513
  180SAPE   C1220506   3.028   1.459   1.860 -0.3686  0.3240 -0.1408
  180SAPE  H12A20507   3.030   1.354   1.896 -0.1088 -0.0869 -1.2872
  180SAPE  H12B20508   3.072   1.469   1.758 -1.6242 -2.0320 -1.0170
  180SAPE   C1120509   2.889   1.511   1.855 -0.2901 -0.4953  0.3210
  180SAPE  H11A20510   2.846   1.500   1.957  0.8963 -0.1233  0.8890
  180SAPE  H11B20511   2.834   1.449   1.781 -1.5438  2.2710 -1.2146
  180SAPE     P20512   2.752   1.730   1.813 -0.6226  0.3206 -0.3535
  180SAPE   O1320513   2.772   1.874   1.794 -0.5053  0.1581 -0.3498
  180SAPE   O1420514   2.669   1.661   1.717 -0.5481 -0.4275 -0.2517
  180SAPE   O1220515   2.887   1.650   1.814 -0.0255 -0.2601 -0.9717
  180SAPE   O1120516   2.697   1.705   1.961 -0.0903  0.3667 -0.4007
  180SAPE    C120517   2.774   1.756   2.072  0.0615  0.5147 -0.5705
  180SAPE    HA20518   2.877   1.714   2.074 -0.5201 -1.0236 -1.0970
  180SAPE    HB20519   2.778   1.867   2.078 -0.6668  0.4646  1.6362
  180SAPE    C220520   2.705   1.709   2.207  0.4029 -0.2977  0.6622
  180SAPE    HS20521   2.785   1.725   2.283  0.8416 -0.3965  0.2225
  180SAPE   O2120522   2.640   1.579   2.220 -0.1170 -0.2126 -0.1268
  180SAPE   C2120523   2.717   1.479   2.214  0.1939 -0.1263  0.0911
  180SAPE   O2220524   2.837   1.483   2.202 -0.1214  0.0446 -0.2650
  180SAPE   C2220525   2.637   1.351   2.227  0.3104  0.1146  0.0631
  180SAPE   H2R20526   2.545   1.366   2.287  0.7007 -0.5585  0.8608
  180SAPE   H2S20527   2.623   1.323   2.120 -3.8986  1.6617  0.0327
  180SAPE    C320528   2.611   1.828   2.235 -0.5754 -0.8609  0.4267
  180SAPE    HX20529   2.537   1.814   2.153  0.6714  0.2663 -0.9621
  180SAPE    HY20530   2.657   1.928   2.223  1.4082 -1.9026 -1.5805
  180SAPE   O3120531   2.530   1.816   2.351 -0.4924 -0.3575 -0.1602
  180SAPE   C3120532   2.467   1.922   2.387  0.9214 -0.3320  0.1818
  180SAPE   O3220533   2.452   2.017   2.312 -0.2622 -0.5514 -0.1580
  180SAPE   C3220534   2.412   1.911   2.528 -0.2502  0.9462  0.1285
  180SAPE   H2X20535   2.499   1.876   2.588 -0.9343 -2.5184 -0.6567
  180SAPE   H2Y20536   2.340   1.827   2.525  0.6171  0.1381  0.9795
  180SAPE   C2320537   2.712   1.237   2.294 -1.4419  0.2754 -0.7013
  180SAPE   H3R20538   2.812   1.228   2.246 -0.0981  1.8996  1.5853
  180SAPE   H3S20539   2.655   1.143   2.275 -3.7112  0.8963  2.3001
  180SAPE   C2420540   2.753   1.261   2.443 -0.2039  0.1043  0.5796
  180SAPE   H4R20541   2.665   1.270   2.511 -2.2775  1.2783 -2.0986
  180SAPE   H4S20542   2.799   1.362   2.451  2.1160 -0.7124 -1.4506
  180SAPE   C2520543   2.856   1.158   2.478  0.3175  0.3972 -0.7478
  180SAPE   H5R20544   2.959   1.194   2.462 -0.7324  2.5103 -3.5619
  180SAPE   C2620545   2.832   1.041   2.531  0.2895  0.0429 -0.1735
  180SAPE   H6R20546   2.912   0.969   2.553 -0.2408 -0.4286  0.2333
  180SAPE   C2720547   2.688   0.992   2.564 -0.1046 -0.4795 -0.5910
  180SAPE   H7R20548   2.608   1.062   2.532 -0.4471 -1.2019 -1.3452
  180SAPE   H7S20549   2.687   0.984   2.675  1.4962 -1.3215 -0.5990
  180SAPE   C2820550   2.652   0.862   2.506 -0.9729 -0.3446 -0.5071
  180SAPE   H8R20551   2.677   0.849   2.400 -1.0729 -0.3288 -0.5318
  180SAPE   C2920552   2.572   0.773   2.562  0.0053 -0.9879 -0.5829
  180SAPE   H9R20553   2.543   0.680   2.510 -3.0302 -0.4637  0.0142
  180SAPE  C21020554   2.504   0.785   2.692  0.6930  0.0980 -0.4398
  180SAPE  H10R20555   2.487   0.893   2.713 -1.8921 -0.3519  0.1218
  180SAPE  H10S20556   2.575   0.748   2.769 -0.7784  3.0967  2.6119
  180SAPE  C21120557   2.374   0.712   2.695  0.6511  0.2350 -0.1217
  180SAPE  H11R20558   2.303   0.731   2.612  0.8279  3.0290  0.2590
  180SAPE  C21220559   2.331   0.637   2.799  0.3948  0.1108  0.7974
  180SAPE  H12R20560   2.239   0.581   2.777  1.3986 -1.2234 -0.1967
  180SAPE  C21320561   2.397   0.594   2.923 -0.6024 -1.2084  0.4219
  180SAPE  H13R20562   2.465   0.672   2.963 -1.4096 -1.3239  2.1396
  180SAPE  H13S20563   2.469   0.512   2.901  0.0161 -1.0803  1.8298
  180SAPE  C21420564   2.306   0.555   3.034  0.4098  0.7462 -0.0709
  180SAPE  H14R20565   2.208   0.603   3.043 -0.0465 -0.2914  0.8597
  180SAPE  C21520566   2.327   0.451   3.118  0.3089  0.0821  0.0224
  180SAPE  H15R20567   2.244   0.429   3.186  1.7045 -0.3938  1.6487
  180SAPE  C21620568   2.444   0.350   3.122  0.1557 -1.1073 -0.2424
  180SAPE  H16R20569   2.526   0.383   3.054 -1.1403  0.3447 -1.1851
  180SAPE  H16S20570   2.409   0.247   3.100  0.7875 -1.3328 -0.1932
  180SAPE  C21720571   2.506   0.340   3.260  0.1088 -0.4172 -0.4644
  180SAPE  H17R20572   2.568   0.429   3.280  1.7265 -1.5594 -0.1434
  180SAPE  H17S20573   2.572   0.250   3.260 -0.6785 -1.0123 -0.8008
  180SAPE  C21820574   2.399   0.318   3.368  0.1081 -0.7299 -0.2967
  180SAPE  H18R20575   2.306   0.260   3.347  0.1879 -2.6663  3.6952
  180SAPE  H18S20576   2.368   0.421   3.396  1.4210 -0.3641 -0.1504
  180SAPE  C21920577   2.454   0.253   3.496 -0.5040 -0.0926 -0.5598
  180SAPE  H19R20578   2.538   0.308   3.543 -2.5235  1.3373  1.6150
  180SAPE  H19S20579   2.491   0.154   3.462 -0.2760 -0.1210 -0.2300
  180SAPE  C22020580   2.354   0.255   3.611  0.0921  0.0549  0.2795
  180SAPE  H20R20581   2.252   0.219   3.585  0.2588 -0.8471  0.8429
  180SAPE  H20S20582   2.342   0.358   3.651  1.8479  0.2098  0.4532
  180SAPE  H20T20583   2.382   0.194   3.699  0.6192  0.1579  0.1860
  180SAPE   C3320584   2.340   2.036   2.578 -0.3233  0.0052 -0.0986
  180SAPE   H3X20585   2.376   2.129   2.529  0.6512 -1.1733 -1.7705
  180SAPE   H3Y20586   2.370   2.058   2.682  0.9817  2.3391 -0.8894
  180SAPE   C3420587   2.186   2.016   2.582  0.0912 -0.3191  0.2718
  180SAPE   H4X20588   2.173   1.926   2.646 -2.5022 -0.9502 -1.0272
  180SAPE   H4Y20589   2.152   1.989   2.480 -3.0122 -2.4256  1.6941
  180SAPE   C3520590   2.106   2.126   2.651  0.0031 -0.1787  0.4159
  180SAPE   H5X20591   2.000   2.111   2.622 -0.7695  0.4213  2.7511
  180SAPE   H5Y20592   2.144   2.221   2.607 -1.3758 -0.7742 -2.3340
  180SAPE   C3620593   2.110   2.117   2.803 -0.1480 -0.4138 -0.0570
  180SAPE   H6X20594   2.126   2.009   2.824  1.2519 -0.7938 -2.5466
  180SAPE   H6Y20595   2.008   2.138   2.841  0.0228 -0.7528  0.5914
  180SAPE   C3720596   2.211   2.212   2.871  0.8059 -0.7509  1.0214
  180SAPE   H7X20597   2.179   2.318   2.858  2.6566 -0.1797  0.7903
  180SAPE   H7Y20598   2.305   2.198   2.813 -0.7852 -0.8755 -1.7156
  180SAPE   C3820599   2.222   2.178   3.019  0.2722  0.5637 -1.3193
  180SAPE   H8X20600   2.247   2.071   3.032  2.3543  1.1521  0.0065
  180SAPE   H8Y20601   2.121   2.180   3.067  0.6166 -0.2752 -0.5336
  180SAPE   C3920602   2.329   2.256   3.101 -0.7335  0.0684  0.0061
  180SAPE   H9X20603   2.312   2.365   3.095  1.6381  0.3866 -2.9309
  180SAPE   H9Y20604   2.422   2.225   3.050 -2.2473 -1.1716 -2.1783
  180SAPE  C31020605   2.333   2.213   3.254 -0.4391 -0.2327 -0.2195
  180SAPE  H10X20606   2.357   2.106   3.268 -1.8325 -0.3555  1.4589
  180SAPE  H10Y20607   2.231   2.232   3.292 -1.1851 -0.4136 -2.0107
  180SAPE  C31120608   2.441   2.289   3.330 -0.4170 -0.2158 -0.0555
  180SAPE  H11X20609   2.421   2.398   3.340 -3.7488 -0.9127  3.2161
  180SAPE  H11Y20610   2.536   2.262   3.280 -0.8557 -2.2211  0.1109
  180SAPE  C31220611   2.456   2.234   3.471 -0.1110 -0.0784 -0.2342
  180SAPE  H12X20612   2.554   2.267   3.512  0.2656  0.8824 -1.7880
  180SAPE  H12Y20613   2.444   2.124   3.485  0.9873 -0.0928  0.6706
  180SAPE  C31320614   2.364   2.303   3.566  0.2355 -0.0392 -0.7161
  180SAPE  H13X20615   2.256   2.286   3.545  0.7403 -1.1722 -2.6747
  180SAPE  H13Y20616   2.385   2.409   3.538 -0.4243 -0.7219 -4.3569
  180SAPE  C31420617   2.398   2.262   3.713 -0.1328  0.4441 -0.5670
  180SAPE  H14X20618   2.508   2.264   3.724 -0.0530  2.4483 -1.2083
  180SAPE  H14Y20619   2.368   2.157   3.729  0.4958  0.4332  0.6310
  180SAPE  C31520620   2.340   2.351   3.819  0.2981 -0.3788 -0.1602
  180SAPE  H15X20621   2.230   2.361   3.813  0.4292  0.9175 -0.9004
  180SAPE  H15Y20622   2.375   2.453   3.791  0.6115 -0.9781 -2.1482
  180SAPE  C31620623   2.376   2.315   3.962 -0.5517 -0.5414  0.3994
  180SAPE  H16X20624   2.336   2.215   3.986 -1.1037 -0.7288 -1.1778
  180SAPE  H16Y20625   2.324   2.387   4.029 -0.9139  0.3300 -0.7825
  180SAPE  C31720626   2.528   2.319   3.999 -0.3610  0.4722 -0.0805
  180SAPE  H17X20627   2.571   2.419   4.022 -0.0315  0.0233  1.3581
  180SAPE  H17Y20628   2.574   2.280   3.905 -0.6309 -0.0545 -0.0020
  180SAPE  C31820629   2.566   2.226   4.114 -0.7293  0.2703 -0.2104
  180SAPE  H18X20630   2.497   2.248   4.198  1.0869 -1.3259  1.7863
  180SAPE  H18Y20631   2.665   2.258   4.152  0.0353 -0.8205 -1.2078
  180SAPE  H18Z20632   2.569   2.118   4.092  3.1905  0.3671 -0.7494
  181SAPE     N20633   4.488   1.493   1.651 -0.6241  0.1443 -0.2329
  181SAPE   HN120634   4.413   1.437   1.696  0.8992 -2.2832 -0.5333
  181SAPE   HN220635   4.434   1.565   1.599  0.7075  0.8051 -0.7270
  181SAPE   HN320636   4.533   1.421   1.591 -0.4166  0.3043 -0.2713
  181SAPE   C1220637   4.584   1.551   1.751 -0.0073  0.0882 -0.3505
  181SAPE  H12A20638   4.674   1.582   1.693  1.0225 -1.2607  0.4590
  181SAPE  H12B20639   4.611   1.471   1.823 -1.5215 -0.4642 -0.3545
  181SAPE   C1120640   4.519   1.675   1.825  0.5021  0.2429  0.6181
  181SAPE  H11A20641   4.517   1.761   1.754 -2.0869  0.4271  0.7851
  181SAPE  H11B20642   4.578   1.710   1.912 -0.7623  1.7995  0.9003
  181SAPE     P20643   4.287   1.754   1.927  0.5932 -0.1368 -0.1116
  181SAPE   O1320644   4.262   1.855   1.822  0.0172  0.3960 -0.2536
  181SAPE   O1420645   4.165   1.684   1.973 -0.4860 -0.3085  0.7899
  181SAPE   O1220646   4.387   1.643   1.869  0.5717  0.0621 -0.3451
  181SAPE   O1120647   4.360   1.822   2.052  0.0790  0.1475  0.1425
  181SAPE    C120648   4.397   1.724   2.150 -0.4492 -0.0294 -0.1562
  181SAPE    HA20649   4.312   1.682   2.208 -0.8163  0.6530 -0.1839
  181SAPE    HB20650   4.459   1.646   2.102  1.4447  1.8487 -0.9220
  181SAPE    C220651   4.499   1.794   2.245 -0.1855  0.2808  0.3657
  181SAPE    HS20652   4.554   1.713   2.297 -0.3769  0.5434  0.9872
  181SAPE   O2120653   4.432   1.874   2.339 -0.5059 -0.0255  0.3795
  181SAPE   C2120654   4.366   1.811   2.442  0.4287  0.6490  0.2958
  181SAPE   O2220655   4.373   1.691   2.460 -0.8980 -0.4227 -0.3566
  181SAPE   C2220656   4.282   1.906   2.521  0.4608  0.2685 -0.3343
  181SAPE   H2R20657   4.343   1.996   2.543  1.4499 -0.5817  0.5253
  181SAPE   H2S20658   4.193   1.932   2.460  1.0890 -0.9026 -1.8351
  181SAPE    C320659   4.613   1.868   2.173 -0.4955 -0.2013 -0.8141
  181SAPE    HX20660   4.582   1.952   2.107  0.9264  1.1667  0.2248
  181SAPE    HY20661   4.666   1.793   2.110  1.2047 -0.1771  0.5241
  181SAPE   O3120662   4.708   1.918   2.267  0.8062 -0.2564 -0.1071
  181SAPE   C3120663   4.727   2.041   2.291  0.2033 -0.9872 -0.2329
  181SAPE   O3220664   4.685   2.136   2.230 -0.2243 -0.3106  0.0500
  181SAPE   C3220665   4.818   2.063   2.419 -0.4705  0.0167  0.2301
  181SAPE   H2X20666   4.851   2.169   2.417  0.8442 -0.3618  1.0102
  181SAPE   H2Y20667   4.910   2.004   2.399 -1.4298 -0.7575 -2.2715
  181SAPE   C2320668   4.237   1.852   2.656  0.2235  0.2043  0.0691
  181SAPE   H3R20669   4.322   1.805   2.710  0.7384  1.4143  0.3436
  181SAPE   H3S20670   4.175   1.763   2.630  0.0246  0.7699 -1.4609
  181SAPE   C2420671   4.140   1.940   2.741  0.1332  0.0773  0.4893
  181SAPE   H4R20672   4.106   1.874   2.823  0.6991 -2.1110 -0.9575
  181SAPE   H4S20673   4.054   1.958   2.673  0.8152 -2.6097 -1.2552
  181SAPE   C2520674   4.202   2.065   2.789  0.0275  0.5121 -0.1670
  181SAPE   H5R20675   4.224   2.128   2.701  0.5843  2.9637  1.6166
  181SAPE   C2620676   4.214   2.093   2.925 -0.1699 -0.0422  0.1571
  181SAPE   H6R20677   4.240   2.196   2.956 -1.8293  0.1076  1.1876
  181SAPE   C2720678   4.186   2.009   3.044 -0.1797  0.3395  0.0365
  181SAPE   H7R20679   4.165   1.906   3.008 -1.1116  0.2659  0.7598
  181SAPE   H7S20680   4.087   2.033   3.089  0.0607 -2.0600  2.0656
  181SAPE   C2820681   4.294   2.025   3.152 -0.4843  0.2733 -0.1822
  181SAPE   H8R20682   4.390   1.978   3.126 -0.7216 -1.8230  2.2388
  181SAPE   C2920683   4.282   2.082   3.277  0.8245 -0.6917  0.0952
  181SAPE   H9R20684   4.371   2.079   3.341  0.7652 -2.2380  0.1407
  181SAPE  C21020685   4.157   2.145   3.332 -0.3290  0.9854  0.0200
  181SAPE  H10R20686   4.104   2.189   3.245  0.1630 -1.9978 -1.8955
  181SAPE  H10S20687   4.194   2.229   3.395  0.9711  0.2390  0.2863
  181SAPE  C21120688   4.050   2.066   3.406  0.3885  0.5577  0.0269
  181SAPE  H11R20689   3.949   2.080   3.366 -0.0550  4.4284  2.0102
  181SAPE  C21220690   4.078   1.980   3.510 -0.4739  0.3802  0.4713
  181SAPE  H12R20691   3.999   1.932   3.569 -1.1756 -1.3590 -1.7382
  181SAPE  C21320692   4.214   1.965   3.569 -0.3787  0.0373 -0.4283
  181SAPE  H13R20693   4.283   2.051   3.552 -0.3538  0.9135  3.2742
  181SAPE  H13S20694   4.255   1.873   3.521 -4.5911 -1.9913 -0.6050
  181SAPE  C21420695   4.201   1.936   3.716  0.6068 -0.4587 -0.5535
  181SAPE  H14R20696   4.188   1.828   3.733 -1.2841 -0.1242  0.2953
  181SAPE  C21520697   4.175   2.021   3.818 -0.0344  0.0832  0.2632
  181SAPE  H15R20698   4.146   1.990   3.920  0.8382  1.7120  1.0482
  181SAPE  C21620699   4.170   2.172   3.804  0.4107  0.1803  0.0441
  181SAPE  H16R20700   4.102   2.212   3.882  2.7850  1.9754  1.3385
  181SAPE  H16S20701   4.133   2.213   3.708 -0.7159  0.7139  0.6965
  181SAPE  C21720702   4.310   2.229   3.828 -0.4507  0.2954 -0.6228
  181SAPE  H17R20703   4.309   2.336   3.800  2.0349  0.1878 -1.3156
  181SAPE  H17S20704   4.383   2.186   3.757 -0.4775 -0.2998 -0.2999
  181SAPE  C21820705   4.363   2.215   3.977  0.5460  0.7572 -0.0042
  181SAPE  H18R20706   4.474   2.210   3.985  0.4749 -2.0423  0.2733
  181SAPE  H18S20707   4.333   2.115   4.016 -0.8976  1.9760  2.1979
  181SAPE  C21920708   4.300   2.320   4.069 -0.0817 -0.0320 -0.1639
  181SAPE  H19R20709   4.326   2.312   4.176 -0.3618 -1.8794 -0.2054
  181SAPE  H19S20710   4.189   2.314   4.069 -0.1080 -0.7525  2.5900
  181SAPE  C22020711   4.324   2.467   4.031  0.3125  0.5580 -0.2904
  181SAPE  H20R20712   4.297   2.469   3.923 -5.2768 -1.6570  0.7353
  181SAPE  H20S20713   4.426   2.487   4.073 -0.7807  1.2420  2.2320
  181SAPE  H20T20714   4.248   2.529   4.083 -0.6900 -1.0764  0.2597
  181SAPE   C3320715   4.754   2.015   2.550  0.7061  0.5031  0.2908
  181SAPE   H3X20716   4.838   1.970   2.607  0.8884 -2.2486 -1.9460
  181SAPE   H3Y20717   4.679   1.933   2.540  0.3833  0.4694  2.5088
  181SAPE   C3420718   4.671   2.131   2.616 -0.1018 -0.5196  0.7278
  181SAPE   H4X20719   4.600   2.182   2.547  1.0934 -0.5761 -0.5861
  181SAPE   H4Y20720   4.739   2.214   2.645  1.6470 -0.9710 -1.7900
  181SAPE   C3520721   4.605   2.077   2.746  0.3515  0.4367 -0.2316
  181SAPE   H5X20722   4.683   2.019   2.802  0.5965 -0.4553 -1.4465
  181SAPE   H5Y20723   4.526   2.003   2.720  1.3384  0.0764 -2.4502
  181SAPE   C3620724   4.539   2.170   2.840  1.3511  0.1207  0.0794
  181SAPE   H6X20725   4.481   2.121   2.921  0.9912 -0.3436 -0.4494
  181SAPE   H6Y20726   4.461   2.217   2.777 -0.3504  0.4631  2.3069
  181SAPE   C3720727   4.614   2.291   2.897 -0.1981  0.0017  0.1327
  181SAPE   H7X20728   4.608   2.382   2.833 -1.3278  1.2190  1.8901
  181SAPE   H7Y20729   4.724   2.277   2.911 -0.1464  0.9908  0.8046
  181SAPE   C3820730   4.562   2.346   3.035 -0.2032 -0.1572  0.7614
  181SAPE   H8X20731   4.453   2.352   3.055  0.2176  0.0659  3.2946
  181SAPE   H8Y20732   4.587   2.454   3.048 -1.5806  0.3785 -0.7112
  181SAPE   C3920733   4.615   2.261   3.148  0.2038 -0.6189 -0.4694
  181SAPE   H9X20734   4.723   2.254   3.125  0.3268  1.5296 -0.7439
  181SAPE   H9Y20735   4.574   2.159   3.160 -0.4148 -0.1689  1.7971
  181SAPE  C31020736   4.583   2.335   3.279 -0.1081  0.2299 -0.0374
  181SAPE  H10X20737   4.473   2.333   3.295  0.1192 -0.4346  1.8454
  181SAPE  H10Y20738   4.616   2.440   3.264  0.6900 -0.3757 -3.2643
  181SAPE  C31120739   4.667   2.272   3.392 -0.0091  0.3823 -0.1719
  181SAPE  H11X20740   4.774   2.289   3.369 -0.2905  1.0119 -1.0880
  181SAPE  H11Y20741   4.649   2.163   3.393 -2.6168  0.7359  0.5384
  181SAPE  C31220742   4.641   2.323   3.538  0.2881  0.1274 -0.1852
  181SAPE  H12X20743   4.531   2.325   3.556  0.2243  1.2451 -0.6147
  181SAPE  H12Y20744   4.671   2.430   3.538  2.0247 -0.3372 -0.1766
  181SAPE  C31320745   4.714   2.241   3.645 -0.1708 -0.4084 -0.4029
  181SAPE  H13X20746   4.816   2.217   3.608 -0.0120 -1.2140  0.4955
  181SAPE  H13Y20747   4.658   2.146   3.659  1.1385 -1.3837 -1.5297
  181SAPE  C31420748   4.725   2.322   3.776  0.1142  0.1904  0.7050
  181SAPE  H14X20749   4.626   2.363   3.803  0.3263  1.7111 -0.6535
  181SAPE  H14Y20750   4.790   2.411   3.761  0.6979 -0.2787  0.4068
  181SAPE  C31520751   4.764   2.232   3.903  0.0612 -0.8094 -0.1684
  181SAPE  H15X20752   4.870   2.201   3.893  0.1612 -0.4862 -0.1405
  181SAPE  H15Y20753   4.703   2.139   3.907  1.0812 -1.5786 -1.5795
  181SAPE  C31620754   4.733   2.319   4.028 -0.0161 -0.5060  0.2689
  181SAPE  H16X20755   4.625   2.346   4.037 -0.4752 -0.7838 -3.0665
  181SAPE  H16Y20756   4.792   2.413   4.020  1.5056 -0.9480  4.1235
  181SAPE  C31720757   4.780   2.260   4.163  0.1216  0.4918  0.1618
  181SAPE  H17X20758   4.743   2.328   4.243 -0.1668 -0.6034  0.9807
  181SAPE  H17Y20759   4.890   2.271   4.158  0.3134 -1.6265 -1.6716
  181SAPE  C31820760   4.736   2.121   4.206  0.0397 -0.1088 -0.4422
  181SAPE  H18X20761   4.802   2.044   4.160  0.5994 -0.8765  1.5465
  181SAPE  H18Y20762   4.632   2.108   4.168  0.3605 -0.5577 -1.1971
  181SAPE  H18Z20763   4.730   2.112   4.316  1.6462 -1.0410 -0.3925
  182SAPE     N20764   0.028   2.720   2.192  0.2128  0.3696 -0.5539
  182SAPE   HN120765   0.129   2.738   2.212  0.5451 -0.1883 -1.6322
  182SAPE   HN220766   0.000   2.789   2.120  0.8114 -1.3902 -2.5874
  182SAPE   HN320767  -0.032   2.739   2.275 -0.5091  1.3485 -1.2830
  182SAPE   C1220768   0.001   2.578   2.149 -0.2814  0.2449  0.9611
  182SAPE  H12A20769   0.092   2.535   2.101 -1.8684 -2.0674 -0.1729
  182SAPE  H12B20770  -0.073   2.575   2.067 -0.4953 -2.5757  1.1746
  182SAPE   C1120771  -0.039   2.488   2.271 -0.1101 -0.5435 -0.3637
  182SAPE  H11A20772   0.051   2.495   2.334  1.5162  0.1409 -2.6268
  182SAPE  H11B20773  -0.040   2.382   2.237  0.0755 -0.4683 -0.6071
  182SAPE     P20774  -0.298   2.474   2.338 -0.5304  0.5672 -0.1078
  182SAPE   O1320775  -0.394   2.578   2.313 -0.2593 -0.3151 -0.0687
  182SAPE   O1420776  -0.292   2.355   2.249 -0.0100 -0.4910 -0.4445
  182SAPE   O1220777  -0.153   2.527   2.335 -0.1960 -0.1083 -0.7380
  182SAPE   O1120778  -0.303   2.428   2.485 -0.2779  0.0085 -0.2449
  182SAPE    C120779  -0.244   2.301   2.521  0.2167  0.0696  0.1247
  182SAPE    HA20780  -0.297   2.220   2.466 -0.8445  1.5691 -1.1276
  182SAPE    HB20781  -0.137   2.303   2.492  0.4860  0.1681  1.0691
  182SAPE    C220782  -0.247   2.292   2.677 -1.0068 -0.1978 -0.5385
  182SAPE    HS20783  -0.212   2.190   2.702  0.4225  0.0360 -1.4568
  182SAPE   O2120784  -0.376   2.317   2.732 -0.1603 -0.6314  0.3777
  182SAPE   C2120785  -0.480   2.238   2.695 -0.5844 -0.5121  0.4314
  182SAPE   O2220786  -0.466   2.126   2.652 -0.0139  0.0413  0.2680
  182SAPE   C2220787  -0.613   2.302   2.717  0.2343 -0.4722  0.3593
  182SAPE   H2R20788  -0.631   2.368   2.630  1.5486  1.1489  1.2809
  182SAPE   H2S20789  -0.694   2.225   2.727 -0.9518  0.3431 -2.2218
  182SAPE    C320790  -0.146   2.395   2.733  0.3715 -0.0133 -0.4420
  182SAPE    HX20791  -0.184   2.488   2.685 -1.1027 -0.6816 -0.6456
  182SAPE    HY20792  -0.050   2.392   2.678  0.0612  3.4585 -1.4405
  182SAPE   O3120793  -0.124   2.399   2.876 -0.2409 -0.3235 -0.3515
  182SAPE   C3120794  -0.192   2.495   2.935 -0.6803  0.4540 -0.3610
  182SAPE   O3220795  -0.251   2.586   2.880  0.4865 -0.3376  0.2870
  182SAPE   C3220796  -0.180   2.485   3.084 -0.8937 -0.6398 -0.3136
  182SAPE   H2X20797  -0.074   2.501   3.113 -1.4598  1.9164  0.6604
  182SAPE   H2Y20798  -0.210   2.385   3.123 -1.3203  0.0992  1.3519
  182SAPE   C2320799  -0.622   2.398   2.838 -0.3387  0.0864 -0.3250
  182SAPE   H3R20800  -0.708   2.466   2.818 -0.6808 -0.6899 -1.5708
  182SAPE   H3S20801  -0.528   2.457   2.839  0.2842 -0.6832 -3.7791
  182SAPE   C2420802  -0.632   2.319   2.975  0.3093  0.0188 -0.0143
  182SAPE   H4R20803  -0.544   2.251   2.976 -1.1733 -2.0007 -0.7012
  182SAPE   H4S20804  -0.722   2.254   2.977  1.0774 -1.4193 -3.9720
  182SAPE   C2520805  -0.638   2.411   3.093  0.0303 -0.0394  0.6774
  182SAPE   H5R20806  -0.681   2.508   3.064  0.0172  0.2630  1.6891
  182SAPE   C2620807  -0.591   2.386   3.218 -0.3360  0.4585  0.7676
  182SAPE   H6R20808  -0.611   2.477   3.277 -0.0531  1.1597 -0.2002
  182SAPE   C2720809  -0.542   2.253   3.270  0.0877 -0.7562  0.0290
  182SAPE   H7R20810  -0.437   2.277   3.296 -0.5519  2.2655  0.1634
  182SAPE   H7S20811  -0.547   2.176   3.189 -0.9129  0.4180 -1.0624
  182SAPE   C2820812  -0.629   2.215   3.386 -0.1380 -0.0831 -0.9028
  182SAPE   H8R20813  -0.735   2.217   3.354 -0.9307  2.2158  1.5479
  182SAPE   C2920814  -0.586   2.166   3.505 -0.3523  0.2749 -0.7477
  182SAPE   H9R20815  -0.657   2.118   3.575 -0.0916 -0.2696 -0.8519
  182SAPE  C21020816  -0.440   2.145   3.555  0.0126  0.0735 -0.8208
  182SAPE  H10R20817  -0.381   2.094   3.476 -0.9953 -1.1691 -0.8033
  182SAPE  H10S20818  -0.453   2.072   3.638 -1.3861 -2.0830 -2.8166
  182SAPE  C21120819  -0.370   2.268   3.594  0.1619 -0.1501  0.5290
  182SAPE  H11R20820  -0.319   2.317   3.509 -0.4087  1.8875  1.3112
  182SAPE  C21220821  -0.340   2.321   3.714  0.0385  0.0505  0.7799
  182SAPE  H12R20822  -0.288   2.418   3.714  1.0778 -0.4821  0.6777
  182SAPE  C21320823  -0.383   2.260   3.846  0.4434 -0.2967  0.2775
  182SAPE  H13R20824  -0.304   2.183   3.859 -0.4400 -0.8486  2.8614
  182SAPE  H13S20825  -0.476   2.199   3.838  0.8899 -0.8093 -1.7373
  182SAPE  C21420826  -0.388   2.363   3.957 -0.0744 -0.3413  0.3695
  182SAPE  H14R20827  -0.490   2.373   3.995 -0.2848  0.5514 -0.3804
  182SAPE  C21520828  -0.287   2.423   4.020 -0.3372  0.5462 -0.0601
  182SAPE  H15R20829  -0.306   2.500   4.095  1.2624  1.3782 -0.4609
  182SAPE  C21620830  -0.142   2.406   3.993 -0.2397  0.4237  0.0588
  182SAPE  H16R20831  -0.122   2.324   3.921 -0.0544 -0.0708  0.6627
  182SAPE  H16S20832  -0.095   2.367   4.086  1.7379  0.1157 -1.0006
  182SAPE  C21720833  -0.056   2.531   3.954  0.7048  0.6061 -0.1825
  182SAPE  H17R20834   0.053   2.508   3.949  0.3345 -0.9357 -2.1688
  182SAPE  H17S20835  -0.075   2.589   4.047 -2.8205 -2.2796  1.1143
  182SAPE  C21820836  -0.103   2.611   3.831 -0.2004 -0.2747  0.2942
  182SAPE  H18R20837  -0.214   2.613   3.828 -0.1817 -0.5353 -1.3572
  182SAPE  H18S20838  -0.071   2.561   3.737  0.5037  0.6282  0.0366
  182SAPE  C21920839  -0.060   2.754   3.826 -0.0115 -0.2143 -0.2523
  182SAPE  H19R20840  -0.064   2.782   3.718  2.0883 -1.0016 -0.5987
  182SAPE  H19S20841   0.048   2.772   3.848  0.5651 -0.5207 -2.5161
  182SAPE  C22020842  -0.146   2.854   3.913 -0.8638  0.1344 -0.2573
  182SAPE  H20R20843  -0.135   2.827   4.020 -0.2264  0.0194 -0.3492
  182SAPE  H20S20844  -0.254   2.852   3.885 -1.7358  0.7812  2.7409
  182SAPE  H20T20845  -0.114   2.959   3.896  1.7591 -0.9694 -3.1480
  182SAPE   C3320846  -0.271   2.584   3.163  0.1743  0.9567  0.0162
  182SAPE   H3X20847  -0.375   2.556   3.134  0.8503 -1.8699  0.1028
  182SAPE   H3Y20848  -0.248   2.692   3.151  0.8197  0.7894 -0.2321
  182SAPE   C3420849  -0.274   2.547   3.310 -0.6152  0.5530 -0.5337
  182SAPE   H4X20850  -0.255   2.438   3.320 -3.1184 -0.3763 -4.1414
  182SAPE   H4Y20851  -0.374   2.574   3.350 -0.2059  0.7348  0.3997
  182SAPE   C3520852  -0.177   2.626   3.400 -0.7529 -0.6189 -0.2724
  182SAPE   H5X20853  -0.236   2.652   3.491  0.9440 -0.0296  0.7068
  182SAPE   H5Y20854  -0.163   2.720   3.344  0.6176 -0.2002  0.7303
  182SAPE   C3620855  -0.032   2.567   3.437  0.0524 -0.3251 -0.1288
  182SAPE   H6X20856   0.001   2.504   3.352 -0.5293  0.1873 -0.7430
  182SAPE   H6Y20857  -0.048   2.507   3.529 -0.7472  1.7060  1.1423
  182SAPE   C3720858   0.069   2.676   3.462 -0.1471 -0.5846  0.0280
  182SAPE   H7X20859   0.027   2.754   3.528  0.8877  1.8954 -2.0566
  182SAPE   H7Y20860   0.089   2.735   3.370 -1.8543  0.9585  0.5928
  182SAPE   C3820861   0.200   2.621   3.529 -0.3323  0.0705 -0.4460
  182SAPE   H8X20862   0.251   2.550   3.461 -1.5569  0.9487 -2.3816
  182SAPE   H8Y20863   0.158   2.551   3.606  0.0928  0.3640  0.0583
  182SAPE   C3920864   0.296   2.724   3.593  0.2422  0.3985  0.0905
  182SAPE   H9X20865   0.243   2.745   3.689  0.1665 -1.8266  0.5876
  182SAPE   H9Y20866   0.301   2.822   3.542  3.0838  0.2764 -0.0140
  182SAPE  C31020867   0.433   2.677   3.633 -0.1601 -0.1842 -0.2286
  182SAPE  H10X20868   0.465   2.752   3.709 -1.1426 -1.1381  1.1630
  182SAPE  H10Y20869   0.512   2.667   3.556  0.3255  0.2710  0.2021
  182SAPE  C31120870   0.432   2.559   3.722  0.2532  0.0800 -0.0955
  182SAPE  H11X20871   0.537   2.526   3.731  0.7361  1.0289 -1.8199
  182SAPE  H11Y20872   0.373   2.475   3.679  2.8777 -0.7618 -2.3519
  182SAPE  C31220873   0.366   2.589   3.858  0.2232 -0.3339 -0.0939
  182SAPE  H12X20874   0.259   2.619   3.858  0.8288  1.9452 -0.1625
  182SAPE  H12Y20875   0.416   2.675   3.907 -0.6018  0.1372 -0.0535
  182SAPE  C31320876   0.383   2.475   3.964  0.1328  0.0087 -0.3205
  182SAPE  H13X20877   0.351   2.515   4.063 -3.2332  0.6205 -1.5142
  182SAPE  H13Y20878   0.490   2.449   3.979  0.5764  0.2550 -2.6825
  182SAPE  C31420879   0.317   2.346   3.923 -0.3893  0.3832  0.3250
  182SAPE  H14X20880   0.359   2.310   3.826  0.1153  2.0220 -0.0905
  182SAPE  H14Y20881   0.208   2.364   3.907 -0.0634  1.6296 -0.7324
  182SAPE  C31520882   0.343   2.239   4.030  0.3412  0.0528  0.3017
  182SAPE  H15X20883   0.303   2.280   4.125 -2.0411  1.1663 -1.0762
  182SAPE  H15Y20884   0.452   2.238   4.051  0.2478  0.4252  0.8191
  182SAPE  C31620885   0.301   2.099   3.984  0.4671  0.0662 -0.0397
  182SAPE  H16X20886   0.337   2.069   3.883  0.8073  1.7609 -0.4460
  182SAPE  H16Y20887   0.192   2.104   3.963  0.4746  0.1145 -0.0665
  182SAPE  C31720888   0.322   1.987   4.082  0.2148 -0.5425 -0.4971
  182SAPE  H17X20889   0.427   1.952   4.092 -0.3831 -2.2704  0.1418
  182SAPE  H17Y20890   0.266   1.897   4.049  1.6906 -1.4998 -0.4465
  182SAPE  C31820891   0.280   2.027   4.221  0.1340 -0.1711  0.3274
  182SAPE  H18X20892   0.293   1.944   4.294  2.1231  1.1275  1.5337
  182SAPE  H18Y20893   0.177   2.065   4.236 -0.4381 -0.5931 -2.0962
  182SAPE  H18Z20894   0.350   2.109   4.249 -1.6883  1.1447  1.2514
  183SAPE     N20895   5.793   2.775   2.094 -0.0236 -0.3069  0.1683
  183SAPE   HN120896   5.693   2.800   2.106 -1.8717 -3.4675 -5.0618
  183SAPE   HN220897   5.848   2.839   2.155 -0.3380  1.0678 -0.9362
  183SAPE   HN320898   5.824   2.804   1.999  2.2386 -1.0558  0.6094
  183SAPE   C1220899   5.813   2.626   2.112  0.1515 -0.6888 -0.1417
  183SAPE  H12A20900   5.736   2.571   2.054  1.0152  0.1965 -2.2566
  183SAPE  H12B20901   5.797   2.614   2.221 -0.4868 -0.9524 -0.2641
  183SAPE   C1120902   5.956   2.570   2.090  0.2047  0.2559  0.6064
  183SAPE  H11A20903   5.946   2.464   2.123  1.7111  0.0326  0.3819
  183SAPE  H11B20904   6.025   2.612   2.166 -1.6982  1.8445  1.5811
  183SAPE     P20905   5.989   2.481   1.850  0.0036 -0.1165  0.1779
  183SAPE   O1320906   5.871   2.520   1.768 -0.0137 -0.2100 -0.2149
  183SAPE   O1420907   6.122   2.469   1.782  0.3968 -0.2246  0.0335
  183SAPE   O1220908   6.009   2.595   1.961  0.2134  0.4286 -0.2175
  183SAPE   O1120909   5.970   2.341   1.918  0.8568 -0.9157  0.3557
  183SAPE    C120910   5.841   2.283   1.901 -0.2425  0.1041  0.1969
  183SAPE    HA20911   5.767   2.365   1.918  1.6858  1.6713  1.5846
  183SAPE    HB20912   5.828   2.236   1.801  0.8043  1.5595 -0.6571
  183SAPE    C220913   5.832   2.178   2.017 -0.3834 -0.3918  0.1474
  183SAPE    HS20914   5.735   2.128   1.998 -0.0398 -1.5383  1.3043
  183SAPE   O2120915   5.840   2.238   2.151 -0.4536 -0.2139 -0.5756
  183SAPE   C2120916   5.736   2.205   2.227 -0.3768  0.1194  0.3981
  183SAPE   O2220917   5.653   2.114   2.203  0.4434 -0.1326  0.2448
  183SAPE   C2220918   5.745   2.288   2.356  0.1577  0.3810  0.7335
  183SAPE   H2R20919   5.802   2.230   2.432 -0.3377 -0.5287  0.4249
  183SAPE   H2S20920   5.804   2.378   2.329 -1.4878  0.6684 -2.4349
  183SAPE    C320921   5.941   2.068   1.998  0.5261  0.3198 -0.4082
  183SAPE    HX20922   6.035   2.116   1.966 -0.0173  1.4176 -0.3964
  183SAPE    HY20923   5.909   2.006   1.912 -3.3572 -0.7096  1.5039
  183SAPE   O3120924   5.957   1.992   2.117 -0.5465  0.4341  0.2549
  183SAPE   C3120925   5.853   1.908   2.130 -0.4175  1.0788 -0.6388
  183SAPE   O3220926   5.768   1.884   2.045  0.1880 -0.5617 -0.5314
  183SAPE   C3220927   5.876   1.843   2.266  0.7556  0.2027  0.3642
  183SAPE   H2X20928   5.903   1.933   2.327  2.1022  0.9538 -1.2799
  183SAPE   H2Y20929   5.963   1.774   2.263  0.7175  0.0967  1.2526
  183SAPE   C2320930   5.602   2.328   2.388 -0.0804  0.0908 -0.2446
  183SAPE   H3R20931   5.533   2.243   2.411  0.7329  0.0996  2.5111
  183SAPE   H3S20932   5.560   2.382   2.300  1.3338 -1.0376 -1.6832
  183SAPE   C2420933   5.597   2.419   2.513  0.4114 -0.5740  0.4964
  183SAPE   H4R20934   5.667   2.363   2.579  2.5851 -0.2119 -1.3657
  183SAPE   H4S20935   5.494   2.412   2.554 -0.2567  0.8176 -0.8437
  183SAPE   C2520936   5.648   2.566   2.498 -0.4171 -0.0320  0.2292
  183SAPE   H5R20937   5.612   2.638   2.424 -0.9880 -1.4346 -0.8979
  183SAPE   C2620938   5.715   2.631   2.587 -0.7268 -0.3424 -0.3597
  183SAPE   H6R20939   5.749   2.734   2.569 -0.3787 -0.1634  1.1846
  183SAPE   C2720940   5.766   2.588   2.728  0.4172  0.7699  0.6267
  183SAPE   H7R20941   5.705   2.498   2.752 -1.9561  1.4763 -2.0996
  183SAPE   H7S20942   5.750   2.671   2.800  1.8547 -0.8731  2.9730
  183SAPE   C2820943   5.910   2.545   2.725  0.7422 -0.7121  0.2444
  183SAPE   H8R20944   5.960   2.536   2.627  0.0017  1.4827 -0.3986
  183SAPE   C2920945   5.979   2.519   2.835  0.0485  0.2611 -0.5019
  183SAPE   H9R20946   6.082   2.482   2.823  0.2118  0.8152 -0.8345
  183SAPE  C21020947   5.928   2.525   2.977 -0.0569 -0.5559  0.2840
  183SAPE  H10R20948   5.831   2.580   2.977 -0.6716 -1.6063 -0.6821
  183SAPE  H10S20949   6.003   2.578   3.040  1.2359 -0.6174 -1.1515
  183SAPE  C21120950   5.891   2.391   3.038 -0.0610  0.3890 -0.6045
  183SAPE  H11R20951   5.892   2.305   2.970 -1.5266 -0.2585  0.1532
  183SAPE  C21220952   5.849   2.367   3.164  0.0016 -0.9953  0.5058
  183SAPE  H12R20953   5.832   2.263   3.194 -1.3071 -1.1331 -0.6084
  183SAPE  C21320954   5.834   2.471   3.272  0.5911  0.3584 -0.2642
  183SAPE  H13R20955   5.738   2.460   3.325 -1.0540  1.1090 -2.8861
  183SAPE  H13S20956   5.815   2.572   3.230 -0.1565 -0.1632 -1.2067
  183SAPE  C21420957   5.941   2.488   3.375 -0.0882 -0.2949  0.0896
  183SAPE  H14R20958   6.007   2.400   3.373 -0.7304 -0.9088  2.6282
  183SAPE  C21520959   5.956   2.579   3.471 -0.1966  0.0608  1.6854
  183SAPE  H15R20960   6.047   2.569   3.531  0.7520  0.3602  0.3314
  183SAPE  C21620961   5.863   2.699   3.489 -0.2340  0.0166 -0.0219
  183SAPE  H16R20962   5.757   2.667   3.497 -0.1320 -0.8930 -1.7822
  183SAPE  H16S20963   5.872   2.771   3.405 -3.3180  1.2843  0.6055
  183SAPE  C21720964   5.911   2.777   3.619  0.7620  0.3613 -0.1004
  183SAPE  H17R20965   5.862   2.875   3.635  0.1984 -0.3036  3.0991
  183SAPE  H17S20966   6.020   2.794   3.605  0.3785  1.3792 -2.1228
  183SAPE  C21820967   5.881   2.696   3.751 -0.0179  0.2910 -0.0455
  183SAPE  H18R20968   5.927   2.596   3.737  0.5522  0.4979  0.2885
  183SAPE  H18S20969   5.770   2.702   3.756 -0.1082 -1.5303  0.7122
  183SAPE  C21920970   5.941   2.772   3.868  0.4721 -0.0495 -0.4000
  183SAPE  H19R20971   5.897   2.873   3.886  0.9926 -0.1501  1.6783
  183SAPE  H19S20972   6.051   2.788   3.861  0.9789 -1.4339  2.7267
  183SAPE  C22020973   5.936   2.695   3.999 -0.3291 -1.0623  0.5295
  183SAPE  H20R20974   5.831   2.666   4.018 -1.3313  0.6860 -1.8661
  183SAPE  H20S20975   5.969   2.772   4.073 -0.7830  0.8572 -1.1700
  183SAPE  H20T20976   6.000   2.605   3.996 -0.3064 -1.0287 -0.0364
  183SAPE   C3320977   5.758   1.759   2.324  0.1197  0.7137  0.1744
  183SAPE   H3X20978   5.803   1.668   2.370  1.0084  0.8101 -0.4851
  183SAPE   H3Y20979   5.691   1.717   2.245 -1.2095  2.0708  0.5416
  183SAPE   C3420980   5.686   1.842   2.427 -0.0564  0.3003  0.0524
  183SAPE   H4X20981   5.583   1.803   2.441  0.6447 -0.5738  4.1284
  183SAPE   H4Y20982   5.680   1.947   2.391  1.1373  0.1599 -0.6153
  183SAPE   C3520983   5.747   1.831   2.564  0.2543  0.3770  0.1596
  183SAPE   H5X20984   5.858   1.839   2.551  0.4625 -0.2540  1.4180
  183SAPE   H5Y20985   5.738   1.730   2.607  1.5709  0.3299  0.3625
  183SAPE   C3620986   5.703   1.937   2.663 -0.2256 -0.0788  0.1407
  183SAPE   H6X20987   5.594   1.926   2.682 -0.0229 -0.9289  0.8940
  183SAPE   H6Y20988   5.714   2.038   2.620 -2.8193 -0.6710 -2.2098
  183SAPE   C3720989   5.778   1.932   2.794 -0.6512 -0.6452 -0.3406
  183SAPE   H7X20990   5.880   1.975   2.789 -0.6842 -0.4430  0.4793
  183SAPE   H7Y20991   5.776   1.826   2.826 -2.4823 -0.4760  0.2243
  183SAPE   C3820992   5.715   2.020   2.908  0.5268 -0.6467 -0.2265
  183SAPE   H8X20993   5.699   2.122   2.867 -4.2551 -1.1506 -0.2753
  183SAPE   H8Y20994   5.796   2.024   2.983  0.4741  0.4607 -0.2123
  183SAPE   C3920995   5.583   1.962   2.956 -0.2904  0.3703  0.1036
  183SAPE   H9X20996   5.554   1.875   2.892  1.1488 -0.5899  0.7002
  183SAPE   H9Y20997   5.510   2.042   2.931  0.6794  1.0868 -0.4858
  183SAPE  C31020998   5.560   1.948   3.105 -0.2174 -0.2418  0.1070
  183SAPE  H10X20999   5.454   1.942   3.137 -1.0330  0.6966 -2.1937
  183SAPE  H10Y21000   5.600   2.038   3.156 -0.5403  0.6933 -1.2265
  183SAPE  C31121001   5.636   1.826   3.159  0.0212 -0.8371  0.1206
  183SAPE  H11X21002   5.729   1.804   3.104  1.0113  0.1031  1.3490
  183SAPE  H11Y21003   5.563   1.743   3.165 -1.0092  0.1233  3.1457
  183SAPE  C31221004   5.670   1.830   3.312  0.1936 -0.3302 -0.0786
  183SAPE  H12X21005   5.751   1.905   3.321 -0.0105 -0.0200 -0.7951
  183SAPE  H12Y21006   5.703   1.731   3.351 -0.1289 -0.1888  0.5550
  183SAPE  C31321007   5.549   1.880   3.400 -0.1066 -1.0051  0.4553
  183SAPE  H13X21008   5.476   1.796   3.404 -0.2495 -0.9057 -0.0387
  183SAPE  H13Y21009   5.499   1.972   3.361  0.9903 -1.9395 -3.6972
  183SAPE  C31421010   5.594   1.910   3.549  0.1794 -0.3897  0.3143
  183SAPE  H14X21011   5.660   1.999   3.540 -1.5015  0.9541  0.6964
  183SAPE  H14Y21012   5.657   1.826   3.586  0.0959 -2.0381 -2.9569
  183SAPE  C31521013   5.476   1.923   3.646 -0.2434  0.6783  0.5065
  183SAPE  H15X21014   5.415   1.830   3.640  0.2174  0.4709 -1.6167
  183SAPE  H15Y21015   5.410   1.998   3.597 -0.4237 -0.6078 -1.3214
  183SAPE  C31621016   5.517   1.949   3.787 -0.8458 -0.1244  0.5203
  183SAPE  H16X21017   5.577   2.043   3.793 -2.6353  1.0370  1.3029
  183SAPE  H16Y21018   5.573   1.864   3.831  0.8652 -0.3627 -1.9276
  183SAPE  C31721019   5.389   1.962   3.873 -0.5932 -0.7669  0.2795
  183SAPE  H17X21020   5.335   1.866   3.859  0.7997 -1.1724 -3.6217
  183SAPE  H17Y21021   5.333   2.052   3.839 -0.5869 -0.7563  0.2982
  183SAPE  C31821022   5.416   1.980   4.019 -0.2277 -0.2280  0.0111
  183SAPE  H18X21023   5.443   2.082   4.053  1.1926 -1.0811  1.5701
  183SAPE  H18Y21024   5.491   1.903   4.047  0.0959 -0.1144 -0.5460
  183SAPE  H18Z21025   5.328   1.942   4.076 -1.6948  1.6051 -0.9271
  184SAPE     N21026   5.087   2.813   2.125  0.6627 -0.0895 -0.6022
  184SAPE   HN121027   5.126   2.723   2.090  0.4245 -0.1725 -0.6619
  184SAPE   HN221028   5.164   2.881   2.134  2.1509 -1.7166 -0.5511
  184SAPE   HN321029   5.056   2.802   2.224 -0.7116  0.8936 -0.8921
  184SAPE   C1221030   4.974   2.845   2.028  0.3560 -0.1366  0.4165
  184SAPE  H12A21031   5.009   2.880   1.929  2.1735 -0.5639  0.8759
  184SAPE  H12B21032   4.908   2.923   2.072  1.6206  1.4379 -0.3781
  184SAPE   C1121033   4.886   2.722   1.990 -1.0651 -0.5146 -0.0722
  184SAPE  H11A21034   4.941   2.660   1.915 -0.9186 -1.5615  0.8732
  184SAPE  H11B21035   4.804   2.769   1.932 -1.2533 -1.1870 -0.3670
  184SAPE     P21036   4.700   2.661   2.149  0.3339  0.0304 -0.0737
  184SAPE   O1321037   4.689   2.780   2.241  0.2675 -0.0785 -0.3962
  184SAPE   O1421038   4.614   2.649   2.030  0.1192 -1.0310  0.0637
  184SAPE   O1221039   4.851   2.643   2.101  0.3783 -0.1978  0.5149
  184SAPE   O1121040   4.659   2.534   2.232 -0.0911  0.4684  0.5237
  184SAPE    C121041   4.739   2.499   2.344 -0.0118 -0.2861 -0.1401
  184SAPE    HA21042   4.740   2.388   2.359  0.2126 -0.4860 -1.5614
  184SAPE    HB21043   4.843   2.536   2.334  0.1648  0.0114  2.1733
  184SAPE    C221044   4.695   2.565   2.474 -0.1132  0.7370  0.1704
  184SAPE    HS21045   4.711   2.674   2.478  2.2107  0.4183  1.4177
  184SAPE   O2121046   4.768   2.496   2.574  0.7134 -0.5167  0.3384
  184SAPE   C2121047   4.887   2.540   2.606 -0.0341  0.2699 -0.2279
  184SAPE   O2221048   4.950   2.635   2.562 -0.1885  0.3252 -0.0777
  184SAPE   C2221049   4.937   2.445   2.713  0.1584 -0.6189 -0.3241
  184SAPE   H2R21050   4.979   2.510   2.793 -1.9740 -1.4062  1.5385
  184SAPE   H2S21051   4.865   2.374   2.759  1.2892 -2.1823 -0.8642
  184SAPE    C321052   4.539   2.551   2.491 -0.1781  0.3388  0.5800
  184SAPE    HX21053   4.517   2.447   2.459 -0.4955  1.0255 -1.6303
  184SAPE    HY21054   4.490   2.612   2.412  0.3959 -0.3477 -0.3263
  184SAPE   O3121055   4.502   2.578   2.627 -0.5404 -0.0275  0.0710
  184SAPE   C3121056   4.394   2.520   2.673 -0.2975 -0.1884  0.2672
  184SAPE   O3221057   4.326   2.437   2.619 -0.1955  0.4263  0.3581
  184SAPE   C3221058   4.376   2.582   2.812  0.2349  0.3264  0.5108
  184SAPE   H2X21059   4.349   2.690   2.802  0.9438  0.5578  1.0092
  184SAPE   H2Y21060   4.474   2.566   2.861 -0.1302  0.2998  1.2484
  184SAPE   C2321061   5.066   2.356   2.673 -0.6340  0.1391  0.4676
  184SAPE   H3R21062   5.030   2.275   2.607  3.1163 -1.2401 -0.1658
  184SAPE   H3S21063   5.078   2.307   2.771 -1.5864  0.8089  0.9331
  184SAPE   C2421064   5.198   2.423   2.615  0.8922  0.2727 -0.1152
  184SAPE   H4R21065   5.175   2.461   2.514  2.0349  0.9575 -0.1287
  184SAPE   H4S21066   5.275   2.343   2.610  0.6664 -0.3115  3.3347
  184SAPE   C2521067   5.240   2.539   2.695  0.7507 -1.0855 -0.7056
  184SAPE   H5R21068   5.189   2.635   2.676  0.6129 -0.3343  2.7313
  184SAPE   C2621069   5.330   2.535   2.799 -0.7407  0.0665 -0.3127
  184SAPE   H6R21070   5.360   2.632   2.841  1.6638 -0.4820 -0.6229
  184SAPE   C2721071   5.405   2.417   2.866  0.0092  0.7236 -0.0040
  184SAPE   H7R21072   5.507   2.454   2.886  0.0833 -0.0880  1.2550
  184SAPE   H7S21073   5.411   2.343   2.783  0.6583 -0.3863  0.9997
  184SAPE   C2821074   5.330   2.352   2.977  1.1889  0.3472 -0.8424
  184SAPE   H8R21075   5.238   2.301   2.943  0.9487 -0.1762  0.5595
  184SAPE   C2921076   5.355   2.355   3.103 -0.0751 -0.2222 -0.2508
  184SAPE   H9R21077   5.279   2.304   3.165  1.7733  0.1620  2.5371
  184SAPE  C21021078   5.470   2.422   3.169  0.2250  0.3073 -0.4278
  184SAPE  H10R21079   5.524   2.492   3.102  0.5900  0.4904  0.0578
  184SAPE  H10S21080   5.546   2.342   3.185  0.9275  1.0378 -0.0662
  184SAPE  C21121081   5.433   2.502   3.287  0.1425  0.5420 -0.0009
  184SAPE  H11R21082   5.383   2.595   3.253  1.7889  1.4021 -0.1557
  184SAPE  C21221083   5.440   2.458   3.411 -0.4866  0.0894  0.0408
  184SAPE  H12R21084   5.397   2.513   3.496 -0.8774 -0.3236  0.1138
  184SAPE  C21321085   5.493   2.319   3.447  0.1000  0.3121 -0.1373
  184SAPE  H13R21086   5.502   2.242   3.367 -1.3348 -0.6058  0.5459
  184SAPE  H13S21087   5.419   2.279   3.520  0.2691 -0.0300 -0.1503
  184SAPE  C21421088   5.621   2.346   3.519 -0.7464 -0.4790  0.1276
  184SAPE  H14R21089   5.711   2.307   3.469 -1.6783 -0.7423 -1.3966
  184SAPE  C21521090   5.643   2.378   3.652  0.2781  0.6051 -0.0618
  184SAPE  H15R21091   5.740   2.420   3.681  0.3663  1.0011 -0.8864
  184SAPE  C21621092   5.524   2.402   3.750  0.5666 -0.1517 -0.2904
  184SAPE  H16R21093   5.522   2.329   3.834  1.4026  1.3225  1.0817
  184SAPE  H16S21094   5.427   2.392   3.696 -0.8741  2.3650  1.5986
  184SAPE  C21721095   5.538   2.542   3.821 -0.1402  0.2153 -0.2025
  184SAPE  H17R21096   5.645   2.561   3.844  0.0611  0.2520 -1.1272
  184SAPE  H17S21097   5.488   2.540   3.920 -1.5055 -0.0628 -0.8639
  184SAPE  C21821098   5.487   2.663   3.732  0.2001  0.1798 -0.7804
  184SAPE  H18R21099   5.387   2.631   3.694  1.1252 -1.8612 -1.6414
  184SAPE  H18S21100   5.559   2.665   3.648  2.2208 -0.4142  0.8487
  184SAPE  C21921101   5.486   2.792   3.808  0.8046  0.0529 -0.1634
  184SAPE  H19R21102   5.451   2.866   3.733 -1.0986  0.2401  0.8488
  184SAPE  H19S21103   5.588   2.807   3.851  0.8381 -0.7898  0.0657
  184SAPE  C22021104   5.379   2.796   3.921  0.6185 -0.2501 -0.2114
  184SAPE  H20R21105   5.351   2.897   3.957 -0.6903 -0.6279 -0.1266
  184SAPE  H20S21106   5.413   2.729   4.003 -1.5657 -2.8021 -1.2473
  184SAPE  H20T21107   5.288   2.744   3.883 -0.8367  0.9272  1.4922
  184SAPE   C3321108   4.267   2.512   2.898 -0.4669 -0.4902 -0.0302
  184SAPE   H3X21109   4.278   2.543   3.004 -1.7663 -1.4594  0.4109
  184SAPE   H3Y21110   4.273   2.401   2.894 -0.2991 -0.4536 -1.0215
  184SAPE   C3421111   4.122   2.548   2.852  0.3845  0.2753  1.2602
  184SAPE   H4X21112   4.123   2.515   2.746  2.3376  4.2522 -0.1335
  184SAPE   H4Y21113   4.093   2.654   2.835  0.6980  0.1736  0.0647
  184SAPE   C3521114   3.999   2.489   2.932 -0.9772  0.6242 -0.1405
  184SAPE   H5X21115   4.000   2.379   2.917  0.0137  0.9002 -2.5452
  184SAPE   H5Y21116   3.903   2.518   2.885 -0.1878  1.1431 -1.4946
  184SAPE   C3621117   4.024   2.517   3.078  0.0789  0.4905 -0.2135
  184SAPE   H6X21118   4.048   2.625   3.087 -2.0977  1.3270 -2.9204
  184SAPE   H6Y21119   4.107   2.453   3.113 -1.5455 -0.1235  2.8467
  184SAPE   C3721120   3.905   2.479   3.165 -0.4103 -0.8949  0.1129
  184SAPE   H7X21121   3.864   2.381   3.132 -0.2100 -1.2052  0.7593
  184SAPE   H7Y21122   3.819   2.546   3.147 -0.2199 -0.6102  0.2633
  184SAPE   C3821123   3.942   2.468   3.310 -0.3265 -0.5091 -0.6949
  184SAPE   H8X21124   3.977   2.560   3.362 -1.2972 -0.8204  0.5681
  184SAPE   H8Y21125   4.022   2.392   3.319 -1.1359 -1.2989  0.1032
  184SAPE   C3921126   3.826   2.410   3.383  0.0609  0.1777 -0.3016
  184SAPE   H9X21127   3.815   2.308   3.342  1.6478  0.5812 -1.8927
  184SAPE   H9Y21128   3.735   2.473   3.374 -0.2950 -0.4081 -0.9324
  184SAPE  C31021129   3.849   2.394   3.529  0.1932  0.0037 -0.6019
  184SAPE  H10X21130   3.930   2.321   3.553 -1.3742 -1.1757  1.4391
  184SAPE  H10Y21131   3.768   2.337   3.579  0.2522  1.6103  1.4366
  184SAPE  C31121132   3.895   2.519   3.605  0.6500 -0.3518  0.5500
  184SAPE  H11X21133   3.998   2.549   3.576  0.4305  0.3701  0.4963
  184SAPE  H11Y21134   3.905   2.493   3.712  1.1843  0.4572  0.7052
  184SAPE  C31221135   3.800   2.645   3.595 -0.0919  0.6804  0.0991
  184SAPE  H12X21136   3.758   2.646   3.698  1.5075 -2.6931  0.8977
  184SAPE  H12Y21137   3.716   2.623   3.525 -1.1534 -0.9436  1.7894
  184SAPE  C31321138   3.873   2.775   3.545 -0.0831  0.7314  0.0243
  184SAPE  H13X21139   3.981   2.749   3.540 -0.8583 -2.8630 -0.7628
  184SAPE  H13Y21140   3.875   2.858   3.619  3.2984  1.4678 -0.7078
  184SAPE  C31421141   3.831   2.829   3.406  0.3453  0.1112 -0.4412
  184SAPE  H14X21142   3.722   2.845   3.417  0.3817 -0.4922  1.1864
  184SAPE  H14Y21143   3.836   2.744   3.334  1.1119 -0.6107  0.4376
  184SAPE  C31521144   3.893   2.961   3.367 -0.9844 -0.1100  0.1078
  184SAPE  H15X21145   3.999   2.934   3.348 -0.9405 -1.6151  2.1777
  184SAPE  H15Y21146   3.891   3.025   3.458 -0.5862 -0.7974  0.6087
  184SAPE  C31621147   3.825   3.012   3.232 -0.2330  0.3823 -0.3336
  184SAPE  H16X21148   3.841   3.122   3.228 -2.0315  0.6662 -0.8734
  184SAPE  H16Y21149   3.714   3.001   3.238 -0.2067  0.4543  0.3133
  184SAPE  C31721150   3.862   2.923   3.110 -0.0417 -0.0844  0.1676
  184SAPE  H17X21151   3.836   2.816   3.125 -3.6198  0.6118 -0.3483
  184SAPE  H17Y21152   3.972   2.926   3.092  0.2560 -0.1313  1.8005
  184SAPE  C31821153   3.789   2.956   2.980 -0.1329 -0.6660  0.5247
  184SAPE  H18X21154   3.836   2.885   2.909 -0.2283 -0.0741 -0.1450
  184SAPE  H18Y21155   3.819   3.060   2.953 -0.0528 -0.9495 -0.5485
  184SAPE  H18Z21156   3.678   2.945   2.981 -0.1584 -1.7080 -2.5249
  185SAPE     N21157   2.722   0.429   1.880  0.2492  0.5790  0.3034
  185SAPE   HN121158   2.636   0.485   1.897 -1.1987 -0.5662 -2.4590
  185SAPE   HN221159   2.807   0.488   1.881 -2.0538  4.2124 -0.7331
  185SAPE   HN321160   2.724   0.392   1.782  3.7083 -1.0024  0.8247
  185SAPE   C1221161   2.737   0.330   1.995 -0.0230  0.3531  0.2761
  185SAPE  H12A21162   2.663   0.248   1.989  0.9712 -0.4662 -3.3714
  185SAPE  H12B21163   2.716   0.395   2.084 -1.2823 -0.7044  0.7918
  185SAPE   C1121164   2.876   0.274   2.018  0.7149  0.3054  0.2774
  185SAPE  H11A21165   2.892   0.223   2.115  0.7174 -0.0100  0.1110
  185SAPE  H11B21166   2.933   0.369   2.023 -0.0080  0.6762  3.2144
  185SAPE     P21167   2.908   0.039   1.914 -0.2468 -0.0864  0.6191
  185SAPE   O1321168   2.769  -0.000   1.926  0.1484 -0.6317 -0.0926
  185SAPE   O1421169   2.985  -0.015   1.801  0.2507  0.3125 -0.1891
  185SAPE   O1221170   2.924   0.192   1.911 -0.1952 -0.9144 -0.0747
  185SAPE   O1121171   2.979  -0.001   2.056 -0.0656  0.7305  0.3424
  185SAPE    C121172   3.118   0.025   2.059 -0.2692 -0.1742  0.2536
  185SAPE    HA21173   3.172  -0.035   1.983 -2.0673 -0.4756 -0.8245
  185SAPE    HB21174   3.135   0.132   2.034 -2.3399 -0.3706 -2.3369
  185SAPE    C221175   3.195  -0.009   2.198  0.6451 -0.5540  0.2637
  185SAPE    HS21176   3.202  -0.120   2.200 -2.5749 -0.8611  0.5275
  185SAPE   O2121177   3.122   0.045   2.313  0.6129 -0.3961  0.1948
  185SAPE   C2121178   3.009  -0.019   2.347  0.3023 -0.4968  0.2394
  185SAPE   O2221179   2.978  -0.134   2.314 -1.1726 -0.2809 -0.1552
  185SAPE   C2221180   2.912   0.071   2.424  0.6622  0.1324 -0.0342
  185SAPE   H2R21181   2.901   0.166   2.368  3.4460  0.2040 -0.6304
  185SAPE   H2S21182   2.819   0.011   2.426  0.1507  0.8922 -0.5690
  185SAPE    C321183   3.334   0.050   2.195  0.1023 -0.0557 -0.1431
  185SAPE    HX21184   3.323   0.160   2.192  1.7693  0.1187 -0.4883
  185SAPE    HY21185   3.373   0.016   2.097  1.5038 -0.1875  0.4474
  185SAPE   O3121186   3.416   0.000   2.294 -0.3443  0.1122 -0.5612
  185SAPE   C3121187   3.437   0.080   2.398  0.4993 -0.2375  0.2433
  185SAPE   O3221188   3.389   0.191   2.410 -0.4109  0.3028 -0.1455
  185SAPE   C3221189   3.535   0.018   2.500 -0.4165  0.5963 -0.7372
  185SAPE   H2X21190   3.626   0.013   2.437  0.2962  0.5777  0.2741
  185SAPE   H2Y21191   3.506  -0.088   2.513  3.1609 -0.6532 -1.9732
  185SAPE   C2321192   2.965   0.115   2.560  0.2556  0.7280  0.6545
  185SAPE   H3R21193   2.890   0.162   2.627 -0.1496 -0.2534  0.9178
  185SAPE   H3S21194   3.042   0.193   2.541  0.1510  1.1890  2.0121
  185SAPE   C2421195   3.034  -0.006   2.640 -0.7938 -0.2124 -0.2237
  185SAPE   H4R21196   3.135  -0.018   2.597 -1.0985 -0.4772 -0.8746
  185SAPE   H4S21197   2.971  -0.097   2.628  0.2724 -1.1568  1.0910
  185SAPE   C2521198   3.039   0.021   2.790 -0.0380 -0.0835  0.5139
  185SAPE   H5R21199   3.034   0.124   2.828 -2.5659 -0.5181  1.5451
  185SAPE   C2621200   3.006  -0.056   2.895  0.5616  0.2145 -0.8582
  185SAPE   H6R21201   3.002  -0.015   2.997 -0.6993  0.1182 -0.8550
  185SAPE   C2721202   2.971  -0.199   2.889  0.0269  0.4594 -0.1947
  185SAPE   H7R21203   3.008  -0.247   2.797 -1.5906 -2.7144  0.6575
  185SAPE   H7S21204   2.860  -0.201   2.882  0.1286  0.3652 -2.4415
  185SAPE   C2821205   3.029  -0.271   3.008  0.0501 -0.5628 -0.4250
  185SAPE   H8R21206   3.109  -0.340   2.979  0.4656 -2.0105  3.4732
  185SAPE   C2921207   2.993  -0.278   3.141 -0.3803 -0.1463  0.2139
  185SAPE   H9R21208   3.049  -0.345   3.209  2.0355  1.1581 -0.3943
  185SAPE  C21021209   2.868  -0.200   3.196 -0.2256 -1.0589  0.6150
  185SAPE  H10R21210   2.783  -0.267   3.221 -1.5339 -0.7296 -2.4904
  185SAPE  H10S21211   2.831  -0.130   3.118 -1.4423 -1.9306  0.3748
  185SAPE  C21121212   2.904  -0.117   3.318  0.2677 -0.7179  0.3420
  185SAPE  H11R21213   2.972  -0.032   3.307 -1.1345  0.4712  0.5146
  185SAPE  C21221214   2.860  -0.141   3.442 -0.0915 -0.3503 -0.7718
  185SAPE  H12R21215   2.887  -0.064   3.516  0.0432 -1.2863  0.1718
  185SAPE  C21321216   2.772  -0.255   3.486  0.3132  0.2255  0.2250
  185SAPE  H13R21217   2.769  -0.338   3.411  1.1053  1.5474 -1.3221
  185SAPE  H13S21218   2.670  -0.211   3.482  0.7755  1.2545 -0.9243
  185SAPE  C21421219   2.777  -0.316   3.622  0.6698  0.6896  0.5471
  185SAPE  H14R21220   2.822  -0.416   3.629 -1.6966 -0.6641 -1.9339
  185SAPE  C21521221   2.722  -0.258   3.733 -0.3628  0.6685  0.2763
  185SAPE  H15R21222   2.705  -0.317   3.824 -1.3710 -0.8155 -0.8111
  185SAPE  C21621223   2.640  -0.128   3.737  0.1106  0.2951  0.5517
  185SAPE  H16R21224   2.536  -0.156   3.763 -0.9734  4.0118  0.6821
  185SAPE  H16S21225   2.643  -0.068   3.644 -1.1442  1.9862  1.5494
  185SAPE  C21721226   2.692  -0.045   3.859 -0.2078  0.2980 -0.2748
  185SAPE  H17R21227   2.638   0.052   3.850 -1.4526 -0.4088 -0.6312
  185SAPE  H17S21228   2.800  -0.021   3.846 -0.5103  0.9002 -1.8882
  185SAPE  C21821229   2.665  -0.105   4.003  0.1581 -0.2151 -0.4637
  185SAPE  H18R21230   2.735  -0.190   4.013 -0.4760 -0.5653  1.3106
  185SAPE  H18S21231   2.556  -0.127   4.013  0.2369 -0.2383  0.3768
  185SAPE  C21921232   2.699  -0.013   4.116 -0.3634 -0.0919  0.7805
  185SAPE  H19R21233   2.647   0.084   4.102 -0.7209 -0.1175  1.8622
  185SAPE  H19S21234   2.808   0.003   4.108 -0.1726 -1.4369  0.3988
  185SAPE  C22021235   2.671  -0.061   4.260  0.6505 -0.2717  0.3694
  185SAPE  H20R21236   2.564  -0.088   4.274  0.2982  0.4435 -0.8737
  185SAPE  H20S21237   2.688   0.024   4.329 -2.7641  0.8956 -0.0570
  185SAPE  H20T21238   2.736  -0.145   4.294  0.3002 -1.4094 -1.6371
  185SAPE   C3321239   3.565   0.107   2.621  0.5669  0.7048  0.3807
  185SAPE   H3X21240   3.581   0.209   2.580 -0.6146  0.1910 -1.5185
  185SAPE   H3Y21241   3.658   0.074   2.671  0.1663 -1.5079 -0.2033
  185SAPE   C3421242   3.453   0.109   2.724  0.4855 -0.0837  0.0193
  185SAPE   H4X21243   3.419   0.004   2.735 -0.1392  0.0876 -0.1973
  185SAPE   H4Y21244   3.367   0.166   2.683 -0.5402 -1.1403  0.6411
  185SAPE   C3521245   3.512   0.161   2.862  0.6841 -0.7476  0.9408
  185SAPE   H5X21246   3.543   0.268   2.859 -0.5483 -0.3886 -0.9992
  185SAPE   H5Y21247   3.602   0.098   2.879 -0.8775 -2.5708  3.0024
  185SAPE   C3621248   3.424   0.145   2.982  0.0880  0.0412 -0.3912
  185SAPE   H6X21249   3.340   0.217   2.994 -0.0896 -0.1942 -0.2058
  185SAPE   H6Y21250   3.480   0.164   3.076  0.5940 -2.8614 -0.0093
  185SAPE   C3721251   3.352   0.017   2.988 -0.1476 -0.4252  0.2443
  185SAPE   H7X21252   3.418  -0.072   2.978 -1.5620 -1.4655 -0.2181
  185SAPE   H7Y21253   3.267   0.007   2.917 -0.2835 -0.1440  0.3644
  185SAPE   C3821254   3.278  -0.001   3.122  0.4192 -0.0672  0.2154
  185SAPE   H8X21255   3.225  -0.099   3.115 -0.7189  0.6505 -2.7111
  185SAPE   H8Y21256   3.193   0.070   3.127 -1.6907 -2.4571  0.6603
  185SAPE   C3921257   3.362   0.001   3.241 -0.1914  0.4797 -0.1280
  185SAPE   H9X21258   3.430   0.087   3.254  0.6891 -0.1302 -0.5981
  185SAPE   H9Y21259   3.427  -0.089   3.252  0.0220  0.7158  0.5842
  185SAPE  C31021260   3.277   0.015   3.369 -0.1443  0.2434  0.0501
  185SAPE  H10X21261   3.205  -0.069   3.359 -0.4031  0.3219  1.1297
  185SAPE  H10Y21262   3.212   0.105   3.366 -0.7599 -0.2151 -0.9561
  185SAPE  C31121263   3.353   0.011   3.504  0.6133 -0.2588 -0.2259
  185SAPE  H11X21264   3.417   0.102   3.509  2.4051 -1.5195  1.1441
  185SAPE  H11Y21265   3.423  -0.075   3.507 -0.8002 -1.4697 -0.4077
  185SAPE  C31221266   3.251   0.002   3.621  0.0758 -0.0051  0.5706
  185SAPE  H12X21267   3.185  -0.087   3.623 -1.4283  1.0566 -0.1854
  185SAPE  H12Y21268   3.189   0.094   3.612  0.2241  0.1526  1.1421
  185SAPE  C31321269   3.328   0.006   3.752 -0.3997  0.6199 -0.4431
  185SAPE  H13X21270   3.410   0.080   3.765  1.4934 -1.4587  0.1223
  185SAPE  H13Y21271   3.388  -0.087   3.761 -0.3918  0.5377 -1.2460
  185SAPE  C31421272   3.233   0.011   3.881 -0.7844  0.6816  0.6531
  185SAPE  H14X21273   3.149  -0.055   3.850  0.2513  0.2482 -1.4464
  185SAPE  H14Y21274   3.194   0.113   3.900 -2.3550  0.2414  0.0202
  185SAPE  C31521275   3.316  -0.039   3.999  0.3502  0.3002 -0.7454
  185SAPE  H15X21276   3.394   0.038   4.016  0.3557  0.0509  0.4042
  185SAPE  H15Y21277   3.369  -0.134   3.977  0.5827  0.3246 -0.2858
  185SAPE  C31621278   3.230  -0.048   4.122 -0.1918  0.2973  0.0503
  185SAPE  H16X21279   3.184   0.053   4.132  0.7569  0.7517 -0.1231
  185SAPE  H16Y21280   3.305  -0.059   4.202 -2.5158  0.9187  2.4608
  185SAPE  C31721281   3.124  -0.158   4.125  0.5114  0.0494  0.0798
  185SAPE  H17X21282   3.029  -0.127   4.076  0.2003  0.0403  0.6706
  185SAPE  H17Y21283   3.097  -0.173   4.232 -0.6001  1.1400 -0.0240
  185SAPE  C31821284   3.179  -0.299   4.080 -0.3912 -0.2029  0.7018
  185SAPE  H18X21285   3.278  -0.317   4.127  0.8988  0.1842 -1.7305
  185SAPE  H18Y21286   3.187  -0.298   3.969 -0.9737  0.3495  0.6580
  185SAPE  H18Z21287   3.113  -0.385   4.105  0.1704 -1.1801 -0.9932
  186SAPE     N21288   6.425   2.720   2.460 -0.0377 -0.5642  0.1301
  186SAPE   HN121289   6.482   2.699   2.545 -1.4096  1.6742  1.6972
  186SAPE   HN221290   6.334   2.671   2.464  0.5533 -1.6326  1.3222
  186SAPE   HN321291   6.485   2.672   2.391 -0.3675 -1.0791  0.2009
  186SAPE   C1221292   6.410   2.869   2.433 -0.1769 -0.3900  0.0179
  186SAPE  H12A21293   6.497   2.937   2.436 -0.7840  0.4258 -0.5458
  186SAPE  H12B21294   6.350   2.915   2.515  0.8822 -3.3219  2.6280
  186SAPE   C1121295   6.356   2.885   2.297  0.0306 -0.5848  0.6399
  186SAPE  H11A21296   6.408   2.822   2.222  0.5983  1.7314 -1.0226
  186SAPE  H11B21297   6.363   2.985   2.249  1.4312 -1.1694 -0.4462
  186SAPE     P21298   6.093   2.926   2.349 -0.3959  0.5085  0.2514
  186SAPE   O1321299   6.133   3.068   2.377 -0.0851  0.7036 -0.3371
  186SAPE   O1421300   5.984   2.896   2.253 -0.9708 -0.2314  0.2040
  186SAPE   O1221301   6.216   2.834   2.294  0.2241  0.4286 -0.1140
  186SAPE   O1121302   6.066   2.856   2.492 -0.1086 -0.4545  0.1942
  186SAPE    C121303   5.996   2.932   2.597 -0.0658 -0.4620  0.0455
  186SAPE    HA21304   5.920   3.003   2.557 -1.4474 -2.1005 -0.3334
  186SAPE    HB21305   5.936   2.857   2.653  1.4309 -2.6654 -1.1433
  186SAPE    C221306   6.094   3.007   2.693  0.2155  0.5660 -0.1301
  186SAPE    HS21307   6.156   3.077   2.632 -0.6334  1.6884  0.2611
  186SAPE   O2121308   6.188   2.909   2.748  0.5980 -0.1297 -0.3870
  186SAPE   C2121309   6.289   2.961   2.808 -0.1188 -0.3954 -0.5399
  186SAPE   O2221310   6.315   3.077   2.815  0.7063  0.7507 -0.0119
  186SAPE   C2221311   6.382   2.850   2.867 -0.1256 -0.0278 -0.1464
  186SAPE   H2R21312   6.318   2.762   2.888  0.0291 -0.1741 -0.2911
  186SAPE   H2S21313   6.454   2.821   2.788  0.2275 -1.9254  0.8182
  186SAPE    C321314   6.023   3.076   2.816  0.7893  0.4116 -0.2601
  186SAPE    HX21315   5.959   3.157   2.774 -0.3240 -0.4031 -0.2010
  186SAPE    HY21316   6.094   3.136   2.876  1.8988  1.6020 -2.6238
  186SAPE   O3121317   5.945   2.977   2.898  0.2063  0.1293  0.7101
  186SAPE   C3121318   5.818   2.981   2.887  0.9030  0.6625 -0.1472
  186SAPE   O3221319   5.752   3.041   2.798 -0.4556  0.2646  0.1325
  186SAPE   C3221320   5.760   2.900   2.998  0.4660 -0.0584 -0.0151
  186SAPE   H2X21321   5.767   2.967   3.087  2.3510 -1.0028  0.5885
  186SAPE   H2Y21322   5.823   2.812   3.023  0.8667  0.0864 -0.4971
  186SAPE   C2321323   6.465   2.899   2.995 -0.1563  0.0537 -0.0128
  186SAPE   H3R21324   6.521   2.992   2.966 -0.1282  0.0099 -0.0990
  186SAPE   H3S21325   6.533   2.815   3.021 -1.0589 -0.2260  1.5321
  186SAPE   C2421326   6.386   2.935   3.117 -0.0314 -0.8022 -0.2718
  186SAPE   H4R21327   6.322   3.025   3.112  1.2727  0.1443 -0.5315
  186SAPE   H4S21328   6.457   2.972   3.193 -0.4633  1.5411 -0.9459
  186SAPE   C2521329   6.324   2.812   3.172  0.3261 -0.0447 -0.3767
  186SAPE   H5R21330   6.400   2.733   3.178 -0.9863 -1.2315  1.7396
  186SAPE   C2621331   6.198   2.792   3.217 -0.3559 -0.3449  0.4728
  186SAPE   H6R21332   6.164   2.689   3.233 -0.5971 -0.4412 -0.6063
  186SAPE   C2721333   6.092   2.903   3.209 -0.4037 -0.0885  0.0039
  186SAPE   H7R21334   5.992   2.859   3.190  0.1363 -0.1100 -3.2231
  186SAPE   H7S21335   6.120   2.968   3.124  1.7983 -0.5342  0.3176
  186SAPE   C2821336   6.085   2.982   3.341 -0.8589 -0.1122  0.8787
  186SAPE   H8R21337   6.142   2.932   3.420  0.5089 -0.8171 -0.4931
  186SAPE   C2921338   6.027   3.104   3.364  0.5851  0.0323 -0.4830
  186SAPE   H9R21339   6.030   3.146   3.465 -2.5078 -0.7192  0.0213
  186SAPE  C21021340   5.959   3.187   3.253  0.2992 -0.1406 -1.0264
  186SAPE  H10R21341   5.893   3.258   3.307 -1.0927 -1.3474 -1.0723
  186SAPE  H10S21342   5.889   3.118   3.202  0.4016 -0.6638 -0.4695
  186SAPE  C21121343   6.039   3.252   3.146 -0.1635 -0.1530 -0.3763
  186SAPE  H11R21344   6.132   3.203   3.116  1.1835  2.5443 -0.8936
  186SAPE  C21221345   5.994   3.360   3.079 -0.1265  0.2109 -0.3882
  186SAPE  H12R21346   6.055   3.398   2.996  1.4445 -0.7441  0.2722
  186SAPE  C21321347   5.862   3.437   3.090 -0.3600  0.0104  0.5406
  186SAPE  H13R21348   5.870   3.546   3.071 -2.4694  0.0908 -0.1722
  186SAPE  H13S21349   5.820   3.426   3.192 -1.5010 -0.4380  0.0427
  186SAPE  C21421350   5.764   3.377   2.997  0.5064 -0.6713 -0.1002
  186SAPE  H14R21351   5.792   3.371   2.890 -0.2307  0.4123 -0.3688
  186SAPE  C21521352   5.638   3.347   3.026 -0.0426  0.5485 -0.6926
  186SAPE  H15R21353   5.565   3.317   2.950 -0.4198 -0.8767  0.1959
  186SAPE  C21621354   5.568   3.349   3.157 -0.0133  0.6396  0.1137
  186SAPE  H16R21355   5.646   3.351   3.237  0.5412  0.7239 -0.4169
  186SAPE  H16S21356   5.512   3.255   3.171  0.0506  0.5916  0.0461
  186SAPE  C21721357   5.468   3.459   3.175  0.3012 -1.1273  0.2656
  186SAPE  H17R21358   5.405   3.455   3.083 -1.2339  1.0129  1.1495
  186SAPE  H17S21359   5.519   3.558   3.176 -0.8062 -0.5326  1.9615
  186SAPE  C21821360   5.381   3.454   3.299  0.9311  0.2259 -0.2686
  186SAPE  H18R21361   5.447   3.457   3.388  0.1109  2.1311  0.3401
  186SAPE  H18S21362   5.331   3.355   3.298  0.9252  0.1352  2.4611
  186SAPE  C21921363   5.275   3.563   3.310 -0.3581  0.3115 -1.5401
  186SAPE  H19R21364   5.203   3.534   3.390 -0.2729  1.4204 -1.0468
  186SAPE  H19S21365   5.211   3.574   3.220 -3.5919 -0.1483  0.5320
  186SAPE  C22021366   5.329   3.699   3.348 -0.2766 -0.5686  0.5613
  186SAPE  H20R21367   5.244   3.769   3.363  1.6969  1.7665  1.4712
  186SAPE  H20S21368   5.392   3.735   3.263 -0.6199 -0.6186  0.2832
  186SAPE  H20T21369   5.396   3.700   3.437  0.5364  2.3259  0.0225
  186SAPE   C3321370   5.608   2.879   2.967 -0.0726 -0.0947  0.6178
  186SAPE   H3X21371   5.600   2.812   2.879 -0.9792 -0.3551  0.8883
  186SAPE   H3Y21372   5.559   2.977   2.946 -0.5373  0.3150  3.3281
  186SAPE   C3421373   5.533   2.803   3.075 -0.3592 -0.3470  0.4285
  186SAPE   H4X21374   5.601   2.729   3.123  1.9087  0.9063 -0.7428
  186SAPE   H4Y21375   5.444   2.757   3.026  0.7828 -0.9817 -1.1161
  186SAPE   C3521376   5.478   2.896   3.190 -0.5440  0.8504 -0.4428
  186SAPE   H5X21377   5.394   2.840   3.238  0.3306  0.1984  0.3648
  186SAPE   H5Y21378   5.443   2.989   3.140  2.0643  0.7648 -2.6152
  186SAPE   C3621379   5.590   2.923   3.301 -0.6732 -0.4730 -0.0196
  186SAPE   H6X21380   5.669   2.985   3.255 -0.8502  1.2666  1.8373
  186SAPE   H6Y21381   5.636   2.828   3.334  2.2503  0.8368  0.0120
  186SAPE   C3721382   5.537   3.008   3.414  0.0812  0.4375  0.3901
  186SAPE   H7X21383   5.463   2.949   3.472 -0.5077  2.7028  2.0957
  186SAPE   H7Y21384   5.485   3.093   3.364  0.8226  0.3606 -0.5208
  186SAPE   C3821385   5.647   3.049   3.513 -0.0221 -0.1267  0.1058
  186SAPE   H8X21386   5.718   3.112   3.453 -2.1117  1.5534 -0.7481
  186SAPE   H8Y21387   5.697   2.964   3.564 -0.2189  0.2371  0.9103
  186SAPE   C3921388   5.600   3.153   3.622 -0.1296  0.1826  0.3149
  186SAPE   H9X21389   5.529   3.109   3.696  0.0645 -1.1845 -0.2759
  186SAPE   H9Y21390   5.544   3.232   3.567 -0.0562 -0.0983 -0.1716
  186SAPE  C31021391   5.721   3.205   3.694  0.5267  0.0910  0.3320
  186SAPE  H10X21392   5.785   3.258   3.620 -0.0851  1.2411  0.6043
  186SAPE  H10Y21393   5.775   3.118   3.737  0.1373 -0.1160  0.4035
  186SAPE  C31121394   5.684   3.295   3.811  0.1760 -0.3539  0.2461
  186SAPE  H11X21395   5.602   3.358   3.773 -0.3694 -1.8349 -1.1598
  186SAPE  H11Y21396   5.767   3.365   3.834  0.4681 -0.5455 -0.2118
  186SAPE  C31221397   5.650   3.232   3.949  0.1380 -0.8563 -0.5725
  186SAPE  H12X21398   5.659   3.309   4.028 -1.1707 -1.4702  0.2227
  186SAPE  H12Y21399   5.736   3.165   3.968  1.2371  1.1429  2.0722
  186SAPE  C31321400   5.511   3.174   3.957 -0.5857 -0.4199  0.2978
  186SAPE  H13X21401   5.512   3.091   3.884 -0.7302  0.4523 -0.7085
  186SAPE  H13Y21402   5.436   3.251   3.929 -1.0056 -1.4601 -1.6013
  186SAPE  C31421403   5.479   3.122   4.105  0.6937 -0.5430  0.2162
  186SAPE  H14X21404   5.558   3.045   4.119  1.7364  0.2509 -1.0604
  186SAPE  H14Y21405   5.388   3.059   4.112  1.1120 -1.2562 -0.4942
  186SAPE  C31521406   5.469   3.228   4.217 -0.3253  0.0012  0.2603
  186SAPE  H15X21407   5.539   3.310   4.188  1.6262 -1.5906  0.2342
  186SAPE  H15Y21408   5.509   3.179   4.308  0.7477  1.2424  0.4894
  186SAPE  C31621409   5.324   3.275   4.256  0.0310 -0.7417 -0.4296
  186SAPE  H16X21410   5.273   3.187   4.300  0.3684 -0.4168  0.6624
  186SAPE  H16Y21411   5.272   3.318   4.168 -0.0494  0.5203  0.2050
  186SAPE  C31721412   5.325   3.379   4.375 -0.3283  0.1977 -0.4539
  186SAPE  H17X21413   5.401   3.455   4.347  0.5255 -0.7020 -0.6260
  186SAPE  H17Y21414   5.371   3.310   4.448 -1.1079  0.1142 -0.0325
  186SAPE  C31821415   5.183   3.430   4.410 -0.1515  0.3374  0.7129
  186SAPE  H18X21416   5.181   3.469   4.514  0.5210 -1.2379  1.3537
  186SAPE  H18Y21417   5.114   3.343   4.409  3.6636 -3.0269  0.1073
  186SAPE  H18Z21418   5.145   3.498   4.331  0.7812 -1.3015 -1.2664
  187SAPE     N21419   6.678   6.972   1.957 -0.2730 -0.0682 -0.3121
  187SAPE   HN121420   6.780   6.984   1.975  0.5189 -3.6473 -1.4594
  187SAPE   HN221421   6.653   6.871   1.959 -1.9902  0.3470  0.6595
  187SAPE   HN321422   6.649   7.005   1.862  0.0782  1.3835  0.0645
  187SAPE   C1221423   6.588   7.032   2.054 -0.3144  0.1799 -0.5100
  187SAPE  H12A21424   6.614   7.140   2.062 -1.2704  0.4649 -1.0815
  187SAPE  H12B21425   6.597   6.989   2.156  2.2543  1.5026 -0.0784
  187SAPE   C1121426   6.447   7.015   2.005  0.1973  0.1632  0.0114
  187SAPE  H11A21427   6.439   7.074   1.912  1.3927 -0.0099 -0.2160
  187SAPE  H11B21428   6.369   7.049   2.077 -0.2993 -0.2035 -0.3480
  187SAPE     P21429   6.284   6.827   1.937 -0.3714 -0.4731 -0.2729
  187SAPE   O1321430   6.226   6.926   1.844  0.5124 -0.2813 -0.5741
  187SAPE   O1421431   6.289   6.688   1.889 -0.7221  0.0898  0.4982
  187SAPE   O1221432   6.426   6.877   1.975  0.2224  0.5318 -0.2500
  187SAPE   O1121433   6.205   6.839   2.075  0.5319  0.2873  0.1131
  187SAPE    C121434   6.107   6.944   2.098 -0.0565  0.4659  0.5207
  187SAPE    HA21435   6.155   7.044   2.096 -0.6200  0.7142 -0.7977
  187SAPE    HB21436   6.024   6.944   2.025 -1.6659  0.3373  2.2568
  187SAPE    C221437   6.053   6.924   2.242 -0.0507  0.2299  0.0269
  187SAPE    HS21438   6.007   7.022   2.268  0.9242  0.7637 -0.2191
  187SAPE   O2121439   6.151   6.871   2.329 -0.0899 -0.2378  0.8814
  187SAPE   C2121440   6.243   6.957   2.365  0.6140  0.1101  0.5222
  187SAPE   O2221441   6.226   7.084   2.362  0.4964 -0.3918  0.0166
  187SAPE   C2221442   6.372   6.887   2.390  0.8011  0.1731 -0.7129
  187SAPE   H2R21443   6.349   6.798   2.453  0.9557 -0.6006 -1.7275
  187SAPE   H2S21444   6.400   6.844   2.291  0.0333 -0.7087 -0.5566
  187SAPE    C321445   5.937   6.827   2.223  0.0399 -0.5380  1.0789
  187SAPE    HX21446   5.988   6.743   2.170  0.4158  1.1428 -1.3841
  187SAPE    HY21447   5.864   6.869   2.150 -1.0529 -1.4383  1.6192
  187SAPE   O3121448   5.889   6.777   2.346 -0.1479 -0.3605  0.3449
  187SAPE   C3121449   5.782   6.841   2.391  0.6111  0.0362  0.2850
  187SAPE   O3221450   5.729   6.939   2.339 -0.4055 -0.3733  0.2378
  187SAPE   C3221451   5.731   6.770   2.519 -0.6673 -0.3652 -0.9401
  187SAPE   H2X21452   5.735   6.659   2.508  1.5749 -0.8328  2.7843
  187SAPE   H2Y21453   5.632   6.814   2.544  0.7362  1.9698  0.8652
  187SAPE   C2321454   6.471   6.980   2.460  0.4276 -0.0909 -0.1228
  187SAPE   H3R21455   6.495   7.073   2.403  0.6472 -0.1116 -0.0617
  187SAPE   H3S21456   6.570   6.933   2.471  0.9171  1.3055  1.9240
  187SAPE   C2421457   6.426   7.029   2.602  0.0993  0.2616  0.1290
  187SAPE   H4R21458   6.329   7.081   2.591  0.9584  1.9560  0.1297
  187SAPE   H4S21459   6.494   7.107   2.643 -1.5367  0.7201  2.0974
  187SAPE   C2521460   6.406   6.913   2.695 -0.3336 -0.5990  0.5475
  187SAPE   H5R21461   6.358   6.826   2.648 -0.9947 -0.3284  0.7118
  187SAPE   C2621462   6.450   6.904   2.824 -0.0497 -0.0552  0.7992
  187SAPE   H6R21463   6.438   6.805   2.871 -2.3149 -0.0933  0.2795
  187SAPE   C2721464   6.538   7.002   2.900  0.4354 -0.1342  0.4417
  187SAPE   H7R21465   6.562   7.093   2.842 -1.4929 -0.0248 -0.2632
  187SAPE   H7S21466   6.635   6.950   2.912  0.6121  0.0667 -0.1076
  187SAPE   C2821467   6.492   7.037   3.046 -0.3152 -0.0359 -0.1883
  187SAPE   H8R21468   6.409   7.109   3.055  1.1354  1.5091  1.6227
  187SAPE   C2921469   6.521   6.971   3.157  0.1124 -0.5391  0.1132
  187SAPE   H9R21470   6.469   7.001   3.249 -0.5602  0.9997 -0.7252
  187SAPE  C21021471   6.602   6.845   3.162 -0.9346  0.5799  0.1441
  187SAPE  H10R21472   6.674   6.856   3.246 -1.5982  1.7922  0.5823
  187SAPE  H10S21473   6.673   6.829   3.078 -2.5054 -3.8011 -0.6110
  187SAPE  C21121474   6.540   6.708   3.174 -0.5525  0.6302 -0.9220
  187SAPE  H11R21475   6.441   6.709   3.126 -0.4822 -0.6707 -1.1417
  187SAPE  C21221476   6.599   6.587   3.206 -0.8026  0.2085 -0.0224
  187SAPE  H12R21477   6.543   6.493   3.215 -2.5112  1.2934  1.2703
  187SAPE  C21321478   6.746   6.573   3.241  0.6652 -0.5300  0.2361
  187SAPE  H13R21479   6.815   6.644   3.191  1.3011 -0.9606  0.4872
  187SAPE  H13S21480   6.775   6.474   3.197 -0.3399 -1.9251  2.5362
  187SAPE  C21421481   6.770   6.565   3.390  0.0103  0.1497 -0.2405
  187SAPE  H14R21482   6.730   6.647   3.451  0.3979  0.6762 -0.6857
  187SAPE  C21521483   6.840   6.470   3.453 -0.2566 -0.3788 -0.2801
  187SAPE  H15R21484   6.869   6.494   3.556  1.1671  1.7899 -1.1174
  187SAPE  C21621485   6.900   6.339   3.393 -0.4430  0.8543 -0.4626
  187SAPE  H16R21486   6.938   6.347   3.289  0.3628  0.8812 -0.1761
  187SAPE  H16S21487   6.826   6.256   3.395  0.7920 -0.3563 -2.1587
  187SAPE  C21721488   7.033   6.297   3.469  0.3420 -0.0733 -0.6017
  187SAPE  H17R21489   7.102   6.384   3.471  0.0616  0.1371  0.4879
  187SAPE  H17S21490   7.080   6.209   3.419  2.8490  1.4220 -1.0283
  187SAPE  C21821491   6.989   6.255   3.613  0.0142  0.0296 -0.0960
  187SAPE  H18R21492   6.903   6.185   3.607  0.2219 -0.4016  1.5571
  187SAPE  H18S21493   6.965   6.345   3.675  0.2348 -1.1779  1.8077
  187SAPE  C21921494   7.108   6.174   3.676 -0.5609  0.4441  0.0546
  187SAPE  H19R21495   7.116   6.086   3.608  1.0183 -0.1806  1.0150
  187SAPE  H19S21496   7.087   6.127   3.774 -2.8942 -1.4660 -1.2340
  187SAPE  C22021497   7.242   6.253   3.677 -0.5492  0.1591 -0.4567
  187SAPE  H20R21498   7.270   6.305   3.583  1.2231 -2.1927 -1.3055
  187SAPE  H20S21499   7.325   6.190   3.715 -0.7098 -0.9409 -1.8608
  187SAPE  H20T21500   7.234   6.329   3.758  2.3419 -1.1527  1.2073
  187SAPE   C3321501   5.821   6.779   2.649 -0.1249 -0.4305 -0.8284
  187SAPE   H3X21502   5.892   6.694   2.652  0.1441 -0.1826  1.5646
  187SAPE   H3Y21503   5.752   6.758   2.734  1.1395  1.7254  0.8124
  187SAPE   C3421504   5.885   6.916   2.657 -0.3406  0.2963  0.0316
  187SAPE   H4X21505   5.809   6.986   2.700  1.6688  2.2033  0.6559
  187SAPE   H4Y21506   5.929   6.951   2.562 -0.6181  0.7903  0.0785
  187SAPE   C3521507   6.012   6.923   2.754  0.3972 -0.1111 -0.2344
  187SAPE   H5X21508   6.061   7.020   2.734 -1.1630  0.6766 -0.3791
  187SAPE   H5Y21509   6.076   6.832   2.742 -0.9045 -1.4378  2.1091
  187SAPE   C3621510   5.955   6.925   2.902  0.0721 -0.6581 -0.5472
  187SAPE   H6X21511   5.896   6.832   2.918  2.2947 -1.9688  0.5017
  187SAPE   H6Y21512   5.891   7.016   2.909 -1.1081 -1.4277 -0.9536
  187SAPE   C3721513   6.069   6.933   3.011  0.2077 -0.6186  0.6256
  187SAPE   H7X21514   6.108   7.037   3.013 -1.0448 -0.1133 -0.1170
  187SAPE   H7Y21515   6.156   6.868   2.986  0.3013 -0.2888  0.0909
  187SAPE   C3821516   6.012   6.886   3.147 -1.2318  0.1925  0.2690
  187SAPE   H8X21517   5.963   6.791   3.117 -0.9867  0.0932  0.1818
  187SAPE   H8Y21518   5.924   6.946   3.180 -0.3200  0.3436  2.6751
  187SAPE   C3921519   6.125   6.878   3.247 -0.2062  0.1601  0.2281
  187SAPE   H9X21520   6.206   6.951   3.225 -0.0885 -0.4552 -1.5446
  187SAPE   H9Y21521   6.170   6.776   3.244 -1.0247 -0.2390  0.8489
  187SAPE  C31021522   6.067   6.899   3.392 -0.6343 -0.2352  0.5747
  187SAPE  H10X21523   5.959   6.875   3.394 -0.4564 -1.0118  1.4539
  187SAPE  H10Y21524   6.064   7.010   3.404  1.3736 -0.2548  1.6476
  187SAPE  C31121525   6.136   6.818   3.495  0.3727  0.1357  0.3441
  187SAPE  H11X21526   6.116   6.718   3.452 -0.6439  1.5262 -2.7031
  187SAPE  H11Y21527   6.082   6.838   3.590 -1.3981  0.3649 -0.6790
  187SAPE  C31221528   6.279   6.858   3.512  0.3690 -0.4021  0.8843
  187SAPE  H12X21529   6.278   6.968   3.526  0.2088 -0.1270 -1.1099
  187SAPE  H12Y21530   6.341   6.828   3.425 -1.5629 -1.0137 -0.3495
  187SAPE  C31321531   6.358   6.774   3.620  0.1160 -0.1043 -0.1734
  187SAPE  H13X21532   6.464   6.803   3.608  0.1648  0.2480  1.0237
  187SAPE  H13Y21533   6.344   6.664   3.607  2.0759 -0.3833 -0.2217
  187SAPE  C31421534   6.321   6.794   3.765 -0.2893  0.1025 -0.1624
  187SAPE  H14X21535   6.238   6.865   3.783 -0.7237 -0.7029  1.1546
  187SAPE  H14Y21536   6.410   6.824   3.825  0.0190  0.4157 -0.7723
  187SAPE  C31521537   6.270   6.663   3.824  0.2768 -0.4438 -0.8874
  187SAPE  H15X21538   6.359   6.596   3.829  1.5297  1.1741 -0.5695
  187SAPE  H15Y21539   6.203   6.616   3.749  1.1986 -2.2216 -0.6561
  187SAPE  C31621540   6.219   6.660   3.965 -0.4804  0.1353 -0.6035
  187SAPE  H16X21541   6.302   6.709   4.021  0.2317 -0.7132 -0.8929
  187SAPE  H16Y21542   6.215   6.554   3.999  0.1147  0.5940  0.9785
  187SAPE  C31721543   6.080   6.718   3.990 -0.0453 -0.6887  0.5676
  187SAPE  H17X21544   6.073   6.822   3.952 -0.9450 -0.6241  0.8850
  187SAPE  H17Y21545   6.067   6.729   4.100  1.4454  0.2408  0.6872
  187SAPE  C31821546   5.963   6.643   3.922 -0.3416  1.3081  0.0936
  187SAPE  H18X21547   5.986   6.627   3.815  2.9471  0.1067  0.8477
  187SAPE  H18Y21548   5.867   6.697   3.931 -1.1070 -0.1334  0.8733
  187SAPE  H18Z21549   5.947   6.539   3.960  2.3769  0.8751  0.2894
  188SAPE     N21550   6.141   0.098   1.666 -0.4222 -0.2090 -0.5377
  188SAPE   HN121551   6.052   0.100   1.720  0.1238 -0.0058  0.3783
  188SAPE   HN221552   6.113   0.111   1.567 -3.6441  1.4016  0.4379
  188SAPE   HN321553   6.193   0.009   1.678  2.9376  1.6272 -0.4344
  188SAPE   C1221554   6.229   0.211   1.715 -0.4347 -0.0436 -0.3437
  188SAPE  H12A21555   6.217   0.294   1.642  1.1852 -0.2525 -0.9108
  188SAPE  H12B21556   6.332   0.170   1.703 -0.3234 -0.1111  0.7596
  188SAPE   C1121557   6.202   0.250   1.861  0.9508 -0.5181  0.2271
  188SAPE  H11A21558   6.283   0.325   1.877  2.1266 -1.1260 -2.3411
  188SAPE  H11B21559   6.214   0.175   1.942 -0.2491 -0.7357  0.2219
  188SAPE     P21560   6.050   0.461   1.875 -0.1957 -0.1270  0.1622
  188SAPE   O1321561   6.152   0.517   1.961  0.3701 -0.3834  0.2110
  188SAPE   O1421562   6.058   0.512   1.734  0.1676 -0.0390  0.1033
  188SAPE   O1221563   6.067   0.305   1.872  0.2552 -0.4457 -0.6441
  188SAPE   O1121564   5.907   0.488   1.933  0.3728 -0.0898  0.6903
  188SAPE    C121565   5.828   0.397   2.006 -0.1905 -0.3286 -0.4817
  188SAPE    HA21566   5.724   0.435   2.001  0.4601  1.6728  0.4284
  188SAPE    HB21567   5.838   0.297   1.958  1.6038 -1.1525  1.4674
  188SAPE    C221568   5.852   0.392   2.162 -0.2990 -0.1316 -0.2298
  188SAPE    HS21569   5.754   0.363   2.208 -0.4309 -3.4880 -2.3061
  188SAPE   O2121570   5.896   0.525   2.207  0.1826  0.3698  0.4637
  188SAPE   C2121571   5.807   0.621   2.188  0.0319  0.4036 -0.1523
  188SAPE   O2221572   5.692   0.609   2.147 -0.0280  0.4386  0.1709
  188SAPE   C2221573   5.872   0.742   2.259 -0.2712 -0.2647  0.5952
  188SAPE   H2R21574   5.979   0.720   2.278  0.0206 -1.5984 -2.0580
  188SAPE   H2S21575   5.864   0.821   2.181  0.3260  0.8630  1.6559
  188SAPE    C321576   5.963   0.290   2.192  0.2561 -0.5423 -0.0234
  188SAPE    HX21577   6.059   0.316   2.143 -0.1320  0.1997 -0.4213
  188SAPE    HY21578   5.935   0.196   2.141 -1.5485  0.7315 -1.5269
  188SAPE   O3121579   5.966   0.259   2.331 -0.0224  0.6074 -0.1741
  188SAPE   C3121580   6.055   0.332   2.394 -0.1155  0.0316 -0.3137
  188SAPE   O3221581   6.125   0.418   2.346  0.2201 -0.4587  0.3436
  188SAPE   C3221582   6.062   0.291   2.541  0.0854  0.1064  0.0255
  188SAPE   H2X21583   6.095   0.185   2.547 -1.1423 -0.2732  0.3089
  188SAPE   H2Y21584   5.959   0.291   2.581  0.2995 -0.0307  0.5903
  188SAPE   C2321585   5.778   0.794   2.377 -0.2152 -0.9100  0.6305
  188SAPE   H3R21586   5.684   0.837   2.335  1.4813  1.6059 -0.8878
  188SAPE   H3S21587   5.838   0.877   2.420  0.8272  0.6001 -3.2542
  188SAPE   C2421588   5.732   0.690   2.478 -0.4578  0.5908 -0.0809
  188SAPE   H4R21589   5.682   0.606   2.423  2.6875 -0.7706 -1.0916
  188SAPE   H4S21590   5.655   0.732   2.546  0.0405  2.0533 -0.4018
  188SAPE   C2521591   5.856   0.643   2.553 -0.2684 -0.4237  0.3117
  188SAPE   H5R21592   5.931   0.600   2.485  0.1024  2.2826 -1.1069
  188SAPE   C2621593   5.881   0.641   2.683 -0.6982  0.1697 -0.4953
  188SAPE   H6R21594   5.971   0.582   2.707 -0.5293 -0.4617 -2.4957
  188SAPE   C2721595   5.790   0.674   2.797  0.2031  0.0461  0.9144
  188SAPE   H7R21596   5.794   0.604   2.883  0.1146  0.9668  1.6856
  188SAPE   H7S21597   5.684   0.667   2.764  0.8168 -0.0784 -1.1474
  188SAPE   C2821598   5.816   0.809   2.849 -0.4553  0.1716 -0.1870
  188SAPE   H8R21599   5.863   0.876   2.776  0.0238 -0.3738 -0.3782
  188SAPE   C2921600   5.800   0.869   2.970  0.5237 -0.0747  0.4965
  188SAPE   H9R21601   5.845   0.969   2.978 -1.1427  0.8086 -0.7516
  188SAPE  C21021602   5.754   0.814   3.098  0.1562  0.4748 -1.0200
  188SAPE  H10R21603   5.765   0.703   3.101  2.9036  0.6534 -1.1127
  188SAPE  H10S21604   5.645   0.829   3.107  0.4418  2.7243 -0.6874
  188SAPE  C21121605   5.815   0.876   3.228  0.4946 -0.7185 -0.2081
  188SAPE  H11R21606   5.786   0.982   3.233  1.7440 -0.1553 -2.9541
  188SAPE  C21221607   5.870   0.817   3.334 -0.9925 -0.4337 -0.4163
  188SAPE  H12R21608   5.909   0.882   3.414 -0.7780 -0.9599 -0.0886
  188SAPE  C21321609   5.894   0.667   3.351 -0.1493  0.3635 -0.0640
  188SAPE  H13R21610   5.842   0.604   3.275 -0.4350  0.4582  0.0505
  188SAPE  H13S21611   5.857   0.640   3.452  0.0224  1.0621  0.1904
  188SAPE  C21421612   6.043   0.639   3.352 -0.3108 -0.7970 -0.0402
  188SAPE  H14R21613   6.092   0.647   3.254  2.9485  2.3366  1.6120
  188SAPE  C21521614   6.129   0.649   3.457  0.1972  0.3626  0.4282
  188SAPE  H15R21615   6.234   0.624   3.441 -0.2051 -0.8939 -0.3719
  188SAPE  C21621616   6.104   0.677   3.602  0.2297 -0.2549 -0.6401
  188SAPE  H16R21617   6.000   0.710   3.618  0.9564  1.6368  0.4559
  188SAPE  H16S21618   6.171   0.763   3.624  0.6766 -0.0321 -2.6604
  188SAPE  C21721619   6.132   0.561   3.697  0.2300 -0.3945  0.0419
  188SAPE  H17R21620   6.241   0.540   3.703  0.0413 -1.7165 -0.6796
  188SAPE  H17S21621   6.072   0.474   3.663 -1.4896  0.6086  0.4077
  188SAPE  C21821622   6.101   0.590   3.840  0.5132 -0.6553 -0.1450
  188SAPE  H18R21623   6.144   0.504   3.897 -0.5879 -1.5851 -0.6799
  188SAPE  H18S21624   5.994   0.585   3.867 -0.2523 -0.8617 -2.9272
  188SAPE  C21921625   6.169   0.725   3.882 -0.7514  0.8559  0.2167
  188SAPE  H19R21626   6.119   0.814   3.839 -1.4986  0.3520  0.0492
  188SAPE  H19S21627   6.279   0.727   3.864 -0.6834  0.1898  0.5197
  188SAPE  C22021628   6.155   0.742   4.040 -0.5496 -0.4906  0.5581
  188SAPE  H20R21629   6.049   0.742   4.074 -0.5937  3.9983  0.9850
  188SAPE  H20S21630   6.223   0.817   4.084 -2.7087  0.3202  2.7230
  188SAPE  H20T21631   6.201   0.650   4.084  0.9120 -0.6001 -1.0934
  188SAPE   C3321632   6.148   0.376   2.639 -0.0922 -0.3050 -0.4379
  188SAPE   H3X21633   6.133   0.485   2.624  0.1288 -0.5209 -2.4179
  188SAPE   H3Y21634   6.251   0.349   2.608  0.1473  0.3234 -0.2101
  188SAPE   C3421635   6.121   0.346   2.789  0.6934  0.0089  0.1376
  188SAPE   H4X21636   6.109   0.236   2.800 -1.9147  0.1060 -0.9806
  188SAPE   H4Y21637   6.024   0.388   2.822  1.1195  0.2155  1.1599
  188SAPE   C3521638   6.232   0.382   2.879  0.5770  0.3930 -0.2532
  188SAPE   H5X21639   6.239   0.492   2.887 -1.9081  0.6171 -0.2812
  188SAPE   H5Y21640   6.328   0.331   2.860  0.9819  0.4968  1.4087
  188SAPE   C3621641   6.203   0.335   3.025  0.3136 -0.1048  1.1921
  188SAPE   H6X21642   6.185   0.227   3.041 -1.4193  0.3073  2.1974
  188SAPE   H6Y21643   6.110   0.384   3.062  0.6293  1.5343 -0.0093
  188SAPE   C3721644   6.313   0.382   3.128  0.5374  0.4936  0.4588
  188SAPE   H7X21645   6.331   0.492   3.129 -0.3704  0.6527  0.3438
  188SAPE   H7Y21646   6.404   0.328   3.094 -0.2011 -0.2621 -0.3399
  188SAPE   C3821647   6.267   0.335   3.266 -0.8558 -0.1173  0.1887
  188SAPE   H8X21648   6.203   0.245   3.249  0.0804 -0.4452 -2.0642
  188SAPE   H8Y21649   6.206   0.419   3.303 -2.9115 -2.1905  1.8439
  188SAPE   C3921650   6.373   0.314   3.370  0.4231  0.1195 -0.2978
  188SAPE   H9X21651   6.436   0.405   3.385  1.1996 -0.3809 -0.4293
  188SAPE   H9Y21652   6.446   0.237   3.338  0.7717  0.4680 -0.3551
  188SAPE  C31021653   6.322   0.262   3.510  0.1713  0.1356  1.0379
  188SAPE  H10X21654   6.262   0.171   3.488  1.4642 -0.3045 -0.8352
  188SAPE  H10Y21655   6.263   0.341   3.561  1.8195  1.8309  0.4157
  188SAPE  C31121656   6.435   0.223   3.596 -0.1321 -0.5480 -0.0338
  188SAPE  H11X21657   6.512   0.302   3.586 -1.1238  0.3157 -0.9519
  188SAPE  H11Y21658   6.486   0.126   3.578  0.5599 -0.5329  1.6289
  188SAPE  C31221659   6.393   0.213   3.746  0.4355  0.0506 -1.1506
  188SAPE  H12X21660   6.290   0.172   3.754  0.2878  0.7802  1.3112
  188SAPE  H12Y21661   6.389   0.319   3.779 -0.4825  0.2759 -1.9470
  188SAPE  C31321662   6.503   0.141   3.828  0.6891  0.1517 -0.1590
  188SAPE  H13X21663   6.592   0.207   3.831  0.7635  0.0989 -0.8802
  188SAPE  H13Y21664   6.521   0.048   3.770  2.0748 -0.5316  1.2973
  188SAPE  C31421665   6.460   0.106   3.973 -0.8144  0.3961 -0.0495
  188SAPE  H14X21666   6.531   0.026   4.003 -1.0355 -0.0343 -0.6504
  188SAPE  H14Y21667   6.360   0.058   3.970  0.2039 -1.8429 -1.8495
  188SAPE  C31521668   6.452   0.226   4.072 -0.0899 -0.1866 -0.0086
  188SAPE  H15X21669   6.438   0.315   4.007 -1.9555 -1.1083 -0.9533
  188SAPE  H15Y21670   6.553   0.236   4.115 -0.3579 -0.0896  0.5972
  188SAPE  C31621671   6.349   0.204   4.196 -0.4404 -0.3284  0.0825
  188SAPE  H16X21672   6.376   0.107   4.243  0.8390 -0.3303 -0.6265
  188SAPE  H16Y21673   6.247   0.189   4.153  0.4454 -0.6307 -2.0585
  188SAPE  C31721674   6.360   0.307   4.310 -0.1643  0.0084  0.3893
  188SAPE  H17X21675   6.272   0.295   4.376 -1.3369 -1.1684 -1.3179
  188SAPE  H17Y21676   6.357   0.406   4.260 -2.9614  0.6332  1.5980
  188SAPE  C31821677   6.495   0.282   4.384  0.1733 -0.0947 -0.2601
  188SAPE  H18X21678   6.581   0.308   4.318  0.1086  0.6116 -0.0805
  188SAPE  H18Y21679   6.508   0.173   4.398 -0.9381 -0.1570  0.3759
  188SAPE  H18Z21680   6.511   0.334   4.481  2.0341 -1.8930  0.4616
  189SAPI   C1221681   5.911   2.916   6.274  0.5537 -0.1943  0.5505
  189SAPI    H221682   5.917   2.952   6.169  0.6669 -0.5951  0.4183
  189SAPI    O221683   6.045   2.887   6.327  0.3839  0.4043 -0.4046
  189SAPI   HO221684   6.052   2.796   6.296 -3.0848 -0.3180  0.4904
  189SAPI   C1321685   5.843   3.019   6.357  0.1018 -0.1304 -0.5591
  189SAPI    H321686   5.743   3.034   6.311  0.0895 -1.0968 -0.8658
  189SAPI    O321687   5.913   3.148   6.345 -0.1140  0.1776 -0.1274
  189SAPI   HO321688   5.995   3.132   6.391 -1.1220 -2.2908  0.9438
  189SAPI   C1421689   5.811   2.976   6.499  0.3513  1.2565 -0.0952
  189SAPI    H421690   5.910   2.957   6.545 -0.0333  0.5544  0.4628
  189SAPI    O421691   5.752   3.075   6.580  0.1141  0.1743  0.0538
  189SAPI   HO421692   5.675   3.112   6.536  0.9220 -0.6795 -2.2640
  189SAPI   C1521693   5.746   2.842   6.502 -0.1477  0.3516  0.3770
  189SAPI    H521694   5.641   2.854   6.466 -0.7112 -3.9014  0.0604
  189SAPI    O521695   5.728   2.800   6.639 -0.6066 -0.3424  0.0333
  189SAPI   HO521696   5.706   2.871   6.700  1.3317 -1.9282  2.8179
  189SAPI   C1621697   5.807   2.735   6.417 -0.1668  0.2744  0.5240
  189SAPI    H621698   5.897   2.701   6.472 -0.6926 -1.5730  0.3036
  189SAPI    O621699   5.728   2.618   6.408 -0.5426  0.0841  0.2969
  189SAPI   HO621700   5.727   2.598   6.314  0.8700  1.8189 -0.1331
  189SAPI   C1121701   5.830   2.784   6.275  0.5106 -0.2320  0.4896
  189SAPI    H121702   5.733   2.815   6.231  0.8962  1.0689  0.5151
  189SAPI     P21703   5.856   2.610   6.076  0.0454  0.1701 -0.2753
  189SAPI   O1321704   5.972   2.531   6.028 -0.0868  0.2490  0.2406
  189SAPI   O1421705   5.804   2.708   5.982 -0.2141  0.1503 -0.9192
  189SAPI   O1221706   5.911   2.693   6.204  0.4136  0.0465 -0.2488
  189SAPI   O1121707   5.741   2.527   6.144 -0.1734  0.0084 -0.3990
  189SAPI    C121708   5.711   2.397   6.105 -0.0181 -0.4046 -0.4304
  189SAPI    HA21709   5.668   2.390   6.002 -1.4852 -0.2054  0.1365
  189SAPI    HB21710   5.801   2.332   6.108 -0.0710 -0.5088 -0.9390
  189SAPI    C221711   5.591   2.349   6.199 -0.3392 -0.3156 -0.0336
  189SAPI    HS21712   5.631   2.331   6.302 -0.1063  0.6600  0.0507
  189SAPI   O2121713   5.533   2.225   6.150  0.9093 -0.7724 -0.0731
  189SAPI   C2121714   5.613   2.119   6.126  0.1410 -0.0541  0.2022
  189SAPI   O2221715   5.732   2.113   6.149  0.2871 -0.0241  0.0658
  189SAPI   C2221716   5.533   2.007   6.055 -0.0588  0.2055 -0.4346
  189SAPI   H2R21717   5.521   1.929   6.133 -0.2503  0.0932 -0.5760
  189SAPI   H2S21718   5.435   2.045   6.020  0.0890  0.5054 -0.5225
  189SAPI    C321719   5.483   2.460   6.216  0.2064  0.3503  0.4916
  189SAPI    HX21720   5.530   2.555   6.250 -0.2978  0.7031  0.2051
  189SAPI    HY21721   5.404   2.431   6.288 -2.0578  0.8049 -1.7025
  189SAPI   O3121722   5.418   2.473   6.081  0.4499  0.3379 -0.3782
  189SAPI   C3121723   5.309   2.404   6.067 -0.7270 -0.1540 -0.5880
  189SAPI   O3221724   5.254   2.338   6.153 -0.5162 -0.1891 -0.4463
  189SAPI   C3221725   5.257   2.426   5.933 -0.0108  0.1280  0.2586
  189SAPI   H2X21726   5.323   2.375   5.860 -0.0154 -0.0653  0.3892
  189SAPI   H2Y21727   5.251   2.534   5.909  1.8780 -0.2031 -1.9978
  189SAPI   C2321728   5.607   1.933   5.942  0.1039 -0.4340  0.5237
  189SAPI   H3R21729   5.553   1.837   5.922  0.1493 -0.1823 -0.9180
  189SAPI   H3S21730   5.707   1.906   5.983  0.7335  3.9359  2.4848
  189SAPI   C2421731   5.631   2.007   5.811 -0.8089  0.1200  0.0867
  189SAPI   H4R21732   5.685   1.928   5.755 -1.6593 -0.0041 -0.5775
  189SAPI   H4S21733   5.711   2.082   5.829 -1.1612  0.4085  0.4387
  189SAPI   C2521734   5.502   2.047   5.741 -0.7733  0.4585  0.5466
  189SAPI   H5R21735   5.452   2.140   5.773  0.8112  0.6185  2.8435
  189SAPI   C2621736   5.452   1.990   5.629 -0.1538 -0.2631  0.2712
  189SAPI   H6R21737   5.362   2.031   5.582  1.2107 -0.5473 -2.8542
  189SAPI   C2721738   5.501   1.875   5.549 -0.0055  0.5242 -0.0161
  189SAPI   H7R21739   5.408   1.820   5.524 -0.0465  1.9593 -3.7078
  189SAPI   H7S21740   5.563   1.804   5.607 -0.5860 -0.3767 -0.4699
  189SAPI   C2821741   5.565   1.916   5.424 -0.1866  0.4274  0.2894
  189SAPI   H8R21742   5.675   1.924   5.429 -0.0286  0.2119 -1.8729
  189SAPI   C2921743   5.499   1.947   5.306  0.3027 -0.4985 -0.0039
  189SAPI   H9R21744   5.560   1.972   5.218 -1.6524 -1.3121 -1.7046
  189SAPI  C21021745   5.347   1.948   5.292  0.2757  0.8031  1.1365
  189SAPI  H10R21746   5.318   2.036   5.230  0.8900  0.2881  0.0813
  189SAPI  H10S21747   5.297   1.961   5.390 -2.9079 -1.5530 -0.0019
  189SAPI  C21121748   5.286   1.822   5.225  0.6914 -0.1865  0.8217
  189SAPI  H11R21749   5.256   1.736   5.287  0.7051 -2.6734 -2.3447
  189SAPI  C21221750   5.252   1.817   5.092  0.0698  0.4605  0.7905
  189SAPI  H12R21751   5.220   1.723   5.044  0.2744  0.1547  1.2458
  189SAPI  C21321752   5.268   1.933   4.992 -0.1956  0.4509 -0.4458
  189SAPI  H13R21753   5.313   1.880   4.905  1.0640  2.7520 -1.3006
  189SAPI  H13S21754   5.342   2.007   5.031 -1.0816  1.1815 -0.1274
  189SAPI  C21421755   5.138   2.003   4.957 -0.4282 -0.1755  0.3456
  189SAPI  H14R21756   5.090   2.044   5.046 -1.1857  1.0948 -0.6154
  189SAPI  C21521757   5.077   2.008   4.834 -0.3364 -0.2338 -0.3364
  189SAPI  H15R21758   4.986   2.070   4.837 -0.3482 -0.2925  0.8991
  189SAPI  C21621759   5.133   1.955   4.699 -0.2815  0.8231 -0.7875
  189SAPI  H16R21760   5.092   1.853   4.682  0.5778  0.5882 -1.4963
  189SAPI  H16S21761   5.239   1.926   4.687 -0.3838  0.1873 -0.2682
  189SAPI  C21721762   5.088   2.042   4.584  0.1364 -0.3829  0.3089
  189SAPI  H17R21763   4.978   2.052   4.589  0.2080 -0.1071  2.7047
  189SAPI  H17S21764   5.098   1.991   4.486 -0.8528 -1.1064  0.5663
  189SAPI  C21821765   5.152   2.182   4.571 -0.0112  0.3824  0.3242
  189SAPI  H18R21766   5.263   2.180   4.573  0.0815 -0.8079 -2.0081
  189SAPI  H18S21767   5.118   2.229   4.666  3.6535 -2.2498  3.2396
  189SAPI  C21921768   5.105   2.248   4.439  0.8136  0.3907  0.5854
  189SAPI  H19R21769   4.995   2.242   4.423  0.6372  1.6824  1.2076
  189SAPI  H19S21770   5.151   2.201   4.349  0.7752 -1.2414  1.3804
  189SAPI  C22021771   5.136   2.403   4.436  0.3929  0.0332 -0.0443
  189SAPI  H20R21772   5.073   2.451   4.358 -1.0192 -3.0297 -0.9454
  189SAPI  H20S21773   5.245   2.421   4.427  0.1360  1.8352  0.0638
  189SAPI  H20T21774   5.107   2.455   4.530  2.1239  2.2252 -0.6306
  189SAPI   C3321775   5.122   2.365   5.901  0.5426 -0.5967 -0.2128
  189SAPI   H3X21776   5.049   2.418   5.966 -2.3315 -2.6441 -1.5819
  189SAPI   H3Y21777   5.108   2.258   5.928  0.3634 -0.9170 -1.5128
  189SAPI   C3421778   5.078   2.392   5.756  0.0481  0.1097  0.1969
  189SAPI   H4X21779   5.083   2.499   5.725 -2.3387  0.4973  0.9439
  189SAPI   H4Y21780   4.972   2.358   5.749 -0.0050  0.3706 -0.3104
  189SAPI   C3521781   5.160   2.315   5.649  0.0651  0.2602 -0.0914
  189SAPI   H5X21782   5.162   2.208   5.680 -1.2102 -0.3533 -1.9823
  189SAPI   H5Y21783   5.265   2.352   5.646  0.7833 -1.7223 -3.1465
  189SAPI   C3621784   5.104   2.333   5.507 -0.5702  0.1154 -0.7492
  189SAPI   H6X21785   5.098   2.442   5.490 -1.0644  0.3878  0.9445
  189SAPI   H6Y21786   5.001   2.292   5.498 -0.3989 -1.2997  2.3621
  189SAPI   C3721787   5.192   2.259   5.411 -0.0555 -0.2137  0.9754
  189SAPI   H7X21788   5.156   2.155   5.393 -1.7311  0.4788  0.0115
  189SAPI   H7Y21789   5.293   2.242   5.452 -0.2435  2.4324  2.7512
  189SAPI   C3821790   5.230   2.334   5.283 -0.3696  0.7324 -0.2543
  189SAPI   H8X21791   5.315   2.286   5.230  0.3223  1.7959 -0.1295
  189SAPI   H8Y21792   5.273   2.431   5.313  0.2328  0.8039 -1.3171
  189SAPI   C3921793   5.116   2.359   5.186 -0.4146 -0.5614 -0.0030
  189SAPI   H9X21794   5.028   2.387   5.248 -0.8519 -0.4772 -0.6575
  189SAPI   H9Y21795   5.100   2.262   5.135 -1.0722 -2.1089  2.9075
  189SAPI  C31021796   5.160   2.459   5.075  0.1536  0.2304 -0.2882
  189SAPI  H10X21797   5.091   2.463   4.988 -0.6247 -1.6361  0.1892
  189SAPI  H10Y21798   5.261   2.422   5.046  0.6926 -0.3659  2.1234
  189SAPI  C31121799   5.174   2.603   5.123 -0.4406 -0.3789 -0.2476
  189SAPI  H11X21800   5.234   2.607   5.217 -1.5622  0.8929  0.4340
  189SAPI  H11Y21801   5.073   2.640   5.151 -0.6402 -1.7592  1.0218
  189SAPI  C31221802   5.225   2.694   5.011 -0.6700  0.0912 -0.8850
  189SAPI  H12X21803   5.312   2.640   4.968 -0.7986 -0.1411 -0.8573
  189SAPI  H12Y21804   5.263   2.789   5.053  1.5674 -0.7752 -0.8373
  189SAPI  C31321805   5.130   2.730   4.896 -0.1787  0.0824 -0.3641
  189SAPI  H13X21806   5.030   2.737   4.945  0.2387 -1.8101  0.8580
  189SAPI  H13Y21807   5.107   2.636   4.841  1.2043 -1.5536  1.6922
  189SAPI  C31421808   5.167   2.857   4.815 -0.4956 -0.4919 -0.2346
  189SAPI  H14X21809   5.276   2.874   4.807 -0.9596  3.3347 -0.1956
  189SAPI  H14Y21810   5.141   2.943   4.880  3.4628 -0.5538  1.7007
  189SAPI  C31521811   5.091   2.870   4.682 -0.1013  0.4377  0.2100
  189SAPI  H15X21812   5.090   2.976   4.647  0.4252  0.8970  1.4836
  189SAPI  H15Y21813   4.985   2.839   4.690 -0.1941  1.0327  1.6945
  189SAPI  C31621814   5.162   2.786   4.576 -0.2186 -0.4359 -0.2974
  189SAPI  H16X21815   5.090   2.721   4.521  1.3788 -1.5304 -1.1686
  189SAPI  H16Y21816   5.235   2.724   4.632 -2.9526  0.0368  4.2856
  189SAPI  C31721817   5.232   2.870   4.470 -0.6174 -0.5837  0.0442
  189SAPI  H17X21818   5.329   2.907   4.510 -1.1899 -0.6750  1.5551
  189SAPI  H17Y21819   5.177   2.958   4.430  0.2054  0.4445  1.0961
  189SAPI  C31821820   5.280   2.783   4.353 -0.0354  0.4727  0.3941
  189SAPI  H18X21821   5.200   2.763   4.279 -0.4047  1.0450  0.6389
  189SAPI  H18Y21822   5.327   2.690   4.394  1.0982  1.7474  2.1318
  189SAPI  H18Z21823   5.365   2.835   4.304 -0.4047 -0.1712 -0.9771
  190SAPI   C1221824   6.141   5.827   6.317  0.0381  0.1794 -0.0547
  190SAPI    H221825   6.073   5.774   6.387  0.5359 -0.3932  0.0114
  190SAPI    O221826   6.099   5.784   6.188 -0.0837 -0.3124 -0.0158
  190SAPI   HO221827   6.003   5.792   6.184  0.0866  1.9164 -2.5848
  190SAPI   C1321828   6.121   5.978   6.333  0.4142 -0.5317  0.7677
  190SAPI    H321829   6.161   6.008   6.432  1.3673 -0.4838  0.3802
  190SAPI    O321830   5.977   6.020   6.320  0.2272  0.2482 -0.7789
  190SAPI   HO321831   5.936   5.967   6.251  0.4794 -0.1782 -0.6058
  190SAPI   C1421832   6.212   6.052   6.231 -0.2866 -0.3649 -0.7664
  190SAPI    H421833   6.170   6.030   6.131  0.1782  3.2780 -1.9209
  190SAPI    O421834   6.196   6.193   6.254 -0.2666  0.3365  0.5577
  190SAPI   HO421835   6.137   6.229   6.186  1.2090  0.1813 -0.8633
  190SAPI   C1521836   6.358   6.014   6.254  0.5113 -0.2560  0.1608
  190SAPI    H521837   6.376   6.054   6.356 -0.2005  4.6106 -1.3659
  190SAPI    O521838   6.434   6.085   6.152 -0.0882 -0.5039  0.4203
  190SAPI   HO521839   6.529   6.073   6.160 -0.1900 -0.5158  1.9154
  190SAPI   C1621840   6.379   5.863   6.244  0.2412  0.4931 -1.2380
  190SAPI    H621841   6.354   5.824   6.143 -0.6643 -0.6802 -0.5882
  190SAPI    O621842   6.515   5.843   6.286  0.6877  0.0290  0.1188
  190SAPI   HO621843   6.529   5.750   6.306 -1.4072  0.0994  2.4816
  190SAPI   C1121844   6.286   5.793   6.345 -0.5805 -0.2580 -0.1647
  190SAPI    H121845   6.307   5.837   6.445 -1.0700  2.0899 -1.0194
  190SAPI     P21846   6.400   5.569   6.443  0.0579 -0.0511  0.1758
  190SAPI   O1321847   6.342   5.432   6.448 -0.2653  0.3770  0.2545
  190SAPI   O1421848   6.409   5.649   6.566  0.3612  0.2324 -0.5504
  190SAPI   O1221849   6.302   5.650   6.337 -0.0680  0.3940 -0.8116
  190SAPI   O1121850   6.546   5.563   6.376  0.5878  0.0796  0.5130
  190SAPI    C121851   6.567   5.464   6.271  0.9460  0.0100 -0.3717
  190SAPI    HA21852   6.569   5.359   6.307  0.5889  0.5867  1.4579
  190SAPI    HB21853   6.477   5.468   6.205  1.2152  1.8975 -0.6884
  190SAPI    C221854   6.685   5.492   6.174  0.0217 -0.2172  0.2237
  190SAPI    HS21855   6.781   5.501   6.229 -0.7306  0.5272  1.4630
  190SAPI   O2121856   6.642   5.613   6.103 -0.2971  1.0245  0.5220
  190SAPI   C2121857   6.746   5.687   6.057 -0.6703  0.0153  0.3527
  190SAPI   O2221858   6.862   5.659   6.078  0.1706 -0.1728  0.4020
  190SAPI   C2221859   6.696   5.816   5.988  0.6575 -0.4382  0.4260
  190SAPI   H2R21860   6.635   5.781   5.902 -1.3314 -1.9184  2.3270
  190SAPI   H2S21861   6.627   5.870   6.057 -1.1260 -0.7812 -1.0106
  190SAPI    C321862   6.691   5.368   6.082 -0.4203  0.3737  0.8569
  190SAPI    HX21863   6.587   5.357   6.046 -0.4997  1.0132  0.8868
  190SAPI    HY21864   6.714   5.274   6.137  0.5958 -0.1406 -0.3963
  190SAPI   O3121865   6.781   5.375   5.971 -0.3983  0.2415  0.2677
  190SAPI   C3121866   6.912   5.351   5.997  1.2889 -0.6230  0.7314
  190SAPI   O3221867   6.962   5.343   6.107 -0.6336  0.2802  0.5644
  190SAPI   C3221868   6.975   5.311   5.865 -0.0647 -0.4856  0.2307
  190SAPI   H2X21869   6.907   5.244   5.808  1.0255 -0.3334 -1.3258
  190SAPI   H2Y21870   7.065   5.247   5.874 -0.4606 -0.7779  3.1236
  190SAPI   C2321871   6.815   5.910   5.958  0.3840  0.0022  0.2661
  190SAPI   H3R21872   6.898   5.869   5.896  1.9264 -1.1911  2.9685
  190SAPI   H3S21873   6.866   5.928   6.055  1.1894 -0.1449 -0.1197
  190SAPI   C2421874   6.772   6.042   5.891 -0.3581  0.9230 -0.2027
  190SAPI   H4R21875   6.704   6.102   5.955  2.0378  1.8652  1.6398
  190SAPI   H4S21876   6.703   6.018   5.808 -0.6345 -1.2210  0.6054
  190SAPI   C2521877   6.893   6.128   5.861 -0.3770 -0.4347 -0.1219
  190SAPI   H5R21878   6.960   6.133   5.948 -0.0694  0.0416 -0.3804
  190SAPI   C2621879   6.933   6.186   5.745 -0.7213  0.1806  0.6397
  190SAPI   H6R21880   7.027   6.243   5.743 -0.7654  0.3239 -2.9995
  190SAPI   C2721881   6.860   6.169   5.615 -0.4124  0.0878 -0.9930
  190SAPI   H7R21882   6.766   6.112   5.628 -0.2121  0.2051  1.2741
  190SAPI   H7S21883   6.922   6.099   5.553 -2.5188 -0.3383 -2.7611
  190SAPI   C2821884   6.840   6.292   5.539 -0.1866  0.1435  0.2219
  190SAPI   H8R21885   6.889   6.385   5.573 -0.9388  0.1637  1.2751
  190SAPI   C2921886   6.772   6.301   5.422 -0.4305 -0.3208 -0.5120
  190SAPI   H9R21887   6.764   6.402   5.381 -3.8314 -0.9854 -1.8453
  190SAPI  C21021888   6.710   6.190   5.349  0.6595 -0.1662 -0.1715
  190SAPI  H10R21889   6.645   6.130   5.416 -0.2602 -0.7295 -1.5362
  190SAPI  H10S21890   6.788   6.114   5.330 -0.9319 -1.7724 -0.5541
  190SAPI  C21121891   6.643   6.227   5.220 -1.1074 -0.8961  0.0725
  190SAPI  H11R21892   6.683   6.321   5.180 -0.3597 -0.8037  1.0043
  190SAPI  C21221893   6.542   6.171   5.157  0.5707 -0.2262  0.6704
  190SAPI  H12R21894   6.511   6.212   5.060  2.7010 -0.6435 -0.2258
  190SAPI  C21321895   6.479   6.041   5.197 -0.3921  0.8880  0.3790
  190SAPI  H13R21896   6.559   5.995   5.260  0.7507  1.7896 -0.3812
  190SAPI  H13S21897   6.462   5.971   5.113  1.0959 -0.0664  0.8194
  190SAPI  C21421898   6.358   6.062   5.288  0.0092 -0.5902  0.5918
  190SAPI  H14R21899   6.369   6.135   5.370 -2.5380 -0.6733  1.0827
  190SAPI  C21521900   6.245   5.990   5.293  0.4296 -0.0378  0.3412
  190SAPI  H15R21901   6.180   6.012   5.378  2.2394  1.5453  1.4110
  190SAPI  C21621902   6.208   5.873   5.207  0.6596 -0.5424  0.1245
  190SAPI  H16R21903   6.150   5.796   5.262 -1.2427  1.9863  1.8943
  190SAPI  H16S21904   6.304   5.833   5.167  0.5992 -1.7155  1.1079
  190SAPI  C21721905   6.127   5.906   5.077  0.1301  0.2889  0.4163
  190SAPI  H17R21906   6.124   5.806   5.029 -0.7529  0.3222  0.3911
  190SAPI  H17S21907   6.182   5.969   5.004  2.4783 -0.5624  1.3438
  190SAPI  C21821908   5.980   5.963   5.088 -0.3768  0.1657  0.3565
  190SAPI  H18R21909   5.992   6.072   5.108  0.9937  0.3264 -1.1723
  190SAPI  H18S21910   5.926   5.912   5.171  1.6850 -1.2601  0.8923
  190SAPI  C21921911   5.903   5.930   4.963 -0.4185 -0.5168  0.2896
  190SAPI  H19R21912   5.796   5.954   4.984  0.1200  1.7155  0.8114
  190SAPI  H19S21913   5.933   5.824   4.953  0.7975 -0.1701  0.1213
  190SAPI  C22021914   5.961   6.008   4.851 -0.3273 -0.2674 -0.0586
  190SAPI  H20R21915   5.956   6.116   4.875  0.1810 -0.4983  1.1795
  190SAPI  H20S21916   5.901   6.002   4.758  0.9110  0.4188 -0.9198
  190SAPI  H20T21917   6.063   5.971   4.829  1.6350  3.5946  1.5514
  190SAPI   C3321918   7.017   5.441   5.782  1.1160 -0.9052 -0.6186
  190SAPI   H3X21919   7.082   5.421   5.693  0.7595 -0.2834 -1.0290
  190SAPI   H3Y21920   7.075   5.512   5.845 -0.2560 -0.3817  0.0811
  190SAPI   C3421921   6.893   5.509   5.723 -0.5497  0.4422 -0.1242
  190SAPI   H4X21922   6.823   5.547   5.800 -2.2446  0.3765 -1.5872
  190SAPI   H4Y21923   6.833   5.444   5.656 -0.0329  2.6744 -2.9416
  190SAPI   C3521924   6.924   5.633   5.634 -0.4460  0.7990  0.1774
  190SAPI   H5X21925   6.980   5.600   5.543 -1.5769 -0.4647 -0.0933
  190SAPI   H5Y21926   6.999   5.690   5.693 -1.2098  1.8209  0.1894
  190SAPI   C3621927   6.820   5.736   5.610  0.5514 -0.6526  0.4775
  190SAPI   H6X21928   6.810   5.811   5.691  0.6134 -1.3281  1.1169
  190SAPI   H6Y21929   6.720   5.688   5.602 -0.2379  0.8503  0.7678
  190SAPI   C3721930   6.839   5.820   5.479  0.1874 -0.7026 -0.2704
  190SAPI   H7X21931   6.942   5.860   5.483  0.4329 -1.4188  3.0844
  190SAPI   H7Y21932   6.755   5.892   5.470 -0.7955 -1.8955 -1.0045
  190SAPI   C3821933   6.814   5.732   5.359  0.4931  0.8933 -0.3638
  190SAPI   H8X21934   6.717   5.679   5.368  1.2649 -0.4712  0.2524
  190SAPI   H8Y21935   6.885   5.647   5.355 -0.3594  0.2209 -1.9382
  190SAPI   C3921936   6.816   5.811   5.228 -0.5618 -0.2373  0.5090
  190SAPI   H9X21937   6.921   5.832   5.199 -0.2255 -2.8959 -0.5338
  190SAPI   H9Y21938   6.773   5.913   5.236 -1.9347 -0.5424 -1.9414
  190SAPI  C31021939   6.744   5.731   5.115  0.0412  0.0781  0.3317
  190SAPI  H10X21940   6.636   5.730   5.141  0.0244 -2.2142  0.3280
  190SAPI  H10Y21941   6.774   5.624   5.113  0.2691  0.0522  2.3717
  190SAPI  C31121942   6.757   5.800   4.982  0.1083  0.6668  0.3649
  190SAPI  H11X21943   6.855   5.760   4.947 -0.9583 -4.6450  2.4045
  190SAPI  H11Y21944   6.762   5.908   5.008 -1.3474  1.2471 -1.4857
  190SAPI  C31221945   6.659   5.762   4.868 -0.0321 -0.2408 -0.2521
  190SAPI  H12X21946   6.644   5.652   4.868 -2.5148  0.0439  0.0322
  190SAPI  H12Y21947   6.712   5.801   4.778  0.4863 -0.9350 -0.2601
  190SAPI  C31321948   6.523   5.823   4.883 -0.7070  0.1435 -0.2787
  190SAPI  H13X21949   6.526   5.924   4.930  0.2532 -0.2147  0.4750
  190SAPI  H13Y21950   6.471   5.760   4.958  0.0560 -0.5451 -0.3188
  190SAPI  C31421951   6.444   5.830   4.755 -0.4730  0.3743  0.1814
  190SAPI  H14X21952   6.498   5.902   4.690  1.1189 -0.2846  0.7506
  190SAPI  H14Y21953   6.340   5.865   4.774 -0.5321  0.8857 -0.9474
  190SAPI  C31521954   6.444   5.694   4.689 -0.0421  0.0684  0.7228
  190SAPI  H15X21955   6.416   5.615   4.763  1.8909 -1.2482  0.1512
  190SAPI  H15Y21956   6.546   5.664   4.658 -0.5124 -0.1933 -0.6419
  190SAPI  C31621957   6.344   5.688   4.566  0.1654  0.4914 -0.4798
  190SAPI  H16X21958   6.336   5.777   4.499  2.2510  2.3921  1.6488
  190SAPI  H16Y21959   6.243   5.673   4.610  0.8471 -0.3368  0.8539
  190SAPI  C31721960   6.365   5.569   4.467 -0.2280 -0.1170  0.3965
  190SAPI  H17X21961   6.356   5.479   4.532 -3.0475  1.2433  2.0870
  190SAPI  H17Y21962   6.464   5.587   4.422 -1.0708 -0.3553 -1.6921
  190SAPI  C31821963   6.252   5.563   4.359  0.1493 -0.1521  0.0068
  190SAPI  H18X21964   6.152   5.582   4.405  0.6722  1.5891  0.5024
  190SAPI  H18Y21965   6.246   5.470   4.298  1.0535  0.3227 -0.8238
  190SAPI  H18Z21966   6.254   5.647   4.287 -0.7005  0.5502  0.7899
  191SAPI   C1221967   0.734   3.099   2.157 -0.0657  0.7517  0.3644
  191SAPI    H221968   0.736   3.059   2.261  0.3475  0.5653  0.2857
  191SAPI    O221969   0.607   3.123   2.120  0.2841 -0.0828  0.2057
  191SAPI   HO221970   0.562   3.039   2.109 -2.1566  0.7099  2.7326
  191SAPI   C1321971   0.815   3.232   2.158  0.0993  0.2107 -0.0250
  191SAPI    H321972   0.918   3.216   2.195 -0.1655  0.0128  0.6331
  191SAPI    O321973   0.760   3.326   2.254 -0.2171  0.1910  0.1683
  191SAPI   HO321974   0.667   3.326   2.229 -0.4511 -1.5894  0.8417
  191SAPI   C1421975   0.827   3.289   2.018  0.6362  0.0908 -0.2152
  191SAPI    H421976   0.728   3.307   1.969  1.0797 -0.8286 -1.5041
  191SAPI    O421977   0.896   3.418   2.011  0.1762  0.4983  0.2395
  191SAPI   HO421978   0.978   3.416   2.062 -0.0988  1.3603  0.7255
  191SAPI   C1521979   0.883   3.186   1.921  0.6951 -0.8733  0.5827
  191SAPI    H521980   0.988   3.170   1.957  0.7214 -0.4602  0.6955
  191SAPI    O521981   0.884   3.235   1.784  0.3404 -0.0473  0.1653
  191SAPI   HO521982   0.978   3.234   1.766  0.5265 -0.6988  1.0833
  191SAPI   C1621983   0.803   3.057   1.921  0.8390 -0.5316 -0.4170
  191SAPI    H621984   0.700   3.069   1.881  0.0208 -3.7343  0.4720
  191SAPI    O621985   0.871   2.960   1.839  0.2765  0.0827 -0.1100
  191SAPI   HO621986   0.819   2.881   1.852 -2.7870  2.1591  1.5462
  191SAPI   C1121987   0.805   3.002   2.064  0.4624 -0.3793  0.6254
  191SAPI    H121988   0.913   2.988   2.084  0.3375 -1.5487  0.5705
  191SAPI     P21989   0.788   2.754   2.157  0.0463 -0.1048 -0.7321
  191SAPI   O1321990   0.930   2.732   2.124 -0.4345  0.3506 -0.4862
  191SAPI   O1421991   0.695   2.640   2.145  0.3119 -0.3296  0.2935
  191SAPI   O1221992   0.735   2.873   2.064 -0.4773 -0.1830  0.2359
  191SAPI   O1121993   0.787   2.819   2.297  0.1284 -0.2481  0.1652
  191SAPI    C121994   0.738   2.742   2.410 -0.6274 -0.7997  0.9302
  191SAPI    HA21995   0.630   2.761   2.428 -0.6107  1.0917 -0.5628
  191SAPI    HB21996   0.741   2.632   2.395  0.3134 -0.8394  1.3475
  191SAPI    C221997   0.825   2.784   2.531 -0.1411 -0.7274  0.6098
  191SAPI    HS21998   0.921   2.731   2.518  0.0875 -0.3118  0.5899
  191SAPI   O2121999   0.756   2.747   2.656  0.1485  0.2248 -0.4576
  191SAPI   C2122000   0.765   2.618   2.677  0.9246  0.5257 -0.4024
  191SAPI   O2222001   0.816   2.534   2.610  0.8924  0.6830  0.7054
  191SAPI   C2222002   0.693   2.585   2.810 -0.1985  0.5361 -0.1384
  191SAPI   H2R22003   0.751   2.638   2.889 -1.8726 -1.3959  2.5560
  191SAPI   H2S22004   0.585   2.604   2.796  0.1056  0.9327 -2.3799
  191SAPI    C322005   0.857   2.931   2.533 -0.7711  0.2223  0.2249
  191SAPI    HX22006   0.758   2.979   2.516  0.6293  2.5159 -2.3194
  191SAPI    HY22007   0.915   2.960   2.443 -0.6681  0.8256  0.4798
  191SAPI   O3122008   0.931   2.971   2.646 -0.0008 -0.0682 -0.1259
  191SAPI   C3122009   0.859   3.028   2.738 -0.1126 -0.2324  0.5517
  191SAPI   O3222010   0.746   3.066   2.736  0.1586  0.5255  0.2039
  191SAPI   C3222011   0.956   3.046   2.859 -0.2433  0.1882  0.8131
  191SAPI   H2X22012   0.947   3.152   2.893 -2.4387  0.5221 -0.5753
  191SAPI   H2Y22013   1.061   3.034   2.827 -0.4202  0.3621  0.1266
  191SAPI   C2322014   0.711   2.437   2.843  0.0449  0.2037  0.7163
  191SAPI   H3R22015   0.704   2.426   2.954 -0.7086 -0.0150  0.6500
  191SAPI   H3S22016   0.812   2.400   2.816 -1.5018 -2.7273 -1.6372
  191SAPI   C2422017   0.611   2.341   2.774  0.5929  0.5312  0.3513
  191SAPI   H4R22018   0.606   2.359   2.664  1.0481 -1.0960  0.0377
  191SAPI   H4S22019   0.508   2.367   2.808  0.1118 -0.0048 -0.6603
  191SAPI   C2522020   0.644   2.194   2.794 -0.2274 -0.4317  1.0141
  191SAPI   H5R22021   0.637   2.143   2.697  0.5758  0.2404  0.5859
  191SAPI   C2622022   0.662   2.128   2.906  0.0061  0.4298 -0.0532
  191SAPI   H6R22023   0.695   2.025   2.886  1.4874  0.8956 -0.1101
  191SAPI   C2722024   0.646   2.169   3.057  0.2740 -0.0365 -1.0053
  191SAPI   H7R22025   0.556   2.233   3.064 -0.3302 -1.0027  0.4506
  191SAPI   H7S22026   0.733   2.231   3.087 -0.0176  1.1916 -2.5512
  191SAPI   C2822027   0.602   2.052   3.146  0.3240  0.5847 -0.3467
  191SAPI   H8R22028   0.537   1.977   3.098 -1.2987  0.9998  1.1071
  191SAPI   C2922029   0.619   2.038   3.276  0.8673  0.2628 -0.3113
  191SAPI   H9R22030   0.559   1.963   3.329 -1.1447  2.7230  1.1826
  191SAPI  C21022031   0.675   2.140   3.375  0.4385 -0.2076 -0.3479
  191SAPI  H10R22032   0.769   2.184   3.338  0.7516  1.5902  2.3145
  191SAPI  H10S22033   0.706   2.088   3.469  1.9364  1.5937  0.2202
  191SAPI  C21122034   0.577   2.251   3.402  0.0776  0.2749  0.2963
  191SAPI  H11R22035   0.473   2.222   3.426 -0.0347  0.6174  0.2424
  191SAPI  C21222036   0.598   2.386   3.407  0.3579  0.7079  0.1716
  191SAPI  H12R22037   0.511   2.449   3.429 -0.6583 -0.7919  0.5551
  191SAPI  C21322038   0.735   2.440   3.390 -0.0319 -0.6766 -0.6114
  191SAPI  H13R22039   0.776   2.404   3.293  1.2302 -1.1200  0.0605
  191SAPI  H13S22040   0.797   2.399   3.472 -0.3659  1.0062  0.5298
  191SAPI  C21422041   0.720   2.594   3.398 -0.1267  0.0532  0.0930
  191SAPI  H14R22042   0.748   2.645   3.491 -2.3201 -1.0059  1.4282
  191SAPI  C21522043   0.653   2.673   3.309  0.1410 -0.0607 -0.5503
  191SAPI  H15R22044   0.630   2.779   3.322 -1.1906 -0.5409  1.6168
  191SAPI  C21622045   0.583   2.620   3.183  0.2994  0.2973  0.4480
  191SAPI  H16R22046   0.620   2.517   3.164  2.8149  1.0767  0.7674
  191SAPI  H16S22047   0.613   2.689   3.102  1.2571  1.1300  1.4912
  191SAPI  C21722048   0.430   2.628   3.195  0.4534 -0.1952 -1.2788
  191SAPI  H17R22049   0.400   2.731   3.223 -0.8593 -0.8690 -0.0844
  191SAPI  H17S22050   0.393   2.570   3.282  3.1543  1.9858  1.5495
  191SAPI  C21822051   0.365   2.576   3.067  0.2969 -0.0396 -0.1206
  191SAPI  H18R22052   0.395   2.472   3.040  0.4073  0.7128 -3.1839
  191SAPI  H18S22053   0.392   2.632   2.975 -0.8103  1.0073  0.1823
  191SAPI  C21922054   0.212   2.570   3.087 -0.3679 -0.3436  0.0213
  191SAPI  H19R22055   0.193   2.532   3.189  1.3070  0.3518  0.6265
  191SAPI  H19S22056   0.167   2.511   3.005  1.0650  0.3140 -1.2988
  191SAPI  C22022057   0.153   2.709   3.069  0.6849  0.3285 -0.0771
  191SAPI  H20R22058   0.208   2.779   3.134  0.2410  0.7671 -0.1643
  191SAPI  H20S22059   0.047   2.718   3.101  0.8291 -0.4079  0.6232
  191SAPI  H20T22060   0.168   2.741   2.964 -0.7288 -1.5800 -0.9377
  191SAPI   C3322061   0.921   2.946   2.974 -0.6400 -0.6116  0.3059
  191SAPI   H3X22062   0.948   2.840   2.956 -1.1754 -0.9234  1.2750
  191SAPI   H3Y22063   0.811   2.950   2.989 -0.5870  0.0983  0.5561
  191SAPI   C3422064   0.986   2.983   3.108  0.4894  0.0978 -0.0857
  191SAPI   H4X22065   0.945   3.081   3.140  0.4927  0.1380 -0.2048
  191SAPI   H4Y22066   1.095   2.983   3.092  0.2237 -0.0058 -2.2040
  191SAPI   C3522067   0.953   2.884   3.220  0.0427 -0.0179 -0.7636
  191SAPI   H5X22068   0.983   2.781   3.193  1.0370  0.4259 -1.4049
  191SAPI   H5Y22069   0.845   2.880   3.246  1.0070 -0.8304  3.9765
  191SAPI   C3622070   1.036   2.911   3.355  0.5903 -0.0357  0.4095
  191SAPI   H6X22071   1.016   3.018   3.376  2.1694 -0.0053  1.9352
  191SAPI   H6Y22072   1.144   2.899   3.333  0.0137 -0.9796 -2.3550
  191SAPI   C3722073   1.003   2.818   3.469  0.1880  0.0569 -0.5449
  191SAPI   H7X22074   1.015   2.717   3.424 -2.2696 -0.4133 -0.2952
  191SAPI   H7Y22075   0.892   2.811   3.482  0.1102 -0.5016 -1.4599
  191SAPI   C3822076   1.078   2.853   3.604  0.4941  0.2743  1.2014
  191SAPI   H8X22077   1.030   2.951   3.626  0.9234  0.9261 -0.5301
  191SAPI   H8Y22078   1.185   2.863   3.576  0.0199 -1.5418 -1.6955
  191SAPI   C3922079   1.042   2.754   3.717 -0.1288 -0.2755  0.3265
  191SAPI   H9X22080   1.119   2.767   3.795  0.5190  0.7844 -0.4579
  191SAPI   H9Y22081   1.041   2.655   3.667 -0.5752  0.9041 -2.1785
  191SAPI  C31022082   0.903   2.778   3.776 -0.4222  0.6179 -1.0074
  191SAPI  H10X22083   0.835   2.740   3.697 -0.3542 -1.4693 -0.1406
  191SAPI  H10Y22084   0.886   2.884   3.802  0.2582  1.3518 -3.2961
  191SAPI  C31122085   0.885   2.693   3.902 -0.2849 -0.3444  0.7250
  191SAPI  H11X22086   0.961   2.734   3.973 -0.5775  2.1188 -0.2909
  191SAPI  H11Y22087   0.903   2.587   3.873  0.1889  0.4714 -2.2931
  191SAPI  C31222088   0.741   2.693   3.963 -0.8702  0.2020  0.4708
  191SAPI  H12X22089   0.677   2.657   3.880  0.8009 -0.2926 -0.6480
  191SAPI  H12Y22090   0.711   2.796   3.990 -2.0210 -0.4931  1.9786
  191SAPI  C31322091   0.740   2.605   4.086 -0.2131 -0.0539  0.5108
  191SAPI  H13X22092   0.838   2.612   4.139 -0.4177 -1.1840  1.0693
  191SAPI  H13Y22093   0.735   2.509   4.031  0.2329 -0.2228  0.7551
  191SAPI  C31422094   0.616   2.632   4.174  0.3606  0.0508  0.3866
  191SAPI  H14X22095   0.527   2.608   4.112  0.4453  0.1541  0.2277
  191SAPI  H14Y22096   0.614   2.734   4.217 -0.7061  1.0413 -1.8685
  191SAPI  C31522097   0.596   2.526   4.293 -0.1348 -0.9141 -0.2797
  191SAPI  H15X22098   0.684   2.537   4.360 -0.4673 -0.6729  0.1245
  191SAPI  H15Y22099   0.579   2.427   4.247 -2.3942 -0.0853 -1.3727
  191SAPI  C31622100   0.481   2.553   4.385 -0.4217  0.3970  0.4568
  191SAPI  H16X22101   0.386   2.554   4.328  1.2565 -0.1620 -2.5485
  191SAPI  H16Y22102   0.497   2.650   4.436 -0.0021 -0.0430  1.1906
  191SAPI  C31722103   0.483   2.440   4.489  0.8335  0.1422  0.2349
  191SAPI  H17X22104   0.585   2.411   4.524 -0.1123 -1.2487  1.9588
  191SAPI  H17Y22105   0.451   2.347   4.440 -0.5422  0.0231  1.3017
  191SAPI  C31822106   0.393   2.471   4.604  0.4532  0.1674 -0.1691
  191SAPI  H18X22107   0.415   2.388   4.675  0.9488 -0.0394 -0.5552
  191SAPI  H18Y22108   0.286   2.463   4.576  0.2300 -0.1433  0.7639
  191SAPI  H18Z22109   0.416   2.571   4.646 -0.3273  0.0328  0.6067
  192SAPI   C1222110   6.352   1.540   1.774 -0.1507  0.2378  0.3576
  192SAPI    H222111   6.332   1.434   1.802 -1.5824  0.9604  2.2524
  192SAPI    O222112   6.490   1.572   1.789 -0.6012  0.3251  0.1624
  192SAPI   HO222113   6.493   1.582   1.885 -1.4226 -0.7460  0.3277
  192SAPI   C1322114   6.296   1.548   1.632 -0.0451  0.0041  0.8390
  192SAPI    H322115   6.187   1.527   1.642 -0.2224  0.1810 -0.5281
  192SAPI    O322116   6.350   1.449   1.548 -0.0586 -0.0677 -0.0907
  192SAPI   HO322117   6.446   1.448   1.552  0.1411  1.2149 -2.6754
  192SAPI   C1422118   6.326   1.690   1.585 -0.1943  0.5853 -0.2710
  192SAPI    H422119   6.435   1.713   1.583  0.0714 -0.6382 -1.4205
  192SAPI    O422120   6.276   1.704   1.452  0.2847 -0.2800 -0.1841
  192SAPI   HO422121   6.356   1.713   1.399  0.0956  0.2344 -0.3875
  192SAPI   C1522122   6.265   1.787   1.684  0.0330 -0.4601  0.6897
  192SAPI    H522123   6.154   1.785   1.677  0.0518  0.1406  0.1187
  192SAPI    O522124   6.287   1.928   1.644 -0.2488  0.1680  0.1265
  192SAPI   HO522125   6.362   1.962   1.693  0.2393 -1.4296  0.5701
  192SAPI   C1622126   6.289   1.769   1.832  0.2123  0.3816 -0.8928
  192SAPI    H622127   6.393   1.795   1.861 -0.4388  1.7842  0.3045
  192SAPI    O622128   6.206   1.860   1.914  0.2157  0.0044  0.0457
  192SAPI   HO622129   6.127   1.813   1.940 -1.4834  2.5551 -0.0972
  192SAPI   C1122130   6.263   1.624   1.870 -0.3622 -0.2069 -0.5644
  192SAPI    H122131   6.163   1.589   1.837 -0.0795 -0.8484 -0.7635
  192SAPI     P22132   6.161   1.589   2.110  0.1116 -0.3630  0.0205
  192SAPI   O1322133   6.122   1.451   2.132  0.8627 -0.0602  0.0180
  192SAPI   O1422134   6.052   1.674   2.043 -0.2292  0.2021 -0.1777
  192SAPI   O1222135   6.290   1.592   2.005 -1.2656 -0.3504 -0.7692
  192SAPI   O1122136   6.212   1.653   2.242 -0.2045 -0.3446  0.3605
  192SAPI    C122137   6.245   1.793   2.252 -0.0430 -0.4408  0.3655
  192SAPI    HA22138   6.319   1.824   2.175 -1.2563 -2.3334 -1.6743
  192SAPI    HB22139   6.160   1.864   2.241  0.7199  0.5478  0.7649
  192SAPI    C222140   6.306   1.819   2.392  0.0466  0.4337  0.5496
  192SAPI    HS22141   6.290   1.925   2.421  0.4612  0.1912  1.6970
  192SAPI   O2122142   6.441   1.782   2.393  0.0006  0.5375 -0.1590
  192SAPI   C2122143   6.534   1.877   2.395 -0.8439 -0.1630 -0.4454
  192SAPI   O2222144   6.516   2.000   2.398 -0.0377 -0.3277  0.1368
  192SAPI   C2222145   6.671   1.819   2.387 -0.4022  0.5881 -0.3658
  192SAPI   H2R22146   6.654   1.710   2.397 -2.9943  0.9166 -0.5174
  192SAPI   H2S22147   6.709   1.854   2.288 -0.2431 -0.8415 -0.8274
  192SAPI    C322148   6.234   1.730   2.484 -0.6096  0.3866 -0.3197
  192SAPI    HX22149   6.262   1.626   2.454  0.5454  0.0934  1.5784
  192SAPI    HY22150   6.126   1.748   2.465 -0.6915 -1.0467 -1.4339
  192SAPI   O3122151   6.261   1.743   2.620  0.0848 -0.4738 -0.4543
  192SAPI   C3122152   6.227   1.862   2.679  0.0228  0.7679  0.1527
  192SAPI   O3222153   6.139   1.936   2.639 -0.2540 -0.2582 -0.0732
  192SAPI   C3222154   6.316   1.886   2.799 -0.2783 -0.3045  0.3469
  192SAPI   H2X22155   6.408   1.936   2.760 -0.5319  1.7230  2.1910
  192SAPI   H2Y22156   6.348   1.788   2.839 -0.6906 -0.5463  0.0964
  192SAPI   C2322157   6.760   1.860   2.501  0.0379 -1.4732 -0.8025
  192SAPI   H3R22158   6.776   1.970   2.503  0.5245 -1.5474  0.0082
  192SAPI   H3S22159   6.856   1.807   2.484  1.4702  1.0801 -1.1902
  192SAPI   C2422160   6.705   1.820   2.643  0.0577 -0.4112 -0.3261
  192SAPI   H4R22161   6.639   1.731   2.628  0.8060 -1.0042 -0.1374
  192SAPI   H4S22162   6.636   1.902   2.673 -1.3435 -1.3630 -0.8344
  192SAPI   C2522163   6.811   1.805   2.750 -0.3594  0.6295 -1.3251
  192SAPI   H5R22164   6.900   1.741   2.734  0.6330  1.3538  0.8401
  192SAPI   C2622165   6.803   1.862   2.872  0.0117 -0.5932 -0.5078
  192SAPI   H6R22166   6.893   1.861   2.934 -1.7824 -0.5232  2.2410
  192SAPI   C2722167   6.689   1.944   2.929 -0.1985  0.7921  0.4200
  192SAPI   H7R22168   6.611   1.876   2.969 -1.3436  1.0644 -1.2384
  192SAPI   H7S22169   6.642   2.007   2.851 -0.0862 -1.2077 -1.3539
  192SAPI   C2822170   6.745   2.033   3.034  0.5624  0.2240 -0.1683
  192SAPI   H8R22171   6.804   2.112   2.985 -0.7573  0.2752 -1.7557
  192SAPI   C2922172   6.728   2.027   3.169 -0.7901 -0.2920 -0.0508
  192SAPI   H9R22173   6.784   2.098   3.233 -0.3466 -1.3873  0.8081
  192SAPI  C21022174   6.662   1.919   3.247  0.1645 -0.9054 -0.3656
  192SAPI  H10R22175   6.681   1.944   3.354 -0.5907 -1.0805 -0.1797
  192SAPI  H10S22176   6.713   1.822   3.227 -0.3706 -0.8406 -2.2233
  192SAPI  C21122177   6.515   1.899   3.220 -0.5427  0.5767  0.1325
  192SAPI  H11R22178   6.471   1.958   3.138  1.0915 -0.0070 -1.2204
  192SAPI  C21222179   6.429   1.835   3.302 -0.3128  1.2483 -0.1913
  192SAPI  H12R22180   6.320   1.839   3.288 -0.6219 -3.0516 -0.5741
  192SAPI  C21322181   6.471   1.762   3.430  0.3205  0.0801  0.1227
  192SAPI  H13R22182   6.481   1.837   3.511 -1.0621 -0.0831  0.4645
  192SAPI  H13S22183   6.568   1.710   3.414 -0.0183 -0.6796  0.4549
  192SAPI  C21422184   6.381   1.648   3.468  0.8693  0.0271  0.0327
  192SAPI  H14R22185   6.374   1.572   3.389  2.1366 -0.5501  0.4550
  192SAPI  C21522186   6.347   1.616   3.592 -0.4535 -0.1834  0.5736
  192SAPI  H15R22187   6.277   1.530   3.594 -2.6584  1.5330  1.5433
  192SAPI  C21622188   6.383   1.689   3.717 -0.5773  0.2652 -0.2043
  192SAPI  H16R22189   6.484   1.734   3.722 -1.3740  2.1447 -0.0277
  192SAPI  H16S22190   6.374   1.629   3.810  1.2998 -0.5209 -0.4963
  192SAPI  C21722191   6.288   1.808   3.752 -0.4567  0.0702  0.6425
  192SAPI  H17R22192   6.188   1.785   3.710  0.2132  0.5443 -1.2804
  192SAPI  H17S22193   6.326   1.887   3.684  0.8780 -0.4793  0.7126
  192SAPI  C21822194   6.284   1.862   3.893 -0.2119 -0.1098 -0.6225
  192SAPI  H18R22195   6.293   1.778   3.965  0.3199 -0.4219 -1.0483
  192SAPI  H18S22196   6.188   1.910   3.921  0.7585  1.7304 -0.2642
  192SAPI  C21922197   6.402   1.957   3.914  0.5650  0.1940 -0.1897
  192SAPI  H19R22198   6.379   2.048   3.854 -1.8046 -0.0881  0.2042
  192SAPI  H19S22199   6.497   1.910   3.882  0.5904  0.4132 -0.4377
  192SAPI  C22022200   6.425   2.014   4.054  0.2839 -0.0775 -0.3699
  192SAPI  H20R22201   6.503   2.092   4.048  0.0842  0.3573  1.7382
  192SAPI  H20S22202   6.454   1.934   4.126 -0.5185  0.2769  0.3680
  192SAPI  H20T22203   6.333   2.057   4.099  1.0004  0.3741  0.7114
  192SAPI   C3322204   6.255   1.976   2.909 -0.1697 -0.0280  0.7679
  192SAPI   H3X22205   6.187   2.049   2.860 -0.3708 -0.0759  0.9740
  192SAPI   H3Y22206   6.329   2.037   2.964 -0.1995 -0.0133  0.7912
  192SAPI   C3422207   6.166   1.906   3.008 -0.6627  0.2193  0.4135
  192SAPI   H4X22208   6.232   1.839   3.066  0.5990  1.3790  0.3499
  192SAPI   H4Y22209   6.090   1.848   2.951 -1.9582  2.0544  0.1848
  192SAPI   C3522210   6.109   2.003   3.108 -0.5094 -0.2157  0.3622
  192SAPI   H5X22211   6.053   2.091   3.069  0.4842  1.2524  2.0669
  192SAPI   H5Y22212   6.183   2.052   3.175  1.2478  0.6986 -2.0736
  192SAPI   C3622213   5.997   1.954   3.206  0.5795  0.5467  0.9392
  192SAPI   H6X22214   5.931   1.899   3.136  2.0321 -0.9623  0.7035
  192SAPI   H6Y22215   5.944   2.036   3.260 -1.3457 -0.2807  0.3946
  192SAPI   C3722216   6.025   1.844   3.315  0.2670  0.0876  0.4978
  192SAPI   H7X22217   6.095   1.770   3.271 -0.4109  0.8693 -2.0519
  192SAPI   H7Y22218   5.928   1.794   3.334 -0.8982  1.1484 -2.2118
  192SAPI   C3822219   6.085   1.904   3.447 -0.3794  0.1604 -0.7314
  192SAPI   H8X22220   6.171   1.967   3.415 -1.2406  1.5928 -0.2921
  192SAPI   H8Y22221   6.123   1.826   3.516 -0.7398  1.2886  0.7917
  192SAPI   C3922222   5.995   2.008   3.514 -0.7185  0.1503  0.8554
  192SAPI   H9X22223   5.897   1.956   3.505 -0.3540 -0.3878 -0.1967
  192SAPI   H9Y22224   5.984   2.106   3.464 -0.3999  1.1109  2.5761
  192SAPI  C31022225   6.024   2.022   3.663  0.2343  0.0996 -0.2708
  192SAPI  H10X22226   6.128   2.058   3.680  1.8941 -4.4815  0.9247
  192SAPI  H10Y22227   6.015   1.917   3.697 -0.1818  0.3482  0.3803
  192SAPI  C31122228   5.909   2.093   3.737 -0.3649  0.2827 -0.4522
  192SAPI  H11X22229   5.826   2.019   3.731  2.4324 -3.4693  2.3011
  192SAPI  H11Y22230   5.870   2.180   3.679  0.8157  0.9650 -0.2522
  192SAPI  C31222231   5.946   2.137   3.880  0.7047  0.6039  0.5260
  192SAPI  H12X22232   6.038   2.199   3.882  3.2477 -2.8774  1.3384
  192SAPI  H12Y22233   5.975   2.046   3.937 -0.9534 -0.0272  0.4437
  192SAPI  C31322234   5.819   2.204   3.949 -0.2927 -0.1348  0.6211
  192SAPI  H13X22235   5.752   2.121   3.981 -0.3237 -0.1106  0.6196
  192SAPI  H13Y22236   5.758   2.278   3.894  0.4622 -0.3495 -0.5414
  192SAPI  C31422237   5.877   2.265   4.081  0.3412 -0.0256  0.7769
  192SAPI  H14X22238   5.975   2.309   4.053  0.9471 -1.1945  0.9901
  192SAPI  H14Y22239   5.901   2.186   4.156 -1.0785 -0.2475  1.0217
  192SAPI  C31522240   5.766   2.363   4.141  0.1173  0.3325  0.5353
  192SAPI  H15X22241   5.681   2.301   4.175  0.1928 -1.3234 -2.0276
  192SAPI  H15Y22242   5.724   2.428   4.062  2.2957 -0.4384 -1.3714
  192SAPI  C31622243   5.832   2.447   4.252  0.4986  0.5631 -0.2143
  192SAPI  H16X22244   5.915   2.507   4.206  1.8607 -0.0707  1.3275
  192SAPI  H16Y22245   5.878   2.381   4.328 -1.8562 -0.9403 -0.0150
  192SAPI  C31722246   5.729   2.526   4.331 -0.2876 -0.2072 -0.1431
  192SAPI  H17X22247   5.788   2.587   4.402  0.1480  1.5548 -1.9355
  192SAPI  H17Y22248   5.667   2.446   4.378  0.9751 -0.8725  0.4313
  192SAPI  C31822249   5.639   2.622   4.255 -0.0911  1.3409 -0.7945
  192SAPI  H18X22250   5.560   2.581   4.189  2.5100 -1.6706 -2.2593
  192SAPI  H18Y22251   5.708   2.691   4.201  3.1384 -0.7302  0.3831
  192SAPI  H18Z22252   5.582   2.672   4.337 -2.5297 -0.5931 -1.2044
  193POT    POT22253   4.074   0.034   7.668 -0.1324 -0.3989  0.0305
  194POT    POT22254   4.205   6.267   0.156 -0.1597 -0.0196  0.0625
  195POT    POT22255   2.559   3.391   8.201  0.2071  0.2269  0.2944
  196POT    POT22256   3.769   6.543   6.248 -0.2436 -0.1653 -0.1704
  197POT    POT22257   4.410   1.570   0.500  0.0759  0.1597 -0.0430
  198POT    POT22258   0.269   2.122   0.368 -0.0897 -0.0099 -0.2840
  199POT    POT22259   3.568   2.559   7.545  0.2750 -0.2644 -0.2203
  200POT    POT22260   1.260   4.221   6.744 -0.4054 -0.3105  0.2893
  201POT    POT22261   2.069   3.359   1.781 -0.4295 -0.1077 -0.1158
  202POT    POT22262   0.664   1.724   8.267 -0.1513 -0.0080  0.1172
  203POT    POT22263   5.949   6.294   1.998 -0.1897  0.2522 -0.2645
  204POT    POT22264   3.239   6.767   1.458 -0.1760  0.6260 -0.0452
  205POT    POT22265   0.089   6.705   6.824  0.1812  0.0623 -0.2484
  206POT    POT22266   6.350   5.187   6.571  0.2479 -0.0826  0.2276
  207POT    POT22267   2.534   0.593   7.521  0.1843 -0.1248  0.3004
  208POT    POT22268   1.300   1.720   0.717  0.5750 -0.0043  0.0359
  209POT    POT22269   1.226   6.198   6.906 -0.4043 -0.0831 -0.0162
  210POT    POT22270   5.784   2.696   7.936 -0.1926 -0.1535 -0.4347
  211POT    POT22271   1.994   6.337   2.225  0.0159 -0.4502 -0.0548
  212POT    POT22272   4.414   0.183   6.990 -0.1041 -0.0274  0.3191
  213POT    POT22273   0.649   5.776   6.001  0.1390  0.0509  0.1165
  214POT    POT22274   3.113   6.542   1.090  0.0877  0.4722 -0.2584
  215POT    POT22275   1.211   2.564   8.219 -0.2414 -0.2350  0.1940
  216POT    POT22276   3.501   3.391   1.296  0.3995 -0.0404 -0.1695
  217POT    POT22277   0.408   3.328   7.626 -0.5320  0.3720 -0.4539
  218POT    POT22278   2.518   1.454   1.616 -0.2922  0.3383 -0.0612
  219POT    POT22279   0.553   0.247   0.570  0.0567 -0.0733 -0.0985
  220POT    POT22280   4.792   6.399   8.132  0.2470 -0.1851  0.3513
  221POT    POT22281   1.334   4.761   1.641 -0.4159  0.1378 -0.2294
  222POT    POT22282   3.167   4.342   1.247 -0.2675  0.1206  0.2845
  223POT    POT22283   5.277   1.860   1.954 -0.0349 -0.5410 -0.2406
  224POT    POT22284   0.391   5.996   7.998  0.5050 -0.1290  0.3016
  225POT    POT22285   6.180   4.734   6.604  0.2013 -0.0795 -0.2737
  226POT    POT22286   6.390   3.745   7.912 -0.1165  0.2113 -0.0950
  227POT    POT22287   5.128   6.629   7.076 -0.1996  0.1789  0.0865
  228POT    POT22288   6.948   4.986   0.408 -0.0248 -0.0776 -0.1854
  229POT    POT22289   4.702   5.038   0.438  0.2557 -0.0631  0.4829
  230POT    POT22290   2.274   2.449   7.002  0.5716 -0.0700 -0.1022
  231POT    POT22291   0.898   6.527   2.199 -0.2435 -0.7786 -0.1250
  232POT    POT22292   6.729   2.160   1.333 -0.0744  0.1899  0.0394
  233CLA    CLA22293   0.607   6.024   7.752  0.1986 -0.1216  0.2643
  234CLA    CLA22294   1.004   1.693   1.263 -0.3222  0.0386 -0.5604
  235CLA    CLA22295   5.021   6.360   0.236  0.2397  0.0338 -0.2297
  236CLA    CLA22296   5.835   4.551   8.244 -0.3426  0.3152 -0.1133
  237CLA    CLA22297   3.458   0.944   7.798  0.0882 -0.0797 -0.3785
  238CLA    CLA22298   0.045   3.912   1.285  0.1175  0.1588  0.0290
  239CLA    CLA22299   5.797   6.106   0.340  0.1762 -0.0317 -0.2711
  240CLA    CLA22300   3.031   6.351   8.302 -0.3443 -0.5393 -0.4083
  241CLA    CLA22301   0.976   4.393   0.011  0.2129  0.1364 -0.1829
  242CLA    CLA22302   4.967   1.796   1.421 -0.3162 -0.0826  0.1712
  243CLA    CLA22303   6.181   1.219   8.175 -0.2007 -0.4610  0.1395
  244CLA    CLA22304   2.048   0.928   7.168  0.1743 -0.0522  0.1360
  245CLA    CLA22305   2.896   2.574   0.952 -0.5570 -0.5119  0.0553
  246CLA    CLA22306   5.546   3.707   7.820  0.3597 -0.1743 -0.0218
  247CLA    CLA22307   5.399   5.933   7.321 -0.5216 -0.3024  0.4235
  248CLA    CLA22308   3.477   6.751   8.266 -0.4821 -0.0950  0.1519
  249TIP3   OH222309   4.155   2.644   6.565 -0.5541  0.0436 -0.0359
  249TIP3    H122310   4.202   2.580   6.511 -1.0712 -1.8636  1.6528
  249TIP3    H222311   4.063   2.618   6.558 -0.7837  0.6418  0.6594
  250TIP3   OH222312   5.386   4.354   0.620 -0.4081 -0.3761  0.6357
  250TIP3    H122313   5.363   4.407   0.696  0.7358  0.8168  0.1919
  250TIP3    H222314   5.308   4.357   0.564 -1.2981 -1.3626  1.7768
  251TIP3   OH222315   6.053   2.260   0.440 -0.1596 -0.5037  0.2118
  251TIP3    H122316   6.113   2.194   0.473  0.2259 -0.4180 -0.3124
  251TIP3    H222317   5.984   2.265   0.507  1.0648  0.3326  1.4537
  252TIP3   OH222318   3.528   3.824   0.841 -0.1036  0.3432  0.1207
  252TIP3    H122319   3.609   3.802   0.796 -0.5924 -0.7182 -0.2711
  252TIP3    H222320   3.476   3.744   0.838 -1.7457  1.3713 -0.9069
  253TIP3   OH222321   6.683   4.670   7.668  0.3604 -0.6497 -0.1005
  253TIP3    H122322   6.654   4.621   7.745  2.2787 -2.9032 -0.6852
  253TIP3    H222323   6.744   4.735   7.702 -0.2005 -0.3970  0.4436
  254TIP3   OH222324   4.149   3.592   6.732 -0.6935 -0.5482 -0.7672
  254TIP3    H122325   4.057   3.580   6.711 -1.1152 -0.1835  0.7500
  254TIP3    H222326   4.194   3.592   6.647 -2.3807  1.9547 -1.7700
  255TIP3   OH222327   3.377   2.118   7.183 -0.1209  0.2832  0.2608
  255TIP3    H122328   3.299   2.173   7.178  0.7132  1.7796  2.2941
  255TIP3    H222329   3.343   2.029   7.181 -1.7483  0.8671 -0.3703
  256TIP3   OH222330   2.984   1.504   6.916 -0.1646 -0.0759 -0.7344
  256TIP3    H122331   2.943   1.478   6.833 -0.8136 -2.8316  0.3359
  256TIP3    H222332   2.915   1.551   6.963 -0.4765 -0.3248 -0.9383
  257TIP3   OH222333   6.031   3.158   1.065 -0.5888  0.0194  0.5437
  257TIP3    H122334   5.958   3.140   1.005 -0.6057  1.7640 -0.0180
  257TIP3    H222335   5.996   3.140   1.152 -0.8595 -1.6593  0.1108
  258TIP3   OH222336   0.255   0.262   7.052 -0.3059 -0.2938 -0.0079
  258TIP3    H122337   0.294   0.178   7.028  0.9359  0.0540  0.7199
  258TIP3    H222338   0.298   0.286   7.133 -4.1880 -1.3440  2.6499
  259TIP3   OH222339   3.382   1.010   1.627  0.4247 -0.0815 -0.0282
  259TIP3    H122340   3.353   0.987   1.716 -0.0835 -1.1700 -0.4608
  259TIP3    H222341   3.478   1.003   1.631  0.3535 -1.1559  0.1741
  260TIP3   OH222342   2.519   4.121   0.395 -0.1598 -0.0612 -0.0101
  260TIP3    H122343   2.586   4.153   0.455 -2.1239  1.5841  1.4302
  260TIP3    H222344   2.443   4.176   0.412 -2.4114 -2.8245 -0.4750
  261TIP3   OH222345   3.813   5.305   0.531 -0.5419  0.2657  0.8080
  261TIP3    H122346   3.787   5.288   0.441 -1.0326  0.5695  0.8825
  261TIP3    H222347   3.842   5.396   0.531  0.8316 -0.1450  0.6717
  262TIP3   OH222348   2.540   2.903   0.801 -0.8821 -0.6909 -0.2592
  262TIP3    H122349   2.586   2.905   0.884  0.0681  1.4759 -0.7737
  262TIP3    H222350   2.549   2.812   0.771  0.2871 -1.0817  1.1568
  263TIP3   OH222351   0.236   4.222   1.467  0.1831 -0.2525 -0.0486
  263TIP3    H122352   0.328   4.195   1.463  0.8988  1.8992  0.3419
  263TIP3    H222353   0.195   4.180   1.392  1.2442 -2.0231  0.3065
  264TIP3   OH222354   5.432   1.894   1.104  0.4642  0.2211 -0.0306
  264TIP3    H122355   5.401   1.958   1.040  0.1487 -0.1563 -0.2639
  264TIP3    H222356   5.458   1.946   1.180  0.8238  0.6725 -0.4558
  265TIP3   OH222357   4.233   4.925   1.812  0.2011  0.3518 -0.2428
  265TIP3    H122358   4.138   4.933   1.812  0.2133  0.6267 -1.1253
  265TIP3    H222359   4.253   4.880   1.730  0.8741  0.9295 -0.4051
  266TIP3   OH222360   1.865   5.382   7.358  0.2677 -0.0553 -0.3378
  266TIP3    H122361   1.925   5.452   7.329 -1.0488  0.5743 -1.6523
  266TIP3    H222362   1.912   5.301   7.338  1.0759  0.4296 -0.4682
  267TIP3   OH222363   3.830   5.744   8.065 -0.2468  0.4149  0.2555
  267TIP3    H122364   3.767   5.799   8.020 -1.1388 -2.0303 -1.7105
  267TIP3    H222365   3.895   5.805   8.100 -2.1701  2.7888 -0.0915
  268TIP3   OH222366   5.751   4.705   0.270 -0.0151  0.0898  0.1035
  268TIP3    H122367   5.748   4.712   0.365 -2.0789  0.9465  0.0388
  268TIP3    H222368   5.759   4.796   0.240  0.3743 -0.1547 -0.5388
  269TIP3   OH222369   3.335   1.489   7.441  0.4624  0.1376  0.1263
  269TIP3    H122370   3.361   1.404   7.404  1.6396  1.3741 -2.0813
  269TIP3    H222371   3.406   1.549   7.418 -1.0908  2.0947  0.1357
  270TIP3   OH222372   6.008   5.835   1.325  0.0421  0.1646 -0.8236
  270TIP3    H122373   5.978   5.826   1.415  0.7649  0.1806 -0.5737
  270TIP3    H222374   6.072   5.765   1.314 -0.1973  0.0281 -1.3934
  271TIP3   OH222375   4.492   2.804   1.424  0.1359  0.2334 -0.3048
  271TIP3    H122376   4.468   2.897   1.424 -0.0062  0.1974 -0.1008
  271TIP3    H222377   4.581   2.803   1.388 -0.8933  0.1689 -3.0589
  272TIP3   OH222378   6.313   2.237   1.530  0.4628  0.3053 -0.2381
  272TIP3    H122379   6.340   2.150   1.501  2.2276  0.7204  0.0671
  272TIP3    H222380   6.266   2.221   1.612  1.8294 -0.2910  0.4586
  273TIP3   OH222381   1.683   1.321   8.310  0.0495  0.1089 -0.1234
  273TIP3    H122382   1.681   1.254   8.379 -0.2013 -0.5254 -0.7335
  273TIP3    H222383   1.772   1.357   8.314  0.8181 -1.5646 -0.9940
  274TIP3   OH222384   6.919   0.967   0.530 -0.4448  0.1757 -0.2960
  274TIP3    H122385   6.997   1.018   0.508  0.3269 -1.3496 -1.2719
  274TIP3    H222386   6.873   0.956   0.446 -1.1320  0.0939  0.0810
  275TIP3   OH222387   4.836   2.450   6.791 -0.0536  0.6670  0.2023
  275TIP3    H122388   4.830   2.495   6.707  3.0570  0.2784 -0.3477
  275TIP3    H222389   4.850   2.358   6.767 -2.5582 -0.0788  1.2673
  276TIP3   OH222390   3.892   4.501   1.045 -0.1772  0.1057 -0.7232
  276TIP3    H122391   3.914   4.491   0.952 -2.0595  1.1705 -1.3390
  276TIP3    H222392   3.904   4.414   1.082 -0.1150 -0.5127 -2.1401
  277TIP3   OH222393   2.472   0.759   0.413  0.3279  0.0298  0.4141
  277TIP3    H122394   2.525   0.680   0.398 -0.7983 -0.9106  1.1435
  277TIP3    H222395   2.534   0.831   0.405  1.4485 -0.9389 -0.0578
  278TIP3   OH222396   3.746   5.620   7.330 -0.3145 -0.3066 -0.5895
  278TIP3    H122397   3.771   5.528   7.318 -0.7802 -0.4418 -0.5730
  278TIP3    H222398   3.705   5.622   7.417  0.3014  0.0547 -0.3047
  279TIP3   OH222399   2.166   3.371   7.143  0.0146  0.2680 -0.1632
  279TIP3    H122400   2.103   3.443   7.149 -2.3065 -1.7166  1.1548
  279TIP3    H222401   2.212   3.385   7.061 -0.0750  3.4208  0.2204
  280TIP3   OH222402   4.992   6.671   0.898 -0.3092  0.2794 -0.0747
  280TIP3    H122403   4.916   6.617   0.876  1.6709 -3.4249  1.2766
  280TIP3    H222404   4.993   6.674   0.993  1.0772  0.4379 -0.0732
  281TIP3   OH222405   0.074   4.257   6.635 -0.8096  0.1174 -0.0021
  281TIP3    H122406  -0.015   4.220   6.637 -1.0774  0.6982 -0.5769
  281TIP3    H222407   0.067   4.332   6.576  0.5886 -1.2189 -2.0205
  282TIP3   OH222408   4.059   5.009   6.413  1.1923  0.4982 -0.3492
  282TIP3    H122409   4.069   4.918   6.441 -0.5484  0.3799 -0.0461
  282TIP3    H222410   4.109   5.059   6.479 -0.6912  0.0072  1.5497
  283TIP3   OH222411   2.689   5.508   8.010 -0.3515  0.2995  0.4383
  283TIP3    H122412   2.610   5.559   7.992 -0.6108 -0.0864  0.4646
  283TIP3    H222413   2.743   5.566   8.064  0.6629  1.6743 -1.8776
  284TIP3   OH222414   1.877   0.791   0.779 -0.3674 -0.2763 -0.2697
  284TIP3    H122415   1.960   0.751   0.805  0.6895  2.2979  0.6405
  284TIP3    H222416   1.846   0.737   0.706  1.6791 -1.7789 -0.1152
  285TIP3   OH222417   2.533   3.343   1.584 -0.3109 -0.2915  0.0129
  285TIP3    H122418   2.463   3.307   1.638  0.6457 -2.5843 -0.1681
  285TIP3    H222419   2.597   3.376   1.647 -0.4513 -0.4263  0.2298
  286TIP3   OH222420   1.321   3.937   7.781 -0.0986 -0.4303 -0.2537
  286TIP3    H122421   1.283   3.905   7.698  0.1215 -0.0992 -0.4830
  286TIP3    H222422   1.346   3.857   7.827 -1.1812 -0.6707 -0.0446
  287TIP3   OH222423   4.086   0.571   6.590  0.0541  0.1447  0.3934
  287TIP3    H122424   4.137   0.637   6.636  0.0877 -0.6828  1.6079
  287TIP3    H222425   4.150   0.509   6.556  0.0433  0.8673 -1.0106
  288TIP3   OH222426   1.777   5.929   6.656  0.3001  0.0613 -1.0220
  288TIP3    H122427   1.701   5.967   6.701 -0.1081 -0.0771 -1.5971
  288TIP3    H222428   1.783   5.977   6.574  0.2286 -0.6180 -1.4263
  289TIP3   OH222429   4.664   4.710   7.141  0.7360  0.1781  0.9079
  289TIP3    H122430   4.591   4.736   7.085  2.0873  3.0860  0.3267
  289TIP3    H222431   4.637   4.734   7.230  0.9326  1.2638  0.6919
  290TIP3   OH222432   6.314   4.806   6.376  0.1657  0.4655 -0.0726
  290TIP3    H122433   6.316   4.817   6.281  0.8511 -0.1202 -0.1338
  290TIP3    H222434   6.406   4.800   6.401 -0.0322 -1.6626  0.3408
  291TIP3   OH222435   1.880   0.770   8.281  0.0777  0.3413 -0.0053
  291TIP3    H122436   1.807   0.829   8.264 -0.1649  0.0676  0.0742
  291TIP3    H222437   1.884   0.714   8.204  0.3774  0.5301 -0.1289
  292TIP3   OH222438   4.823   6.432   1.239 -0.4923 -0.1045  0.4096
  292TIP3    H122439   4.772   6.369   1.291 -0.0932 -0.1070  0.8030
  292TIP3    H222440   4.906   6.387   1.223 -1.1880 -0.7926 -1.6578
  293TIP3   OH222441   3.218   3.931   0.964 -0.6857 -0.1250  0.3875
  293TIP3    H122442   3.312   3.933   0.984 -0.3605  1.1686 -1.1382
  293TIP3    H222443   3.177   3.965   1.043  0.2316  0.6553  0.5468
  294TIP3   OH222444   1.576   6.119   6.517  0.1297  0.3626  0.2758
  294TIP3    H122445   1.634   6.115   6.441 -0.4503 -1.3076 -0.1291
  294TIP3    H222446   1.492   6.150   6.481 -0.4788 -1.5175 -0.0476
  295TIP3   OH222447   4.223   6.040   1.093  0.4268 -0.2597 -0.3496
  295TIP3    H122448   4.293   6.016   1.155 -0.4824 -0.3121  0.6859
  295TIP3    H222449   4.243   6.131   1.070  0.7126 -0.1959  0.1170
  296TIP3   OH222450   1.149   0.200   0.467 -0.1234  0.3452  0.0344
  296TIP3    H122451   1.073   0.142   0.468 -0.2744  0.5266 -0.6626
  296TIP3    H222452   1.208   0.161   0.402  0.0901  0.5702  0.0909
  297TIP3   OH222453   2.349   1.999   7.614  0.1716 -0.6755  0.0479
  297TIP3    H122454   2.405   1.924   7.597 -0.4195 -0.3985 -4.1152
  297TIP3    H222455   2.260   1.966   7.596 -0.3313  0.4564  0.3956
  298TIP3   OH222456   2.211   3.152   2.187 -0.1822  0.5869 -0.5918
  298TIP3    H122457   2.260   3.176   2.266 -1.5728 -0.2452  0.5880
  298TIP3    H222458   2.122   3.139   2.218  0.0072 -4.2802 -1.3242
  299TIP3   OH222459   2.995   5.678   6.987  0.3671 -0.5028 -0.4471
  299TIP3    H122460   3.068   5.616   6.986  3.3073  2.6406 -1.1239
  299TIP3    H222461   2.987   5.704   7.079 -0.4502 -1.3604 -0.2605
  300TIP3   OH222462   0.655   0.883   6.604  0.1022 -0.7363 -0.1322
  300TIP3    H122463   0.724   0.878   6.539  0.7184  1.6591  0.2708
  300TIP3    H222464   0.594   0.948   6.570  0.4781  0.6338  1.6733
  301TIP3   OH222465   2.273   6.196   0.908  0.0528 -0.7262 -0.0168
  301TIP3    H122466   2.280   6.230   0.819 -0.5775  1.1665  0.5853
  301TIP3    H222467   2.246   6.273   0.960 -2.7785 -2.4208  1.2727
  302TIP3   OH222468   5.749   5.447   1.271  0.1729  0.8275  0.1385
  302TIP3    H122469   5.775   5.450   1.363 -0.1619  2.4988  0.2018
  302TIP3    H222470   5.831   5.441   1.223  0.3598  0.1791  0.5307
  303TIP3   OH222471   4.519   2.222   6.739 -0.2763  0.5424  0.4692
  303TIP3    H122472   4.451   2.154   6.746 -0.2012  0.5816  1.8977
  303TIP3    H222473   4.584   2.185   6.679 -1.4293  0.4078 -0.7438
  304TIP3   OH222474   4.471   4.172   6.979  0.2093 -1.0767  0.2602
  304TIP3    H122475   4.489   4.263   6.957  1.4497 -1.2499  0.5131
  304TIP3    H222476   4.535   4.122   6.929 -1.2853 -1.9155 -0.8828
  305TIP3   OH222477   5.301   6.263   2.053  0.2904  0.4097 -0.5185
  305TIP3    H122478   5.291   6.245   1.960  0.5933  1.8102 -0.8438
  305TIP3    H222479   5.383   6.220   2.077  0.5757  0.6264 -1.0763
  306TIP3   OH222480   6.191   1.535   0.542  0.0812  0.2511  0.0220
  306TIP3    H122481   6.195   1.461   0.603  1.4800 -0.7758 -1.2708
  306TIP3    H222482   6.255   1.515   0.474 -0.5894  1.9349 -1.1840
  307TIP3   OH222483   6.584   5.929   7.439 -0.7824 -0.2195  0.0197
  307TIP3    H122484   6.627   5.994   7.384 -1.4362  1.1654  1.0615
  307TIP3    H222485   6.498   5.917   7.401 -0.6604 -0.4948 -0.1745
  308TIP3   OH222486   4.337   1.335   8.350 -0.0049  0.5455  0.0157
  308TIP3    H122487   4.298   1.249   8.366  1.8728 -0.1679  0.9730
  308TIP3    H222488   4.375   1.328   8.262 -0.0237  0.4687  0.0133
  309TIP3   OH222489   6.409   1.320   7.785  0.9293 -0.0421  0.2955
  309TIP3    H122490   6.317   1.314   7.760  0.7893  0.9674  0.5267
  309TIP3    H222491   6.458   1.313   7.703  0.6858 -1.1328  0.2265
  310TIP3   OH222492   3.171   6.998   6.965 -0.4120  0.4114 -0.4782
  310TIP3    H122493   3.231   6.929   6.995 -0.9180 -0.2180 -0.8806
  310TIP3    H222494   3.213   7.080   6.992  0.2235 -0.0504 -0.0315
  311TIP3   OH222495   3.242   3.606   6.748 -0.0200  0.1561 -0.4918
  311TIP3    H122496   3.232   3.700   6.762  1.8286  0.7118 -2.3910
  311TIP3    H222497   3.306   3.599   6.677 -0.4757 -2.5383 -0.7380
  312TIP3   OH222498   1.223   3.806   6.166  0.3675  0.0655 -0.1851
  312TIP3    H122499   1.157   3.811   6.236  0.4641  0.1896 -0.1005
  312TIP3    H222500   1.282   3.880   6.185 -0.9296  1.5877 -1.7584
  313TIP3   OH222501   4.487   4.116   0.991  0.4424  0.3165 -0.0147
  313TIP3    H122502   4.524   4.204   0.995  1.2043 -0.0324  1.2439
  313TIP3    H222503   4.533   4.073   0.919  1.3565  0.3968  0.5095
  314TIP3   OH222504   5.276   1.919   6.355 -0.1732  0.5330  0.0658
  314TIP3    H122505   5.258   2.010   6.377  1.5360  1.4060 -1.7859
  314TIP3    H222506   5.209   1.896   6.290  0.7151  1.2789 -1.1689
  315TIP3   OH222507   2.378   4.637   6.714 -0.4485  0.3702  0.3143
  315TIP3    H122508   2.312   4.661   6.650 -0.1478  2.6239  0.7586
  315TIP3    H222509   2.367   4.542   6.726 -3.9300  0.6981  0.7414
  316TIP3   OH222510   6.118   3.688   8.385  0.2653 -0.0967  0.1268
  316TIP3    H122511   6.095   3.727   8.300  0.9573  0.5241  0.2212
  316TIP3    H222512   6.050   3.621   8.399 -0.8797  0.9840 -0.0922
  317TIP3   OH222513   1.830   2.109   7.340  0.3081  0.6803  0.1578
  317TIP3    H122514   1.834   2.114   7.244  1.5449  0.4231  0.1808
  317TIP3    H222515   1.918   2.132   7.369 -0.0052  0.5714  1.2283
  318TIP3   OH222516   5.196   1.135   7.582 -0.4095 -0.3296 -0.2212
  318TIP3    H122517   5.271   1.171   7.629  0.2399 -0.8783 -0.8130
  318TIP3    H222518   5.223   1.047   7.558 -1.1108 -0.4092 -0.7518
  319TIP3   OH222519   0.954   3.643   1.322 -0.4017  0.5092 -0.3518
  319TIP3    H122520   0.860   3.649   1.302 -0.1761  1.6614 -1.1331
  319TIP3    H222521   0.996   3.642   1.236  0.2676 -1.1758 -0.0398
  320TIP3   OH222522   0.731   4.648   6.330 -0.1035 -0.2155 -0.1019
  320TIP3    H122523   0.688   4.702   6.264  2.1815  0.7024 -0.9380
  320TIP3    H222524   0.732   4.560   6.292 -1.1481 -0.2546 -0.0739
  321TIP3   OH222525   2.195   5.760   1.063 -0.1130  0.3132  0.0222
  321TIP3    H122526   2.178   5.708   1.142  2.2007 -2.5689 -1.1815
  321TIP3    H222527   2.151   5.712   0.993  1.2929  0.4527 -1.0017
  322TIP3   OH222528   6.956   4.461   1.610  0.0950 -0.4650  0.0933
  322TIP3    H122529   6.953   4.366   1.595  0.2188 -0.6936  1.3699
  322TIP3    H222530   6.875   4.481   1.656 -0.1356  0.1409 -0.5526
  323TIP3   OH222531   3.800   2.157   7.923  0.5388  0.0835 -0.0781
  323TIP3    H122532   3.803   2.239   7.873 -0.5716  0.4686  0.4495
  323TIP3    H222533   3.716   2.119   7.902  1.9022 -2.0962 -2.0358
  324TIP3   OH222534   6.724   4.023   6.391 -0.2629  0.3095  0.3540
  324TIP3    H122535   6.646   4.078   6.385  0.0758  0.9243  1.2775
  324TIP3    H222536   6.721   3.989   6.481  0.0568 -0.3952  0.1021
  325TIP3   OH222537   1.351   6.722   8.093  0.0567 -0.0202  0.3822
  325TIP3    H122538   1.423   6.690   8.039  0.7469  2.1403 -0.0578
  325TIP3    H222539   1.286   6.753   8.030  1.2020  3.2696  0.6297
  326TIP3   OH222540   6.163   1.051   0.628  0.8443 -0.2375 -0.1877
  326TIP3    H122541   6.102   1.003   0.684  0.9021  0.0861  0.1597
  326TIP3    H222542   6.249   1.034   0.667  0.6753  1.9663  1.3482
  327TIP3   OH222543   2.034   0.596   7.713  0.6231 -0.1373 -0.5908
  327TIP3    H122544   2.095   0.666   7.693  0.1198  0.3385 -0.4697
  327TIP3    H222545   2.047   0.578   7.806 -0.6846  1.2178 -0.1113
  328TIP3   OH222546   6.369   3.192   2.415  0.1727  0.1810  0.0770
  328TIP3    H122547   6.280   3.157   2.411 -0.2343  1.1814  0.0612
  328TIP3    H222548   6.363   3.276   2.369  0.7192  1.0969  1.6094
  329TIP3   OH222549   2.965   4.029   7.859  0.2115 -0.1524  0.7564
  329TIP3    H122550   3.060   4.038   7.868  0.1879 -0.7618  1.7548
  329TIP3    H222551   2.948   4.047   7.767  1.5298 -1.7952  0.1423
  330TIP3   OH222552   5.966   5.729   0.222 -0.7783  0.3427  0.1382
  330TIP3    H122553   5.873   5.703   0.227 -0.7130 -0.0236 -0.4261
  330TIP3    H222554   6.009   5.674   0.288 -1.0132  0.7862  0.6742
  331TIP3   OH222555   0.965   3.130   0.637  0.2554 -0.1685  0.7157
  331TIP3    H122556   0.895   3.111   0.699  0.1331  2.0262  1.3189
  331TIP3    H222557   1.022   3.192   0.682 -0.8373  3.0311 -1.8762
  332TIP3   OH222558   3.778   3.778   0.738  0.1087  0.0348 -0.4395
  332TIP3    H122559   3.772   3.873   0.749 -1.3111  0.0264 -1.0030
  332TIP3    H222560   3.837   3.766   0.664  1.6528  0.3870  0.6613
  333TIP3   OH222561   6.971   3.226   7.891  0.1676  0.2969  0.2522
  333TIP3    H122562   6.943   3.172   7.965  0.0011  0.5452  0.3722
  333TIP3    H222563   6.892   3.273   7.864  0.2010  0.1159 -0.1623
  334TIP3   OH222564   0.322   5.660   6.938 -0.0329  0.0528  0.5396
  334TIP3    H122565   0.332   5.578   6.988 -0.7263 -0.7223 -0.5547
  334TIP3    H222566   0.234   5.690   6.960 -1.1423 -1.3503 -1.6708
  335TIP3   OH222567   2.540   1.371   6.140  0.1985  0.2588  0.3675
  335TIP3    H122568   2.496   1.363   6.225 -0.6654  0.5232 -0.0349
  335TIP3    H222569   2.630   1.395   6.161  0.8204 -2.5872  1.3054
  336TIP3   OH222570   0.729   3.672   0.267  0.0021  0.4820  0.5500
  336TIP3    H122571   0.739   3.577   0.276  0.0922  0.4187 -0.1762
  336TIP3    H222572   0.819   3.705   0.260 -0.0803  0.4121 -1.1323
  337TIP3   OH222573   4.246   5.735   0.707  0.0935  0.5942 -0.5911
  337TIP3    H122574   4.176   5.776   0.759  0.5194  0.4471  0.1071
  337TIP3    H222575   4.325   5.781   0.734  0.4883 -0.2732 -0.2405
  338TIP3   OH222576   2.991   5.325   0.028  0.0526 -0.6044  0.2750
  338TIP3    H122577   2.997   5.230   0.024 -0.1521 -0.5981 -0.4405
  338TIP3    H222578   2.898   5.344   0.016  0.0230 -0.3309  0.9138
  339TIP3   OH222579   0.828   4.014   7.979  0.1524  0.1710 -0.0851
  339TIP3    H122580   0.919   4.039   7.966 -0.3346  2.6549  0.7254
  339TIP3    H222581   0.810   4.034   8.071 -1.0045 -1.0413 -0.0148
  340TIP3   OH222582   5.659   1.209   1.473 -0.1573  0.3591 -0.6602
  340TIP3    H122583   5.620   1.250   1.551  0.1141  0.1014 -0.3876
  340TIP3    H222584   5.710   1.279   1.433 -0.1743  0.4517 -0.5224
  341TIP3   OH222585   2.403   2.602   8.336 -0.4614 -0.0100 -0.2898
  341TIP3    H122586   2.476   2.647   8.295  0.7807 -1.6891 -0.0315
  341TIP3    H222587   2.343   2.672   8.363  1.2835  1.4570 -0.0472
  342TIP3   OH222588   3.692   2.429   2.319  0.4480 -0.0641  0.2187
  342TIP3    H122589   3.698   2.337   2.345  1.0940 -0.2593 -0.5769
  342TIP3    H222590   3.624   2.430   2.252  0.5908 -0.0014  0.0745
  343TIP3   OH222591   5.763   6.944   6.844  0.7433 -0.3634  0.6714
  343TIP3    H122592   5.669   6.946   6.830  0.6956 -0.5174  0.9639
  343TIP3    H222593   5.793   6.865   6.798  0.6898 -0.4698  0.8197
  344TIP3   OH222594   6.395   3.520   1.426  0.2741  0.0852  0.2471
  344TIP3    H122595   6.433   3.480   1.504  1.3128  1.4907  0.4903
  344TIP3    H222596   6.339   3.451   1.389  0.4482 -0.9006  1.7270
  345TIP3   OH222597   2.135   2.484   1.640 -0.2764 -0.1232  0.4498
  345TIP3    H122598   2.087   2.522   1.567 -1.6856 -0.1634  1.3191
  345TIP3    H222599   2.131   2.549   1.709 -2.0213 -1.4476  1.6781
  346TIP3   OH222600   5.672   2.893   8.328 -0.3307  0.2105  0.4021
  346TIP3    H122601   5.652   2.984   8.306  0.5063  0.0089 -1.4162
  346TIP3    H222602   5.762   2.881   8.296 -0.3751 -1.2082  0.7684
  347TIP3   OH222603   5.072   6.620   1.732 -0.4881  0.5912  0.3300
  347TIP3    H122604   5.149   6.676   1.720 -0.1643  0.0155 -0.3261
  347TIP3    H222605   5.097   6.558   1.801 -0.6512  0.8950  0.6677
  348TIP3   OH222606   6.990   6.645   2.023 -0.1085 -0.4097 -0.0643
  348TIP3    H122607   7.021   6.555   2.035 -1.4398 -1.0668 -1.3209
  348TIP3    H222608   6.898   6.642   2.051 -0.3164  0.4321 -0.6424
  349TIP3   OH222609   0.543   6.054   7.210 -0.5337 -0.4780 -0.2985
  349TIP3    H122610   0.451   6.029   7.219 -0.1191 -1.4798  1.9830
  349TIP3    H222611   0.564   6.097   7.293  0.7089  1.0418 -1.3486
  350TIP3   OH222612   1.042   5.328   7.890  0.6989 -0.4258 -0.1288
  350TIP3    H122613   1.106   5.347   7.958  0.2456 -0.1489  0.2258
  350TIP3    H222614   1.075   5.373   7.812  0.8880 -0.2181  0.0717
  351TIP3   OH222615   6.173   2.146   6.145 -0.3063 -0.0884 -0.0260
  351TIP3    H122616   6.255   2.096   6.148 -0.1489  0.1328 -0.4643
  351TIP3    H222617   6.126   2.110   6.070  0.3629  1.2458 -1.1259
  352TIP3   OH222618   5.620   6.482   7.290 -0.0868 -0.2825 -0.4921
  352TIP3    H122619   5.609   6.573   7.315 -1.5346 -0.8612  1.1527
  352TIP3    H222620   5.708   6.478   7.252  0.4231  1.5609  0.3926
  353TIP3   OH222621   2.782   6.136   0.359  0.4052  0.7509 -0.1643
  353TIP3    H122622   2.718   6.175   0.419  1.4174  1.5801  0.4122
  353TIP3    H222623   2.847   6.205   0.345  0.4312  0.4164 -1.8823
  354TIP3   OH222624   6.591   5.936   0.449  0.2426 -0.0854 -0.0235
  354TIP3    H122625   6.498   5.915   0.441  0.8277 -2.7835 -1.1969
  354TIP3    H222626   6.631   5.854   0.479  2.1333  1.3546  1.6907
  355TIP3   OH222627   1.835   2.733   1.638 -0.4244 -0.0896  0.3168
  355TIP3    H122628   1.902   2.802   1.648  1.0176 -1.6085  1.6903
  355TIP3    H222629   1.823   2.726   1.543  0.2030  1.3016  0.1007
  356TIP3   OH222630   6.431   0.223   0.307 -0.1785 -0.0579  0.3561
  356TIP3    H122631   6.519   0.213   0.271 -0.0087  1.4602  0.2886
  356TIP3    H222632   6.373   0.203   0.234  0.0483 -2.0438  0.6535
  357TIP3   OH222633   6.131   2.620   6.497 -0.1788  0.0927  0.4840
  357TIP3    H122634   6.227   2.621   6.496 -0.1871  0.4405 -0.6873
  357TIP3    H222635   6.107   2.676   6.571  0.5241 -1.6074  2.0814
  358TIP3   OH222636   6.838   3.957   7.173 -0.0007 -0.4691  0.5058
  358TIP3    H122637   6.849   3.991   7.261 -0.9296 -2.5475  1.4909
  358TIP3    H222638   6.875   3.869   7.176 -1.3939 -1.1506 -0.7542
  359TIP3   OH222639   0.505   5.202   6.935  0.1344 -0.5037  0.5439
  359TIP3    H122640   0.562   5.166   6.867 -0.8851  1.9697 -1.7938
  359TIP3    H222641   0.549   5.180   7.017  1.5375 -3.4481 -0.8562
  360TIP3   OH222642   0.118   2.409   1.785  0.1505 -0.1498  0.1027
  360TIP3    H122643   0.028   2.437   1.767 -0.2700 -0.1112  2.0890
  360TIP3    H222644   0.153   2.475   1.843  1.4320 -0.2574 -0.5242
  361TIP3   OH222645   3.041   5.027   1.038  0.3553 -0.0096  0.2022
  361TIP3    H122646   2.997   5.061   0.960  1.7897 -0.3810 -0.8118
  361TIP3    H222647   3.121   5.078   1.045  0.1313  0.1940  1.6105
  362TIP3   OH222648   3.805   5.469   8.091  0.0311  0.0956  0.2441
  362TIP3    H122649   3.837   5.559   8.087  0.9820 -0.2501 -0.2917
  362TIP3    H222650   3.753   5.458   8.012 -1.2655  0.5943  1.0115
  363TIP3   OH222651   3.839   6.247   6.579 -0.4122 -0.4682 -0.3612
  363TIP3    H122652   3.806   6.322   6.529 -1.4717 -0.0430  0.9066
  363TIP3    H222653   3.829   6.172   6.521 -0.1638  0.2312 -1.3274
  364TIP3   OH222654   4.456   6.698   1.493 -0.3579 -0.3230 -0.0069
  364TIP3    H122655   4.513   6.639   1.543 -0.4708  0.5003  1.1408
  364TIP3    H222656   4.514   6.737   1.428  0.0440 -0.6364  0.1537
  365TIP3   OH222657   1.135   0.217   7.556 -0.8855  0.0825 -0.5376
  365TIP3    H122658   1.191   0.294   7.560  1.4377 -1.2392 -3.2606
  365TIP3    H222659   1.195   0.143   7.569 -2.7800 -1.3527  0.6787
  366TIP3   OH222660   2.603   0.122   7.933  0.4291 -0.3265 -0.0521
  366TIP3    H122661   2.582   0.029   7.920 -1.2894 -0.1202  0.9981
  366TIP3    H222662   2.614   0.131   8.028 -3.8990  1.3064  0.5002
  367TIP3   OH222663   0.784   0.175   8.056  0.8321  0.2455  0.4125
  367TIP3    H122664   0.771   0.112   8.128  2.5955 -0.6313  0.0165
  367TIP3    H222665   0.724   0.145   7.988  1.2460 -0.7245  0.4430
  368TIP3   OH222666   1.019   3.685   7.072  0.1208  0.2759 -0.1223
  368TIP3    H122667   1.038   3.756   7.011  1.2853 -0.5632 -0.7820
  368TIP3    H222668   0.975   3.727   7.146  0.9707  1.6985 -0.4040
  369TIP3   OH222669   4.157   3.250   7.726 -0.3874  0.8588 -0.0076
  369TIP3    H122670   4.152   3.334   7.681 -1.5610  0.9285  0.2107
  369TIP3    H222671   4.071   3.210   7.712 -0.2765  0.2462  0.9317
  370TIP3   OH222672   4.779   2.598   6.583  0.4977 -0.1723  0.2015
  370TIP3    H122673   4.851   2.645   6.539 -0.5132  0.4316 -0.8660
  370TIP3    H222674   4.702   2.618   6.529  0.1880 -4.0035 -1.0288
  371TIP3   OH222675   4.386   5.457   2.190 -1.0298 -0.4543  0.3629
  371TIP3    H122676   4.433   5.523   2.139  1.4561 -2.8067 -0.7070
  371TIP3    H222677   4.421   5.465   2.278 -1.4555  0.2722  0.4662
  372TIP3   OH222678   4.215   0.102   7.199 -0.2630 -0.7817 -0.2294
  372TIP3    H122679   4.154   0.176   7.199 -1.6527 -1.8101  2.1730
  372TIP3    H222680   4.161   0.026   7.177  1.0770 -1.2331 -2.3122
  373TIP3   OH222681   5.561   2.577   6.967 -0.0965  0.2838 -0.1227
  373TIP3    H122682   5.488   2.624   7.005 -0.8257 -1.3120  0.5593
  373TIP3    H222683   5.637   2.634   6.980 -0.4499  0.1907  3.0725
  374TIP3   OH222684   5.239   6.608   0.214 -0.1179  0.1106 -0.0287
  374TIP3    H122685   5.297   6.576   0.283 -0.9901 -0.6988  0.3578
  374TIP3    H222686   5.161   6.552   0.221 -0.6992  0.7890 -0.9071
  375TIP3   OH222687   4.030   5.190   7.678  0.4608  0.0434 -0.6741
  375TIP3    H122688   4.043   5.158   7.767 -2.3662 -0.8218 -0.4472
  375TIP3    H222689   3.941   5.162   7.656  0.8884  0.6449 -3.6106
  376TIP3   OH222690   1.142   2.888   1.797  0.0103 -0.3109 -0.0016
  376TIP3    H122691   1.137   2.812   1.855 -1.7403  0.6380  1.1872
  376TIP3    H222692   1.060   2.935   1.812  0.9167  1.6748 -0.9038
  377TIP3   OH222693   0.162   0.978   1.247 -0.2891  0.0706  0.0581
  377TIP3    H122694   0.250   0.941   1.258 -0.2419 -0.2290 -1.1502
  377TIP3    H222695   0.177   1.064   1.209 -0.3605  1.8129  3.5936
  378TIP3   OH222696   1.766   1.877   7.454 -0.2784 -0.0685  0.0229
  378TIP3    H122697   1.672   1.862   7.449 -0.6128  1.5473  1.0708
  378TIP3    H222698   1.781   1.957   7.403  0.8559 -1.3455 -1.8042
  379TIP3   OH222699   5.819   6.324   8.323 -0.0802  0.3818  0.3467
  379TIP3    H122700   5.808   6.239   8.282  0.7498  0.5586 -0.2575
  379TIP3    H222701   5.730   6.359   8.331 -0.4037 -0.4554  0.4299
  380TIP3   OH222702   0.205   0.678   7.361  0.6396  0.4331 -0.2871
  380TIP3    H122703   0.242   0.755   7.405 -0.6306  1.4802 -0.9768
  380TIP3    H222704   0.200   0.612   7.430  1.5848  1.0069  0.3687
  381TIP3   OH222705   3.849   1.360   6.063  0.1465  0.1393 -0.3234
  381TIP3    H122706   3.872   1.268   6.050 -0.1720 -0.0518  0.4481
  381TIP3    H222707   3.754   1.362   6.056 -0.0986 -0.0409  2.2733
  382TIP3   OH222708   2.469   3.723   2.058 -0.1827 -0.4638  0.3438
  382TIP3    H122709   2.525   3.763   2.123  1.6156 -1.0410 -0.7763
  382TIP3    H222710   2.462   3.632   2.085 -1.5905 -0.1574  1.1099
  383TIP3   OH222711   2.055   0.522   0.422 -0.1048  0.1708  0.4568
  383TIP3    H122712   2.092   0.556   0.341 -1.6550 -1.3719 -0.9654
  383TIP3    H222713   2.063   0.595   0.484  4.2365  0.3265  0.0328
  384TIP3   OH222714   3.536   2.852   0.729 -0.2879  0.3923  0.3938
  384TIP3    H122715   3.531   2.948   0.724 -1.4788  0.2936 -0.5759
  384TIP3    H222716   3.622   2.831   0.691 -0.2961  1.0325  0.0063
  385TIP3   OH222717   0.310   4.286   6.783 -0.6289  0.2849 -0.1045
  385TIP3    H122718   0.343   4.315   6.868  0.9722  3.7911 -1.7117
  385TIP3    H222719   0.216   4.307   6.786 -0.5815  0.4294  0.7804
  386TIP3   OH222720   5.673   5.779   8.174  0.2696  0.4838 -0.4804
  386TIP3    H122721   5.642   5.689   8.177  0.5361  0.4125  0.3774
  386TIP3    H222722   5.742   5.779   8.107  0.9481 -0.1746  0.2035
  387TIP3   OH222723   5.249   4.456   7.539 -0.2394 -0.2609 -0.0329
  387TIP3    H122724   5.178   4.482   7.597 -1.9677 -2.5035 -1.0077
  387TIP3    H222725   5.321   4.433   7.598 -0.1819  2.1382  0.9605
  388TIP3   OH222726   4.243   3.395   8.018 -0.1252 -0.4741 -0.0831
  388TIP3    H122727   4.237   3.489   8.001 -0.8073 -0.2812  1.0729
  388TIP3    H222728   4.336   3.375   8.012  0.4425  0.8987  2.4858
  389TIP3   OH222729   6.062   5.207   6.227  0.0391 -0.5886 -0.7981
  389TIP3    H122730   6.139   5.230   6.175  1.0209 -1.7926  0.0461
  389TIP3    H222731   5.995   5.185   6.163  0.7614 -0.6311 -1.5531
  390TIP3   OH222732   0.835   1.179   6.641  0.0449 -0.0271 -0.0864
  390TIP3    H122733   0.770   1.191   6.572  0.5528  3.0899 -0.1796
  390TIP3    H222734   0.915   1.220   6.607  0.4292  1.2317  2.0922
  391TIP3   OH222735   1.409   3.540   6.983  0.2299 -0.1407  0.1574
  391TIP3    H122736   1.486   3.553   7.038 -0.3000 -2.8914  1.7521
  391TIP3    H222737   1.350   3.487   7.036 -1.8528  0.0055 -1.8309
  392TIP3   OH222738   6.883   1.860   6.528 -0.3623 -0.3689  0.2030
  392TIP3    H122739   6.935   1.916   6.469 -0.3392  0.0909  0.6494
  392TIP3    H222740   6.844   1.795   6.470 -0.5278  0.2141 -0.3581
  393TIP3   OH222741   0.451   2.996   1.508  0.1164  0.4811 -0.6475
  393TIP3    H122742   0.522   3.043   1.551  0.1660  0.0349 -0.2359
  393TIP3    H222743   0.419   2.934   1.574  1.7866 -1.9507 -1.9791
  394TIP3   OH222744   4.372   5.445   7.583  0.1911  0.3281  0.3003
  394TIP3    H122745   4.412   5.507   7.523 -2.5482  1.8775 -0.0599
  394TIP3    H222746   4.283   5.434   7.551 -0.3069 -1.5368  2.0959
  395TIP3   OH222747   5.303   5.937   1.136 -0.1399  0.0673 -0.1823
  395TIP3    H122748   5.225   5.959   1.085  1.3286  1.8744 -1.8232
  395TIP3    H222749   5.362   5.894   1.074  0.9938  0.6981  0.4127
  396TIP3   OH222750   0.359   6.417   7.407  0.0936  0.3283 -0.1257
  396TIP3    H122751   0.267   6.389   7.403  0.6916 -1.7805 -0.7321
  396TIP3    H222752   0.361   6.499   7.358 -1.4069  0.2095 -0.4506
  397TIP3   OH222753   5.316   0.736   0.143  0.1974 -0.4146  0.2329
  397TIP3    H122754   5.255   0.663   0.130 -1.3706  0.6860  1.0942
  397TIP3    H222755   5.396   0.695   0.177 -0.4594 -1.7713  0.2072
  398TIP3   OH222756   2.333   5.324   0.752  0.6678 -0.0385  0.6104
  398TIP3    H122757   2.351   5.280   0.669  3.9079 -0.8341  1.6294
  398TIP3    H222758   2.243   5.299   0.773  0.1034 -0.6130 -2.1289
  399TIP3   OH222759   5.460   3.444   7.095 -0.3221 -0.3415 -0.2835
  399TIP3    H122760   5.486   3.403   7.177 -1.2105 -2.5466 -1.0453
  399TIP3    H222761   5.503   3.392   7.026 -0.5908  0.6932 -1.2703
  400TIP3   OH222762   5.858   1.144   1.928  0.2745 -0.4216 -0.3880
  400TIP3    H122763   5.940   1.125   1.883  0.3115  0.4026 -0.6786
  400TIP3    H222764   5.880   1.139   2.021  0.1806 -2.1885 -0.4242
  401TIP3   OH222765   6.057   5.561   0.780 -0.6514 -0.2221  0.3785
  401TIP3    H122766   6.005   5.513   0.845 -0.1489 -1.7072 -0.2705
  401TIP3    H222767   6.137   5.586   0.827 -0.7769 -0.3097  0.6385
  402TIP3   OH222768   5.514   6.645   0.122  0.5454 -0.0891 -0.0233
  402TIP3    H122769   5.463   6.692   0.187  0.7024 -0.9487  0.7465
  402TIP3    H222770   5.604   6.647   0.156  0.3396 -2.1452  0.7963
  403TIP3   OH222771   0.334   4.881   7.447  0.3397 -0.2737  0.0775
  403TIP3    H122772   0.401   4.893   7.380  2.0093 -3.9785  0.7912
  403TIP3    H222773   0.380   4.897   7.529 -1.1131  2.0926  0.5001
  404TIP3   OH222774   4.990   5.306   7.548  0.3251  0.1648 -0.7943
  404TIP3    H122775   5.025   5.393   7.566  1.7368 -0.2576 -1.3819
  404TIP3    H222776   4.899   5.322   7.521 -0.3162  1.2053  1.7405
  405TIP3   OH222777   0.969   4.418   6.918 -0.0182  0.1046 -0.8519
  405TIP3    H122778   1.033   4.409   6.847  0.1438  0.9339 -0.8247
  405TIP3    H222779   0.983   4.507   6.951 -0.2096 -0.2203  0.1115
  406TIP3   OH222780   3.938   5.746   1.314  0.1287 -0.0455  0.6125
  406TIP3    H122781   3.930   5.745   1.409  0.1104  2.4932  0.6938
  406TIP3    H222782   4.032   5.748   1.298  0.1339  1.6755  0.6893
  407TIP3   OH222783   0.093   1.664   0.299 -0.4816  0.4029  0.1847
  407TIP3    H122784   0.019   1.613   0.267 -2.0613  2.7373 -0.0991
  407TIP3    H222785   0.094   1.649   0.394 -1.7468  0.8086  0.2830
  408TIP3   OH222786   0.035   6.262   6.974 -0.3093 -0.0319 -0.0674
  408TIP3    H122787   0.105   6.307   7.022  0.9079 -2.1897  0.3153
  408TIP3    H222788   0.081   6.208   6.910 -1.7994  0.6634 -1.8089
  409TIP3   OH222789   4.078   5.112   6.866 -0.1610 -0.3533  0.3865
  409TIP3    H122790   4.031   5.047   6.918 -1.3687  0.0684 -0.1623
  409TIP3    H222791   4.040   5.196   6.892 -0.2151 -0.0676 -0.5880
  410TIP3   OH222792   4.307   2.899   2.370 -0.5741 -0.0688 -0.1888
  410TIP3    H122793   4.321   2.807   2.350  1.6273 -0.3412  2.1211
  410TIP3    H222794   4.372   2.945   2.316 -1.1921  0.0957 -0.8084
  411TIP3   OH222795   0.514   2.275   1.248  0.0781  0.0313  0.2696
  411TIP3    H122796   0.522   2.188   1.285  2.2432  0.9653  2.2238
  411TIP3    H222797   0.448   2.318   1.303 -0.2973 -0.0501 -0.1055
  412TIP3   OH222798   4.574   2.057   7.265 -0.2018 -0.1119  0.0322
  412TIP3    H122799   4.613   2.085   7.182  0.8799 -1.0976  0.1819
  412TIP3    H222800   4.489   2.102   7.268  0.8318  2.0159 -0.3616
  413TIP3   OH222801   5.485   5.365   1.499  0.2819 -0.6059  0.3799
  413TIP3    H122802   5.441   5.318   1.429  0.3718  2.9081 -2.3285
  413TIP3    H222803   5.578   5.342   1.488  0.2118 -0.6139 -0.2567
  414TIP3   OH222804   3.915   4.636   7.304  0.5203 -0.0200  0.4578
  414TIP3    H122805   3.940   4.547   7.328 -0.8949 -0.9057 -1.1300
  414TIP3    H222806   3.822   4.641   7.325  0.8042  1.4845  1.5356
  415TIP3   OH222807   4.301   2.578   0.293 -0.1549  0.4366  0.1642
  415TIP3    H122808   4.217   2.534   0.308 -0.7062  1.8056  1.3154
  415TIP3    H222809   4.366   2.509   0.304 -0.9059  0.0753  3.1948
  416TIP3   OH222810   3.916   4.640   1.737 -1.0528 -0.0058 -0.1956
  416TIP3    H122811   3.825   4.670   1.739 -1.1146 -0.1376 -0.8680
  416TIP3    H222812   3.916   4.570   1.672 -0.2900  0.5790 -0.8233
  417TIP3   OH222813   5.157   1.423   6.890  0.4639  0.1613  0.4618
  417TIP3    H122814   5.142   1.391   6.801 -1.3232  1.5318  0.2206
  417TIP3    H222815   5.094   1.376   6.944 -0.0364  0.9853  0.6103
  418TIP3   OH222816   5.914   1.682   1.027  0.0198 -0.3235  0.0296
  418TIP3    H122817   5.997   1.701   1.071  0.3829 -1.0039 -0.3431
  418TIP3    H222818   5.939   1.637   0.947 -0.7547 -1.6320  0.4953
  419TIP3   OH222819   3.409   3.008   1.637 -0.2135  0.3237 -0.2008
  419TIP3    H122820   3.480   2.976   1.693  0.2999  0.8746 -0.5159
  419TIP3    H222821   3.454   3.059   1.569 -0.7771 -0.7233 -1.4013
  420TIP3   OH222822   0.030   0.800   0.188 -0.4560 -0.0921 -0.2485
  420TIP3    H122823   0.095   0.732   0.171  1.1334  1.6115 -1.3853
  420TIP3    H222824   0.076   0.865   0.241 -1.4217  0.8562 -0.5388
  421TIP3   OH222825   0.690   5.631   2.022  0.4087  0.7039 -0.0736
  421TIP3    H122826   0.784   5.648   2.015  0.8312 -0.6613  1.5598
  421TIP3    H222827   0.663   5.681   2.099  0.3593 -0.8693  0.9691
  422TIP3   OH222828   6.309   2.981   1.901  0.0589 -0.3505  0.2163
  422TIP3    H122829   6.399   3.009   1.885 -0.1515 -0.1062 -0.5620
  422TIP3    H222830   6.272   2.967   1.814 -0.2220 -1.8872  0.5417
  423TIP3   OH222831   0.050   0.550   8.260  0.2895  0.1276  0.1279
  423TIP3    H122832   0.114   0.498   8.210  0.4808  0.9987 -0.5717
  423TIP3    H222833   0.097   0.575   8.339  0.5088 -0.0042  0.0419
  424TIP3   OH222834   0.183   0.656   6.839  0.3953  0.0271 -0.2087
  424TIP3    H122835   0.255   0.594   6.856  0.0192 -0.2071  0.5820
  424TIP3    H222836   0.205   0.696   6.755  0.6131 -1.2425 -0.7867
  425TIP3   OH222837   5.133   3.353   1.918  0.6085  0.0252  0.2252
  425TIP3    H122838   5.133   3.414   1.992  0.1414  1.2049 -0.7107
  425TIP3    H222839   5.105   3.269   1.956  0.4322  0.5912  1.3921
  426TIP3   OH222840   4.964   3.378   8.051 -0.3686  0.3854 -1.0084
  426TIP3    H122841   5.052   3.416   8.056 -0.4255  0.3718  1.1213
  426TIP3    H222842   4.959   3.341   7.963  2.2548 -0.8192 -0.7537
  427TIP3   OH222843   6.654   5.747   7.616  0.5721  0.4765 -0.5392
  427TIP3    H122844   6.637   5.791   7.533  1.6768 -0.1024 -1.1040
  427TIP3    H222845   6.577   5.693   7.631  0.5401  0.2660 -1.4122
  428TIP3   OH222846   6.855   6.797   1.240  0.0892  0.3725  0.0570
  428TIP3    H122847   6.854   6.796   1.336 -0.7325  0.8738  0.0610
  428TIP3    H222848   6.896   6.880   1.218 -0.4771  0.6345 -0.0202
  429TIP3   OH222849   2.001   1.947   0.303 -0.2037  0.1546 -0.2906
  429TIP3    H122850   1.985   1.873   0.361  1.5883 -1.7153 -1.9899
  429TIP3    H222851   1.934   1.941   0.235 -1.7890  1.8492  1.0287
  430TIP3   OH222852   3.838   2.070   0.483 -0.1280 -0.3176 -0.0466
  430TIP3    H122853   3.806   2.000   0.540 -0.2938 -0.5605 -0.4365
  430TIP3    H222854   3.805   2.151   0.523 -1.6705 -0.5869 -0.7146
  431TIP3   OH222855   3.665   2.593   8.255  0.3789  0.1622 -0.2116
  431TIP3    H122856   3.635   2.529   8.319  0.3503  1.1493  0.7940
  431TIP3    H222857   3.759   2.578   8.248  0.4128  0.1710  0.2053
  432TIP3   OH222858   6.051   4.859   0.035 -0.0662 -0.1724 -0.1398
  432TIP3    H122859   6.133   4.813   0.019  0.2509  0.7664 -1.3592
  432TIP3    H222860   6.028   4.836   0.125  1.8504  0.0374  0.4534
  433TIP3   OH222861   5.982   0.913   0.772  0.0904  0.4278  0.9989
  433TIP3    H122862   5.906   0.932   0.828 -0.7089  0.9258 -0.2261
  433TIP3    H222863   5.992   0.818   0.777 -0.2914  0.4130  1.5777
  434TIP3   OH222864   5.881   4.316   6.321  0.4491  0.4063  0.0748
  434TIP3    H122865   5.851   4.335   6.232  0.2613  1.7895  0.4142
  434TIP3    H222866   5.801   4.316   6.374  0.6506  0.4893  0.3845
  435TIP3   OH222867   0.635   2.980   0.563 -0.1286  0.5529  0.1792
  435TIP3    H122868   0.629   2.935   0.479  0.0989  1.3832 -0.2949
  435TIP3    H222869   0.671   3.066   0.541 -0.0680  0.7755  1.1281
  436TIP3   OH222870   1.203   5.418   6.898 -0.1495 -0.4254  0.7187
  436TIP3    H122871   1.156   5.499   6.878  1.7841  0.6811  0.3605
  436TIP3    H222872   1.227   5.427   6.991  1.4514  0.2228  0.2803
  437TIP3   OH222873   4.050   2.498   1.595  0.4443 -0.2264  0.4481
  437TIP3    H122874   4.001   2.445   1.658  1.1249 -0.6766  0.6120
  437TIP3    H222875   4.141   2.467   1.603  1.0648  1.6551  1.2837
  438TIP3   OH222876   2.736   2.260   0.504 -0.4941 -0.4297 -0.3279
  438TIP3    H122877   2.806   2.243   0.568  2.9892  0.9488 -3.3833
  438TIP3    H222878   2.746   2.353   0.482 -1.1804 -0.9399 -3.1538
  439TIP3   OH222879   0.508   4.458   1.310 -0.2532 -0.0323  0.2935
  439TIP3    H122880   0.592   4.414   1.320  0.4850  0.3023 -3.2302
  439TIP3    H222881   0.454   4.398   1.259 -0.2858  1.7338 -1.9402
  440TIP3   OH222882   4.288   1.651   0.052 -0.0326 -0.0560 -0.0042
  440TIP3    H122883   4.269   1.690  -0.034 -0.1360 -0.6025 -0.2340
  440TIP3    H222884   4.381   1.667   0.065 -0.0115  0.0157 -0.2272
  441TIP3   OH222885   5.400   6.239   1.547  0.0474  0.2299 -0.3394
  441TIP3    H122886   5.349   6.293   1.487  1.1055  0.2951 -1.2016
  441TIP3    H222887   5.430   6.165   1.494  0.9340  0.2477  0.1075
  442TIP3   OH222888   5.848   3.532   0.771  0.6169 -0.1296  0.3401
  442TIP3    H122889   5.866   3.440   0.790  0.8596 -0.3481 -0.9016
  442TIP3    H222890   5.895   3.550   0.690 -2.7982 -0.1091 -1.8313
  443TIP3   OH222891   4.968   5.362   8.211  0.4032 -0.1857 -0.3850
  443TIP3    H122892   4.936   5.316   8.133  0.3904 -0.0053 -0.4869
  443TIP3    H222893   4.912   5.439   8.218  0.3358 -0.2575 -0.1337
  444TIP3   OH222894   5.207   0.338   7.267  0.1880  0.3764 -0.1416
  444TIP3    H122895   5.214   0.381   7.181 -0.3644  1.8791  0.5251
  444TIP3    H222896   5.137   0.386   7.311 -0.1204 -0.9370  0.8469
  445TIP3   OH222897   6.540   6.249   1.792 -0.5081 -0.1778  0.1568
  445TIP3    H122898   6.447   6.225   1.793 -0.6476  0.3582  0.8972
  445TIP3    H222899   6.586   6.166   1.805 -0.9630 -0.1609  2.0580
  446TIP3   OH222900   2.928   5.488   7.362 -0.2517  0.0554 -0.2077
  446TIP3    H122901   2.876   5.482   7.442 -1.6221 -2.2136 -1.1788
  446TIP3    H222902   3.005   5.434   7.379 -0.3069 -0.0375 -0.2537
  447TIP3   OH222903   5.091   2.190   6.820  0.0102  0.4522  0.4008
  447TIP3    H122904   5.139   2.267   6.850  0.9413  0.3934 -0.8818
  447TIP3    H222905   5.028   2.223   6.757  1.8517  0.0114 -1.8162
  448TIP3   OH222906   2.684   2.368   7.342 -0.0040  0.3065  0.0005
  448TIP3    H122907   2.707   2.432   7.275 -1.7365 -0.7760 -1.7405
  448TIP3    H222908   2.590   2.355   7.331 -0.3503  0.0572  2.6651
  449TIP3   OH222909   3.205   1.554   1.462 -0.0931  0.1004  0.4022
  449TIP3    H122910   3.144   1.596   1.523  0.7465  2.1590 -0.0791
  449TIP3    H222911   3.287   1.549   1.510  1.1284  3.5111 -0.9834
  450TIP3   OH222912   3.359   1.858   1.449 -0.2050  0.2645  0.1906
  450TIP3    H122913   3.273   1.899   1.453 -1.2188 -1.6387 -0.7554
  450TIP3    H222914   3.372   1.822   1.536 -2.0628 -2.5104 -0.5355
  451TIP3   OH222915   0.702   4.899   6.157  0.2114  0.8366 -0.3279
  451TIP3    H122916   0.637   4.857   6.100 -0.0842 -0.7448  1.0714
  451TIP3    H222917   0.783   4.896   6.107  0.2960 -1.8967 -0.1906
  452TIP3   OH222918   1.396   0.789   6.942 -0.3531  0.1778  0.2117
  452TIP3    H122919   1.368   0.855   7.005  1.0977 -0.4164  1.5470
  452TIP3    H222920   1.359   0.707   6.975  0.9304 -0.2357  0.6665
  453TIP3   OH222921   3.285   1.989   0.774  0.8084 -0.5101 -0.0475
  453TIP3    H122922   3.237   2.069   0.754  1.4758 -0.0820  0.0334
  453TIP3    H222923   3.248   1.959   0.858  1.6439  0.6021  0.7565
  454TIP3   OH222924   1.350   6.757   7.486  0.3121 -0.0251 -0.4179
  454TIP3    H122925   1.260   6.746   7.516  0.3794 -1.4016 -0.6988
  454TIP3    H222926   1.345   6.756   7.391  0.5746  0.3985 -0.4414
  455TIP3   OH222927   2.258   0.707   1.819 -0.1887 -0.9013 -0.4479
  455TIP3    H122928   2.319   0.633   1.817 -0.1802 -0.8733 -1.2097
  455TIP3    H222929   2.172   0.667   1.812 -0.4071 -1.0802  2.2289
  456TIP3   OH222930   4.045   0.642   7.582  0.1673  0.5596  0.5734
  456TIP3    H122931   4.047   0.714   7.645 -1.2281  2.0197 -0.9433
  456TIP3    H222932   3.985   0.673   7.513  0.0391 -1.8016 -0.4468
  457TIP3   OH222933   5.863   1.538   7.776 -0.1556  0.0990  0.3321
  457TIP3    H122934   5.779   1.567   7.812  1.6007  2.1497  3.2322
  457TIP3    H222935   5.904   1.490   7.848  0.8045 -1.8101 -1.3865
  458TIP3   OH222936   0.842   2.275   2.514 -0.0548 -0.1981  0.0416
  458TIP3    H122937   0.750   2.274   2.485 -0.2422  1.1505  0.5163
  458TIP3    H222938   0.852   2.360   2.556  1.7996  0.2943 -1.2706
  459TIP3   OH222939   3.129   1.876   7.467 -0.1127  0.1370  0.6284
  459TIP3    H122940   3.141   1.850   7.376  1.5572  0.4660  0.7170
  459TIP3    H222941   3.171   1.806   7.518  1.6790  1.3735  0.9780
  460TIP3   OH222942   5.824   1.822   8.005 -0.5097 -0.5881  0.0782
  460TIP3    H122943   5.826   1.872   8.087 -1.3302  0.4641 -0.5067
  460TIP3    H222944   5.731   1.812   7.985 -0.4123  1.8188 -2.2245
  461TIP3   OH222945   3.804   6.973   7.625  0.1131  0.0611 -0.0179
  461TIP3    H122946   3.741   6.901   7.628 -0.9026  0.8732 -1.0169
  461TIP3    H222947   3.774   7.034   7.692  0.7297 -0.2533  0.5450
  462TIP3   OH222948   2.077   6.406   7.472  0.1332  0.5718  0.0496
  462TIP3    H122949   2.134   6.358   7.531  0.0482 -0.5870 -0.7848
  462TIP3    H222950   2.103   6.378   7.384 -1.6421  0.0769 -0.3572
  463TIP3   OH222951   4.624   4.964   0.001  0.3982  0.2341 -0.4832
  463TIP3    H122952   4.702   4.908  -0.007  0.2337 -0.2686  1.0469
  463TIP3    H222953   4.551   4.902  -0.001  0.2463  0.1874  2.1878
  464TIP3   OH222954   3.127   1.111   0.385  0.3505 -0.0492  0.3967
  464TIP3    H122955   3.070   1.079   0.314 -2.0616  2.5108  1.0037
  464TIP3    H222956   3.175   1.184   0.346  0.2496  0.3112  0.9365
  465TIP3   OH222957   5.458   3.834   1.624 -0.1452  0.3800  0.0544
  465TIP3    H122958   5.539   3.841   1.573  0.9486 -2.7515  1.1031
  465TIP3    H222959   5.468   3.901   1.692  0.8862  1.0170 -0.6927
  466TIP3   OH222960   4.261   3.810   1.150 -0.7892 -0.2484 -0.5543
  466TIP3    H122961   4.232   3.893   1.111 -2.7750 -1.5213 -1.9521
  466TIP3    H222962   4.352   3.825   1.173 -0.1629  1.3591 -3.6014
  467TIP3   OH222963   0.246   6.691   8.132 -0.6054  0.0395  0.4035
  467TIP3    H122964   0.156   6.667   8.152 -0.8850  0.4362 -0.3411
  467TIP3    H222965   0.291   6.687   8.217 -1.1243 -0.9605  0.6546
  468TIP3   OH222966   5.859   5.131   7.396 -0.3036 -0.2942  0.0299
  468TIP3    H122967   5.870   5.042   7.363  0.5659 -0.4819  0.7872
  468TIP3    H222968   5.804   5.122   7.474  1.8954 -0.5443  1.6442
  469TIP3   OH222969   2.046   6.221   1.217 -0.0098  0.8141 -0.0818
  469TIP3    H122970   2.082   6.225   1.128  2.3089  2.3008  0.8167
  469TIP3    H222971   1.952   6.228   1.206  0.1579  0.1683 -2.4453
  470TIP3   OH222972   6.845   6.065   7.036 -0.6910 -0.1052 -0.0981
  470TIP3    H122973   6.891   6.137   6.994 -1.6825  1.6104  1.6045
  470TIP3    H222974   6.800   6.020   6.964  2.4966 -1.1455 -1.6531
  471TIP3   OH222975   2.126   0.855   8.187 -0.0602  0.2854  0.0112
  471TIP3    H122976   2.175   0.898   8.258  0.9437 -1.9242  0.7506
  471TIP3    H222977   2.047   0.822   8.229  0.1892 -0.3995 -0.0465
  472TIP3   OH222978   6.591   4.690   6.116  0.2541  0.1826 -0.5943
  472TIP3    H122979   6.546   4.646   6.044 -0.1303 -0.2884 -0.0761
  472TIP3    H222980   6.665   4.633   6.137  1.7683  1.4549 -2.1262
  473TIP3   OH222981   6.824   0.429   1.682 -0.1519 -0.1208 -0.4226
  473TIP3    H122982   6.822   0.423   1.586 -2.9585 -2.3125 -0.3613
  473TIP3    H222983   6.737   0.459   1.706  0.1835 -0.5588  1.4853
  474TIP3   OH222984   0.716   6.945   6.840  0.2158 -0.3647  0.2571
  474TIP3    H122985   0.660   6.878   6.800 -0.9523  1.4073 -1.2843
  474TIP3    H222986   0.752   6.993   6.766 -0.3746  1.7719  1.2612
  475TIP3   OH222987   3.910   5.079   6.183 -0.1833  0.2056  0.3606
  475TIP3    H122988   3.911   5.174   6.196  2.7342  0.4174 -0.6071
  475TIP3    H222989   3.962   5.045   6.256  1.7304 -0.2304 -1.1215
  476TIP3   OH222990   2.073   2.332   6.266 -0.3184 -0.2156  0.3907
  476TIP3    H122991   2.007   2.304   6.329  0.4480 -0.6550  1.0137
  476TIP3    H222992   2.055   2.281   6.187 -3.5070  2.8069 -1.0818
  477TIP3   OH222993   2.316   1.059   0.269 -0.1443  0.1006  0.1342
  477TIP3    H122994   2.392   1.082   0.323  0.3146 -0.6877 -0.1514
  477TIP3    H222995   2.277   0.983   0.313 -1.2231  0.9538  0.6917
  478TIP3   OH222996   6.563   0.013   1.682 -0.5221 -0.1492  0.2935
  478TIP3    H122997   6.600   0.100   1.691  0.1837 -0.3792 -0.3525
  478TIP3    H222998   6.522   0.013   1.596  1.4801 -1.1649 -0.7287
  479TIP3   OH222999   5.907   3.573   7.059  0.0936  0.1537 -0.1170
  479TIP3    H123000   5.919   3.625   7.139  0.8830 -2.4070  1.5622
  479TIP3    H223001   5.991   3.528   7.047 -0.6123 -0.9268 -1.3120
  480TIP3   OH223002   5.181   5.942   7.094 -0.6881 -0.1844  0.3073
  480TIP3    H123003   5.248   5.985   7.147 -1.6436  1.9819 -0.1373
  480TIP3    H223004   5.180   5.852   7.125  2.4647 -0.3399  0.2724
  481TIP3   OH223005   5.784   6.464   6.539 -0.1712  0.5813 -0.2939
  481TIP3    H123006   5.831   6.381   6.548 -3.0099 -1.0203  1.1549
  481TIP3    H223007   5.704   6.441   6.491 -1.4757  2.2479  0.9782
  482TIP3   OH223008   6.279   2.823   0.010 -0.4519 -0.7071  0.5008
  482TIP3    H123009   6.273   2.741   0.059  0.0018 -0.8240  0.3730
  482TIP3    H223010   6.274   2.795  -0.082  3.9995 -1.1754  0.1513
  483TIP3   OH223011   3.559   1.332   1.779  0.1283 -0.2115  0.1545
  483TIP3    H123012   3.596   1.264   1.724 -0.7461  1.0149 -2.0509
  483TIP3    H223013   3.635   1.378   1.814  0.7163 -0.3877 -0.8576
  484TIP3   OH223014   4.200   3.674   7.976  0.3564 -0.1811 -0.3820
  484TIP3    H123015   4.223   3.753   7.928 -0.6234 -1.7310 -3.7587
  484TIP3    H223016   4.125   3.699   8.031  1.4882  1.6760  0.3909
  485TIP3   OH223017   1.283   1.521   6.106  0.2517  0.1288 -0.4516
  485TIP3    H123018   1.303   1.594   6.164 -1.7936  0.2041  0.2551
  485TIP3    H223019   1.363   1.468   6.105  0.9076  1.0340  1.0759
  486TIP3   OH223020   5.114   4.925   0.278  0.4913  0.1753 -0.0163
  486TIP3    H123021   5.121   4.946   0.185 -1.8606  0.8825 -0.0918
  486TIP3    H223022   5.021   4.910   0.292  0.4428  2.4285  2.6947
  487TIP3   OH223023   2.458   3.923   8.300  0.0398  0.3533  0.0440
  487TIP3    H123024   2.388   3.955   8.244 -1.5992 -0.8114  1.3134
  487TIP3    H223025   2.434   3.953   8.388  2.0044  1.2820  0.3171
  488TIP3   OH223026   1.279   3.193   1.009  0.7891  0.3469  0.2154
  488TIP3    H123027   1.279   3.185   1.105 -1.5537 -1.1253  0.1610
  488TIP3    H223028   1.188   3.177   0.983  1.7283 -1.3731 -2.4146
  489TIP3   OH223029   0.718   5.906   6.909  0.4721 -0.4348  0.0379
  489TIP3    H123030   0.682   5.880   6.994  0.9862 -1.4174 -0.0258
  489TIP3    H223031   0.778   5.977   6.929  1.2574 -1.2456  0.6273
  490TIP3   OH223032   5.534   5.691   6.937  0.4369 -0.0280 -0.4671
  490TIP3    H123033   5.542   5.786   6.941 -0.8930  0.1156 -0.6754
  490TIP3    H223034   5.538   5.662   7.028 -0.3799  0.3619 -0.2975
  491TIP3   OH223035   6.766   5.186   8.199  0.4000  0.2190  0.0548
  491TIP3    H123036   6.817   5.190   8.118 -0.9875  0.7779 -0.8284
  491TIP3    H223037   6.772   5.274   8.235  0.0072  0.3067 -0.0906
  492TIP3   OH223038   3.961   1.787   1.158  0.5070  0.0228  0.6472
  492TIP3    H123039   3.931   1.840   1.232  0.7687  0.9323  0.1156
  492TIP3    H223040   3.932   1.698   1.179  0.4439  0.2934  1.7631
  493TIP3   OH223041   6.395   0.525   6.041  0.1038 -0.3002 -0.4065
  493TIP3    H123042   6.381   0.592   6.108 -1.4569  1.1762 -2.1111
  493TIP3    H223043   6.317   0.470   6.046  0.2235 -0.4967 -0.6616
  494TIP3   OH223044   5.022   3.541   1.433  0.4425 -0.4060  0.1133
  494TIP3    H123045   5.027   3.554   1.528  0.5709 -2.5508  0.4414
  494TIP3    H223046   4.953   3.476   1.421  1.4193 -1.2598 -1.1403
  495TIP3   OH223047   2.043   3.174   6.657  0.0582  0.2156  0.1587
  495TIP3    H123048   2.116   3.154   6.716  0.3108 -1.3465 -0.6448
  495TIP3    H223049   2.079   3.237   6.595  0.4804  0.0943  0.2765
  496TIP3   OH223050   6.062   4.509   7.466 -0.2421 -0.0872 -0.0163
  496TIP3    H123051   6.074   4.450   7.540 -0.7896  2.2693  2.0884
  496TIP3    H223052   5.971   4.539   7.474  0.1149  1.3003 -0.7844
  497TIP3   OH223053   6.833   6.238   0.779 -0.1784  0.3346 -0.0499
  497TIP3    H123054   6.784   6.158   0.793  1.7852 -0.7349  1.2872
  497TIP3    H223055   6.882   6.222   0.698 -1.1992  0.9752 -0.8112
  498TIP3   OH223056   3.952   2.670   8.380 -0.2311  0.2111 -0.4551
  498TIP3    H123057   3.961   2.589   8.330  1.1568 -0.3015  0.5309
  498TIP3    H223058   4.040   2.685   8.416 -0.8788  1.2275  0.7763
  499TIP3   OH223059   6.605   2.060   8.204 -0.2832  0.0614 -0.7278
  499TIP3    H123060   6.695   2.082   8.180 -0.0383 -1.9471 -1.8515
  499TIP3    H223061   6.553   2.083   8.127 -0.8939  1.8604  0.1643
  500TIP3   OH223062   5.683   1.531   6.962 -0.1043 -0.0463 -0.2895
  500TIP3    H123063   5.587   1.526   6.955 -0.0879  0.6283 -1.2322
  500TIP3    H223064   5.709   1.588   6.890  0.9424  0.4508  0.4563
  501TIP3   OH223065   5.493   5.267   6.068  0.1755  0.2757 -0.2704
  501TIP3    H123066   5.418   5.276   6.010 -0.2284  1.4957  0.4021
  501TIP3    H223067   5.470   5.319   6.145  1.0761 -0.5694  0.5984
  502TIP3   OH223068   6.147   0.358   7.670 -0.4991  0.2632 -0.4661
  502TIP3    H123069   6.062   0.316   7.662 -0.2144 -1.0360  2.2932
  502TIP3    H223070   6.185   0.353   7.582 -3.0900  0.6580 -1.7077
  503TIP3   OH223071   3.659   0.138   0.770  0.0355  0.3738 -0.4885
  503TIP3    H123072   3.599   0.101   0.705 -0.9830 -0.4267  0.8487
  503TIP3    H223073   3.671   0.229   0.743  0.0098 -0.0629 -2.0488
  504TIP3   OH223074   4.628   5.526   1.697 -0.3658  0.1891 -0.2997
  504TIP3    H123075   4.690   5.560   1.762  0.2146  0.6044 -1.0476
  504TIP3    H223076   4.645   5.432   1.693 -1.1630 -0.0250  0.9283
  505TIP3   OH223077   5.827   0.700   1.074 -0.1788 -1.0243  0.5353
  505TIP3    H123078   5.869   0.619   1.104 -1.0381 -2.7243 -2.4987
  505TIP3    H223079   5.878   0.727   0.997 -1.5067 -0.1856 -0.0824
  506TIP3   OH223080   5.941   4.184   7.088 -0.4415  0.0246 -0.0524
  506TIP3    H123081   5.958   4.159   7.179  0.3596  0.9125  0.0607
  506TIP3    H223082   5.879   4.257   7.095  1.4177  1.6894 -0.0469
  507TIP3   OH223083   5.899   6.760   0.002  0.2430 -0.0381 -0.1779
  507TIP3    H123084   5.841   6.830  -0.029 -1.1510 -1.0510  0.0865
  507TIP3    H223085   5.950   6.801   0.072 -0.0639  0.8975 -0.4838
  508TIP3   OH223086   5.174   6.370   7.181 -0.3165  0.0108 -0.2190
  508TIP3    H123087   5.107   6.303   7.185 -1.5345  1.0118 -2.1559
  508TIP3    H223088   5.247   6.329   7.136 -1.0201 -0.0804 -1.3132
  509TIP3   OH223089   5.596   6.728   7.417 -0.0190 -0.8919 -0.2197
  509TIP3    H123090   5.690   6.734   7.435 -0.3545  0.1231  1.5075
  509TIP3    H223091   5.570   6.819   7.400 -1.2596 -0.4870  3.0443
  510TIP3   OH223092   4.518   1.636   7.533  0.6947  0.3352 -0.5672
  510TIP3    H123093   4.579   1.575   7.492  1.5809  0.8611 -0.0673
  510TIP3    H223094   4.508   1.604   7.622  0.3372  0.3246 -0.6099
  511TIP3   OH223095   6.893   6.927   7.372  0.1344  0.2528  0.7023
  511TIP3    H123096   6.896   6.868   7.447 -1.8011  0.6894  1.1728
  511TIP3    H223097   6.981   6.965   7.368  0.9374 -1.4438  1.3521
  512TIP3   OH223098   1.361   4.962   0.896  0.4470 -0.4588 -0.4900
  512TIP3    H123099   1.275   4.975   0.936  1.0695  0.7824  0.5118
  512TIP3    H223100   1.392   4.879   0.933  0.5143  0.0899  0.7594
  513TIP3   OH223101   1.229   3.876   0.204  0.1907  0.6717 -0.1920
  513TIP3    H123102   1.246   3.957   0.253  1.1266  0.4426 -0.1060
  513TIP3    H223103   1.314   3.853   0.166  0.0361 -0.4703  0.0991
  514TIP3   OH223104   0.944   0.522   0.454  0.0340  0.1410 -0.2949
  514TIP3    H123105   0.919   0.431   0.438  0.9247  0.0601 -1.4640
  514TIP3    H223106   0.995   0.520   0.534  0.0717 -0.4031 -0.3328
  515TIP3   OH223107   0.141   0.311   8.391  0.1276 -0.7566 -0.8133
  515TIP3    H123108   0.160   0.305   8.297 -2.1563 -0.3764 -1.3440
  515TIP3    H223109   0.115   0.223   8.416 -1.0999 -0.4538 -0.9883
  516TIP3   OH223110   6.705   6.051   8.083 -0.3401  0.3760 -0.1402
  516TIP3    H123111   6.756   6.047   8.165 -0.3058 -0.0028 -0.1786
  516TIP3    H223112   6.648   5.974   8.087  1.1196 -0.8452 -1.4326
  517TIP3   OH223113   2.516   3.287   7.940 -0.1891  0.6749  0.0364
  517TIP3    H123114   2.598   3.283   7.890 -0.1564 -0.8440  0.1747
  517TIP3    H223115   2.448   3.299   7.874  0.1106  1.9251 -0.0808
  518TIP3   OH223116   5.935   1.049   0.415  0.6884 -0.0070  0.2059
  518TIP3    H123117   5.855   1.002   0.393 -0.3747  1.3960  0.9361
  518TIP3    H223118   5.977   0.995   0.482 -1.1582  0.6434  1.9744
  519TIP3   OH223119   4.285   5.354   2.557  0.1394  0.0726 -0.4695
  519TIP3    H123120   4.333   5.280   2.521 -0.4549 -1.4843  1.7584
  519TIP3    H223121   4.193   5.338   2.532  0.1513  0.7216 -0.9791
  520TIP3   OH223122   0.609   1.288   1.046 -0.0931  0.2061 -0.0330
  520TIP3    H123123   0.523   1.330   1.043 -0.9731 -1.4723  0.0814
  520TIP3    H223124   0.663   1.347   1.099 -0.6662  2.1055 -1.4753
  521TIP3   OH223125   4.762   4.013   7.111 -0.3652  0.3916  0.2371
  521TIP3    H123126   4.818   4.070   7.059  0.1567  0.1970  0.5736
  521TIP3    H223127   4.753   3.934   7.058 -0.2676  0.4017  0.2040
  522TIP3   OH223128   5.869   0.780   7.566  0.6049 -0.3721 -0.8165
  522TIP3    H123129   5.958   0.795   7.532  1.3685 -0.1543  1.1514
  522TIP3    H223130   5.853   0.856   7.622 -0.1666 -1.2251  0.1397
  523TIP3   OH223131   6.745   1.862   1.921 -0.1613 -0.6292 -0.1301
  523TIP3    H123132   6.837   1.845   1.900 -0.9614 -1.5675 -3.4468
  523TIP3    H223133   6.713   1.780   1.959 -0.4233 -1.6386 -2.3693
  524TIP3   OH223134   3.765   0.073   1.652  0.8542 -0.8928 -0.5652
  524TIP3    H123135   3.842   0.069   1.709  1.1136 -2.1321 -0.9612
  524TIP3    H223136   3.695   0.033   1.703  0.9337 -1.4387 -0.8789
  525TIP3   OH223137   4.089   3.392   1.148 -0.0678  0.5111 -0.1603
  525TIP3    H123138   4.007   3.355   1.116 -1.6300  2.5495  1.2195
  525TIP3    H223139   4.116   3.453   1.080  0.1928  0.0291 -0.4974
  526TIP3   OH223140   3.365   0.832   1.405 -0.3452  0.5208 -0.0359
  526TIP3    H123141   3.364   0.895   1.476  0.5276  1.5805 -0.9231
  526TIP3    H223142   3.322   0.876   1.332 -1.1849 -0.5274 -0.1967
  527TIP3   OH223143   1.456   1.056   1.095 -0.0294 -0.4640 -0.0996
  527TIP3    H123144   1.412   1.123   1.147 -0.9690 -0.1812 -1.2159
  527TIP3    H223145   1.540   1.043   1.139  0.0090  1.1550  0.3698
  528TIP3   OH223146   1.860   5.392   6.002  0.2985 -0.2757 -0.1613
  528TIP3    H123147   1.953   5.401   5.980  0.9058 -0.7423  1.9941
  528TIP3    H223148   1.818   5.466   5.957  1.3310 -1.2104 -2.8743
  529TIP3   OH223149   6.252   6.405   8.220  0.4775 -0.9439  0.1559
  529TIP3    H123150   6.208   6.358   8.291 -0.4754 -0.6736 -0.2331
  529TIP3    H223151   6.185   6.465   8.186  1.3724 -0.0002  0.0102
  530TIP3   OH223152   1.252   3.578   7.429 -0.5121 -0.0701  0.3690
  530TIP3    H123153   1.347   3.568   7.443 -0.6847 -1.3711  0.7716
  530TIP3    H223154   1.244   3.654   7.373  0.6774  1.1588  1.7717
  531TIP3   OH223155   3.698   1.831   8.384  0.1050 -0.1329 -0.2497
  531TIP3    H123156   3.659   1.907   8.340  0.2998 -0.4417 -0.9738
  531TIP3    H223157   3.710   1.767   8.314  0.2865 -0.6946  0.2909
  532TIP3   OH223158   6.004   6.287   6.795  0.1791  0.1706  0.3890
  532TIP3    H123159   6.036   6.222   6.732 -2.3095 -0.5767 -0.2289
  532TIP3    H223160   5.909   6.273   6.797 -0.5811  4.1543 -0.2056
  533TIP3   OH223161   4.075   2.691   7.994 -0.6060 -0.0972 -0.7838
  533TIP3    H123162   4.130   2.768   8.003 -1.4528  0.3999  0.2623
  533TIP3    H223163   4.124   2.621   8.038 -0.0883 -0.0524 -1.2700
  534TIP3   OH223164   4.071   5.673   0.144 -0.6915 -0.4484  0.5770
  534TIP3    H123165   4.060   5.666   0.050 -1.1356  2.6388  0.2774
  534TIP3    H223166   3.999   5.730   0.172  2.5709  3.6108  1.7318
  535TIP3   OH223167   3.202   3.990   7.202  0.0522  0.7414  0.4006
  535TIP3    H123168   3.206   4.080   7.234 -0.6791  0.8128  0.3048
  535TIP3    H223169   3.288   3.953   7.224  0.3613  1.4622  0.4239
  536TIP3   OH223170   6.008   4.485   6.953 -0.2271 -0.2988  0.2199
  536TIP3    H123171   5.941   4.489   7.021 -0.2558 -1.0688  0.2472
  536TIP3    H223172   6.076   4.428   6.989 -0.1505 -0.5525 -0.3127
  537TIP3   OH223173   3.868   3.610   1.872 -0.9049  0.3426  0.0685
  537TIP3    H123174   3.802   3.599   1.804 -0.2929  0.3138 -0.5419
  537TIP3    H223175   3.889   3.703   1.871  2.0100 -0.1511 -2.6764
  538TIP3   OH223176   4.202   0.787   8.077  0.6246 -0.3018  0.0520
  538TIP3    H123177   4.172   0.816   8.164  0.4281  0.5388 -0.2838
  538TIP3    H223178   4.234   0.867   8.035  1.4900 -0.8419 -0.3524
  539TIP3   OH223179   3.541   1.234   6.258  0.5390 -0.5817 -0.4702
  539TIP3    H123180   3.571   1.194   6.176  1.6689 -0.9584  0.0923
  539TIP3    H223181   3.622   1.252   6.306 -0.0636  0.4260  0.1992
  540TIP3   OH223182   3.035   3.038   1.268  0.6320 -0.1531 -0.0943
  540TIP3    H123183   3.060   2.978   1.338  1.1675 -0.1128 -0.2485
  540TIP3    H223184   2.939   3.034   1.266  0.4338  1.5960  2.2023
  541TIP3   OH223185   2.572   5.523   1.506  0.4759  0.2628 -0.3543
  541TIP3    H123186   2.639   5.511   1.439  0.6190  0.9304 -0.3375
  541TIP3    H223187   2.495   5.553   1.458  0.8307  1.5840 -0.1431
  542TIP3   OH223188   5.727   2.110   0.110 -0.1296  0.6702 -0.3356
  542TIP3    H123189   5.729   2.103   0.015  1.9520  0.7523 -0.3454
  542TIP3    H223190   5.788   2.181   0.130  0.1009  0.1000  1.0970
  543TIP3   OH223191   1.956   5.990   1.872 -0.2925 -0.0596 -0.0283
  543TIP3    H123192   2.036   6.003   1.923  0.9943 -0.8116 -1.7474
  543TIP3    H223193   1.940   5.895   1.876 -0.8864  0.0332 -0.0485
  544TIP3   OH223194   2.446   2.246   7.482  0.2602  0.4297  0.1849
  544TIP3    H123195   2.529   2.234   7.529  1.6155  0.8876 -1.9500
  544TIP3    H223196   2.411   2.158   7.472  0.6070  0.1987  0.8994
  545TIP3   OH223197   5.545   4.745   1.863  0.1961 -0.0414  0.5135
  545TIP3    H123198   5.605   4.719   1.933  0.7432 -0.1917 -0.0007
  545TIP3    H223199   5.461   4.758   1.907  0.2874 -1.1087  1.0466
  546TIP3   OH223200   3.266   0.901   0.464 -0.1155 -0.2982 -0.5019
  546TIP3    H123201   3.173   0.876   0.468 -0.0938 -0.5011 -1.1272
  546TIP3    H223202   3.265   0.990   0.430  0.0189 -1.5045 -4.1724
  547TIP3   OH223203   2.052   2.020   1.295 -0.4137  0.1730 -0.3530
  547TIP3    H123204   2.141   1.988   1.311 -0.0847  1.4796  0.5542
  547TIP3    H223205   2.000   1.985   1.367 -0.0016  1.7936  0.7849
  548TIP3   OH223206   2.268   6.326   0.213 -0.1737 -0.1131 -0.3562
  548TIP3    H123207   2.284   6.383   0.288 -0.1163  0.0319 -0.4783
  548TIP3    H223208   2.302   6.374   0.138 -2.5273  0.9247 -0.8654
  549TIP3   OH223209   2.460   4.200   1.036 -0.0157  0.2692 -0.1503
  549TIP3    H123210   2.469   4.175   1.128  0.0535 -0.6567 -0.3979
  549TIP3    H223211   2.399   4.273   1.037  1.7586  1.8206  0.8627
  550TIP3   OH223212   3.424   0.075   7.787 -0.2459  0.3540 -0.0505
  550TIP3    H123213   3.446  -0.008   7.746 -0.0266  0.7326 -0.6991
  550TIP3    H223214   3.383   0.126   7.718 -0.6421  0.6847  0.4205
  551TIP3   OH223215   3.013   2.825   0.814 -0.4974  0.1940  0.1164
  551TIP3    H123216   2.991   2.821   0.721  1.8475 -0.8928 -0.4526
  551TIP3    H223217   2.945   2.773   0.857 -2.9741  2.5620 -0.6018
  552TIP3   OH223218   0.260   3.508   0.084  0.7642  0.5965  0.0349
  552TIP3    H123219   0.184   3.566   0.085  0.6342  0.4522  1.7794
  552TIP3    H223220   0.320   3.547   0.148  1.0691 -0.6681  0.5481
  553TIP3   OH223221   0.258   4.132   8.159  0.6174  0.1914 -0.1380
  553TIP3    H123222   0.260   4.143   8.064  0.3804 -0.6503 -0.2445
  553TIP3    H223223   0.317   4.200   8.192  0.1382  0.9697 -0.8379
  554TIP3   OH223224   5.225   4.579   7.116 -0.5037  0.0087  0.0472
  554TIP3    H123225   5.146   4.576   7.062  0.3043 -3.2125 -1.2205
  554TIP3    H223226   5.222   4.498   7.167  3.0616 -1.6637 -1.9659
  555TIP3   OH223227   3.222   6.823   7.195  0.0655  0.6539  0.0090
  555TIP3    H123228   3.192   6.753   7.252  2.3978 -0.7490 -0.3663
  555TIP3    H223229   3.146   6.881   7.187 -1.1799 -0.4960  2.3172
  556TIP3   OH223230   1.773   6.278   2.358 -0.0688  0.0893  0.1357
  556TIP3    H123231   1.762   6.193   2.315  1.5248 -1.2677  2.1954
  556TIP3    H223232   1.685   6.301   2.388 -0.7535 -0.1524 -1.5887
  557TIP3   OH223233   0.206   0.117   6.228  0.1683  0.4634 -0.0455
  557TIP3    H123234   0.232   0.194   6.177 -0.5900  0.4477 -0.4606
  557TIP3    H223235   0.286   0.066   6.237  0.0305 -0.2613 -2.4517
  558TIP3   OH223236   0.102   4.629   7.091  0.4331  0.0893  0.6973
  558TIP3    H123237   0.043   4.621   7.165  0.8461 -0.2962  0.9886
  558TIP3    H223238   0.054   4.682   7.027  0.3604  1.0446  1.5261
  559TIP3   OH223239   0.050   6.668   0.340  0.7024 -0.3665 -0.9624
  559TIP3    H123240  -0.011   6.734   0.370  0.2055 -1.9643  1.9257
  559TIP3    H223241   0.006   6.626   0.265 -0.1078  0.8203 -1.1703
  560TIP3   OH223242   0.969   3.539   2.267 -0.0150  0.0472  0.2659
  560TIP3    H123243   1.042   3.500   2.218  0.0105  0.0566  0.2958
  560TIP3    H223244   0.895   3.481   2.250  0.5789 -1.3681  2.1596
  561TIP3   OH223245   1.996   6.968   8.217  0.3300 -1.2782  0.4543
  561TIP3    H123246   1.928   7.031   8.195  2.8621  0.9102 -1.8146
  561TIP3    H223247   1.964   6.885   8.181 -2.0000 -0.8283  1.3332
  562TIP3   OH223248   3.579   5.445   0.313 -0.3189  0.6656  0.1919
  562TIP3    H123249   3.526   5.424   0.237 -0.8596  1.9632  0.1878
  562TIP3    H223250   3.639   5.371   0.322 -0.5990  0.2544 -1.1685
  563TIP3   OH223251   4.915   2.069   0.641 -0.4775  0.2806 -0.3937
  563TIP3    H123252   4.862   2.010   0.696 -0.2374 -0.1288 -0.5958
  563TIP3    H223253   4.895   2.156   0.674 -1.4398  0.1507 -0.5996
  564TIP3   OH223254   4.304   1.131   0.390  0.0933 -0.0000 -0.4189
  564TIP3    H123255   4.301   1.035   0.387  2.5747 -0.2262  1.4507
  564TIP3    H223256   4.300   1.152   0.483 -2.9066  1.9519 -0.8433
  565TIP3   OH223257   6.132   2.783   6.727 -0.0304 -0.0947  0.2557
  565TIP3    H123258   6.198   2.739   6.781  1.6342  0.5924 -1.1021
  565TIP3    H223259   6.113   2.865   6.773 -0.2537 -0.4862  0.8652
  566TIP3   OH223260   4.581   3.341   1.188  0.5718 -0.3994  0.5293
  566TIP3    H123261   4.501   3.357   1.238  0.3799 -0.0377  0.1061
  566TIP3    H223262   4.629   3.276   1.240  1.3063  1.3976  2.1816
  567TIP3   OH223263   0.403   3.303   8.310  0.2364  0.5593  0.2002
  567TIP3    H123264   0.321   3.294   8.359 -0.9610 -0.2249 -1.8281
  567TIP3    H223265   0.453   3.224   8.331 -1.1080 -0.7400 -1.2648
  568TIP3   OH223266   0.770   5.368   7.360  0.4800 -0.1592 -0.1648
  568TIP3    H123267   0.840   5.351   7.298 -0.3944 -0.4920 -1.0723
  568TIP3    H223268   0.816   5.386   7.443  1.6482  0.2065 -0.8630
  569TIP3   OH223269   1.264   0.433   7.623 -0.1056 -0.0325 -0.2911
  569TIP3    H123270   1.254   0.429   7.718  3.3966 -0.0527  0.2304
  569TIP3    H223271   1.291   0.523   7.605 -0.8375  0.0022 -1.3272
  570TIP3   OH223272   2.583   5.343   1.214 -0.0686  0.0039 -0.4220
  570TIP3    H123273   2.666   5.383   1.239  0.2207 -0.4256 -0.6861
  570TIP3    H223274   2.534   5.414   1.172 -0.1441  0.4554  0.4182
  571TIP3   OH223275   2.806   6.589   1.570 -0.0203 -0.0178  0.6613
  571TIP3    H123276   2.837   6.521   1.630  0.5990 -0.1657  0.1942
  571TIP3    H223277   2.746   6.642   1.622  1.6262  0.7559  1.8729
  572TIP3   OH223278   2.762   0.043   1.562  0.2660  0.3898  0.4199
  572TIP3    H123279   2.851   0.024   1.592  0.5568 -0.4466 -0.8897
  572TIP3    H223280   2.753  -0.006   1.480 -1.1411  1.0688  0.1326
  573TIP3   OH223281   4.443   4.884   1.260  0.5385  0.1316 -0.2751
  573TIP3    H123282   4.384   4.935   1.316  0.6870 -0.4391  0.4216
  573TIP3    H223283   4.476   4.815   1.318  1.0342 -0.2110 -0.9598
  574TIP3   OH223284   0.413   0.854   1.275  0.5347 -0.0769  0.1501
  574TIP3    H123285   0.449   0.827   1.359 -0.4257  1.7002  1.1863
  574TIP3    H223286   0.487   0.850   1.214  1.4823 -0.4288  1.2964
  575TIP3   OH223287   2.718   0.861   0.143  0.4139  0.3127  0.2370
  575TIP3    H123288   2.788   0.897   0.089 -0.5814 -2.8600 -3.6836
  575TIP3    H223289   2.762   0.798   0.200  1.2026  1.9773  1.5625
  576TIP3   OH223290   2.149   5.620   0.798 -0.2803  0.2191  0.3590
  576TIP3    H123291   2.061   5.626   0.834 -0.5697  1.7996 -0.5279
  576TIP3    H223292   2.171   5.527   0.804 -2.7623 -0.5509 -1.1757
  577TIP3   OH223293   6.175   0.607   7.209  0.2805 -0.3372 -0.2599
  577TIP3    H123294   6.141   0.546   7.144  0.6996  0.8478 -1.6683
  577TIP3    H223295   6.173   0.559   7.291 -1.1065 -1.6013 -0.9803
  578TIP3   OH223296   5.996   3.444   1.813  0.1546 -0.0699  0.1936
  578TIP3    H123297   6.065   3.441   1.879 -0.8169 -2.0115  1.2366
  578TIP3    H223298   6.029   3.390   1.741  0.3963  0.4016 -0.0544
  579TIP3   OH223299   3.214   5.326   0.801  0.1349 -0.3303  0.7560
  579TIP3    H123300   3.216   5.366   0.715  3.1836  0.8602  1.2332
  579TIP3    H223301   3.137   5.270   0.801  0.2810 -0.7155 -2.8859
  580TIP3   OH223302   0.700   1.624   7.266 -0.3142 -0.4083 -0.0876
  580TIP3    H123303   0.733   1.615   7.177  0.8534 -2.2836  0.4658
  580TIP3    H223304   0.775   1.654   7.317 -0.1371 -2.1261  0.7322
  581TIP3   OH223305   4.492   0.140   0.442 -0.1185  0.1155  0.1873
  581TIP3    H123306   4.500   0.235   0.438 -0.7233  0.1220 -1.7231
  581TIP3    H223307   4.582   0.110   0.457  0.3252  0.9548 -0.6461
  582TIP3   OH223308   6.475   5.093   8.180  0.1596 -0.0655 -0.0027
  582TIP3    H123309   6.560   5.137   8.181 -0.0683  0.3747  0.8978
  582TIP3    H223310   6.471   5.051   8.094  0.8633  0.7403 -0.4476
  583TIP3   OH223311   6.733   2.746   1.646  0.5212  0.2858 -0.4609
  583TIP3    H123312   6.721   2.807   1.719 -2.2540  0.2445 -0.8000
  583TIP3    H223313   6.751   2.802   1.571 -0.9707  0.6541 -0.5653
  584TIP3   OH223314   6.607   3.310   0.921  0.6413 -0.1107 -0.7919
  584TIP3    H123315   6.576   3.305   1.011 -2.4493  0.6193 -1.7019
  584TIP3    H223316   6.631   3.402   0.910 -1.4044  0.4082 -1.3460
  585TIP3   OH223317   1.502   5.332   7.193 -0.2777 -0.5210 -0.3047
  585TIP3    H123318   1.529   5.348   7.103 -1.5185 -0.2873 -0.6474
  585TIP3    H223319   1.575   5.365   7.246  0.0730  0.1640 -1.1944
  586TIP3   OH223320   2.591   6.887   6.649 -0.0178  0.2651  0.1840
  586TIP3    H123321   2.519   6.830   6.624  0.1302 -0.0600  0.4952
  586TIP3    H223322   2.549   6.961   6.693 -0.2156  0.4391 -0.2852
  587TIP3   OH223323   1.896   4.030   7.952  0.2250 -0.1885  0.5096
  587TIP3    H123324   1.906   4.068   7.864  1.6674  0.3989  0.8946
  587TIP3    H223325   1.949   3.950   7.949  0.0158 -0.3373  0.7547
  588TIP3   OH223326   0.850   3.221   6.622  0.1163  0.3074  0.3119
  588TIP3    H123327   0.900   3.290   6.578 -0.5393 -0.0594 -1.0690
  588TIP3    H223328   0.841   3.152   6.556 -2.0486  0.2777  0.5529
  589TIP3   OH223329   1.808   1.985   6.064  0.2079 -0.2098  0.1778
  589TIP3    H123330   1.883   1.931   6.038  0.4588 -0.5510  1.5151
  589TIP3    H223331   1.798   2.048   5.993  0.4402 -1.4695 -1.0193
  590TIP3   OH223332   5.206   3.453   7.974 -0.1490  0.2546 -0.4861
  590TIP3    H123333   5.226   3.481   7.885 -0.1987 -0.7563 -0.8271
  590TIP3    H223334   5.289   3.419   8.008  0.0391  1.2722  0.1084
  591TIP3   OH223335   3.007   1.370   8.005 -0.2490 -0.0018  0.0749
  591TIP3    H123336   3.097   1.381   7.973 -0.2668  0.0769  0.0531
  591TIP3    H223337   2.981   1.457   8.034  0.3983 -0.3875  1.9494
  592TIP3   OH223338   6.604   3.711   6.788  0.1885 -0.0856 -0.1304
  592TIP3    H123339   6.655   3.690   6.710 -2.5613  0.9971 -2.3953
  592TIP3    H223340   6.609   3.807   6.795  1.2166 -0.2264  1.7057
  593TIP3   OH223341   4.526   5.979   1.491  0.6037 -0.4044 -0.0140
  593TIP3    H123342   4.466   5.904   1.488 -0.5744  0.4044  1.7935
  593TIP3    H223343   4.556   5.982   1.582  0.4502  1.4417  0.0065
  594TIP3   OH223344   1.505   6.449   7.135 -0.4294 -0.0166 -0.1037
  594TIP3    H123345   1.581   6.419   7.185 -1.9969 -1.5054  1.5235
  594TIP3    H223346   1.482   6.532   7.174 -0.0284  0.1415 -0.1948
  595TIP3   OH223347   6.289   0.619   8.095  0.0262 -0.0131 -0.5339
  595TIP3    H123348   6.281   0.582   8.008  0.4086  0.6354 -0.8539
  595TIP3    H223349   6.302   0.713   8.080  0.9334 -0.0127  0.1887
  596TIP3   OH223350   1.599   6.874   1.142  0.2734  0.5941  0.0061
  596TIP3    H123351   1.610   6.793   1.093  0.5437  1.9433 -2.2938
  596TIP3    H223352   1.505   6.893   1.136  0.5258  1.5300 -1.3502
  597TIP3   OH223353   5.076   1.890   1.684 -0.0600 -0.6196  0.1751
  597TIP3    H123354   4.988   1.891   1.721 -0.6118 -0.8889 -1.0618
  597TIP3    H223355   5.062   1.879   1.590  1.2475  0.8094 -0.2260
  598TIP3   OH223356   6.627   1.897   6.342  0.0529  0.3054 -0.1515
  598TIP3    H123357   6.691   1.835   6.306  1.9857  2.4959 -0.7936
  598TIP3    H223358   6.618   1.872   6.434  2.4305  0.3111  0.1445
  599TIP3   OH223359   3.054   1.827   7.137  0.4684 -0.0368 -0.1527
  599TIP3    H123360   3.109   1.850   7.062 -0.0026  0.7836 -0.2654
  599TIP3    H223361   3.103   1.760   7.184  1.3904  0.4154 -0.4529
  600TIP3   OH223362   2.699   5.685   0.848 -0.0559  0.3179 -0.1860
  600TIP3    H123363   2.669   5.605   0.805 -1.4831 -0.3398  1.9231
  600TIP3    H223364   2.661   5.682   0.935  0.5385  2.9178  0.2490
  601TIP3   OH223365   6.175   4.236   0.300 -0.0195  0.4725  0.1662
  601TIP3    H123366   6.218   4.221   0.384  0.4845 -2.3101 -0.4818
  601TIP3    H223367   6.084   4.208   0.314  0.1435 -0.3057 -0.2625
  602TIP3   OH223368   0.133   4.786   2.260 -0.1283 -0.2533 -0.4469
  602TIP3    H123369   0.171   4.853   2.203  1.4549  0.3178  1.1978
  602TIP3    H223370   0.048   4.766   2.220  0.1309  1.4306 -1.9619
  603TIP3   OH223371   3.528   5.768   0.498  0.7298 -0.0143 -0.1724
  603TIP3    H123372   3.437   5.776   0.471  0.6276  2.6019  0.6862
  603TIP3    H223373   3.523   5.740   0.590  0.5863  2.9262  0.8153
  604TIP3   OH223374   5.717   0.185   7.908  0.2419  0.0655 -0.1465
  604TIP3    H123375   5.681   0.147   7.988  1.8551 -1.9320 -0.2921
  604TIP3    H223376   5.798   0.229   7.936  0.9034 -0.7843 -0.6725
  605TIP3   OH223377   1.427   6.438   6.339  0.2959 -0.1239  0.0006
  605TIP3    H123378   1.456   6.362   6.289  2.1243  0.8635 -0.5240
  605TIP3    H223379   1.343   6.411   6.377 -0.0308 -1.7221 -1.6960
  606TIP3   OH223380   0.779   2.754   6.875  1.0504  0.0612  0.3064
  606TIP3    H123381   0.806   2.813   6.804  1.0228  0.1683  0.3838
  606TIP3    H223382   0.793   2.806   6.955  1.0750 -0.0563  0.3784
  607TIP3   OH223383   6.385   4.562   7.019 -0.0237  0.1470 -0.5319
  607TIP3    H123384   6.475   4.533   7.025  0.4846  1.3286 -1.8338
  607TIP3    H223385   6.333   4.487   7.050  1.3235 -1.0885 -1.1554
  608TIP3   OH223386   5.960   5.865   1.905 -0.0760 -0.6335  0.4045
  608TIP3    H123387   5.885   5.902   1.951 -0.7713  0.8775 -1.7482
  608TIP3    H223388   6.000   5.939   1.859  0.0160 -2.0754 -2.0639
  609TIP3   OH223389   0.569   0.564   0.503 -0.2641 -0.1061  0.2838
  609TIP3    H123390   0.646   0.605   0.544  0.1446 -0.2296 -0.3546
  609TIP3    H223391   0.501   0.569   0.571  0.2177  0.2670  0.7520
  610TIP3   OH223392   5.320   1.490   7.826  0.1649 -0.2591  0.0556
  610TIP3    H123393   5.363   1.418   7.778 -0.1963 -0.5661  0.1887
  610TIP3    H223394   5.308   1.558   7.760  1.9642  0.3305  0.2725
  611TIP3   OH223395   3.515   0.978   0.877  0.0258  0.2855  0.2756
  611TIP3    H123396   3.601   0.999   0.842 -0.7955  0.6514 -1.6606
  611TIP3    H223397   3.469   0.936   0.805 -1.6770  0.7869  1.0073
  612TIP3   OH223398   2.896   4.953   0.667  0.6628 -0.0803 -0.1839
  612TIP3    H123399   2.906   5.029   0.724  0.3959  0.1054 -0.3810
  612TIP3    H223400   2.913   4.878   0.724 -2.1162 -0.0605  0.8453
  613TIP3   OH223401   0.586   2.268   6.994 -0.2206  0.1691  0.1319
  613TIP3    H123402   0.572   2.176   6.972  0.1223 -0.1089  1.0301
  613TIP3    H223403   0.498   2.305   7.001 -0.3888 -0.3345  0.7463
  614TIP3   OH223404   6.607   1.305   0.775 -0.6743  0.2212 -0.0349
  614TIP3    H123405   6.610   1.400   0.788  0.9408  0.4907 -1.8701
  614TIP3    H223406   6.617   1.293   0.681 -1.3166 -1.7850  0.1033
  615TIP3   OH223407   5.255   1.666   0.718  0.1597  0.2504 -0.2023
  615TIP3    H123408   5.323   1.728   0.693 -2.2943  2.8658 -1.0380
  615TIP3    H223409   5.218   1.636   0.634 -1.6608  1.3369  0.1544
  616TIP3   OH223410   0.867   2.172   1.024 -0.6431  0.0891 -0.0269
  616TIP3    H123411   0.954   2.158   0.987 -1.3947 -0.9390 -1.5025
  616TIP3    H223412   0.867   2.121   1.105  0.0554 -0.0542 -0.1106
  617TIP3   OH223413   4.059   6.646   7.196 -0.0230 -0.0414  0.5822
  617TIP3    H123414   4.001   6.579   7.161 -0.2226  0.5171 -0.1895
  617TIP3    H223415   4.049   6.640   7.291 -0.6437 -0.5593  0.4885
  618TIP3   OH223416   5.434   3.339   8.051  0.6554  0.3108 -0.3295
  618TIP3    H123417   5.461   3.269   8.110  1.9350 -0.0352 -1.3040
  618TIP3    H223418   5.496   3.410   8.067  1.1740  0.1260 -1.4056
  619TIP3   OH223419   4.456   0.016   1.012 -0.5892  0.0822 -0.3138
  619TIP3    H123420   4.546   0.030   0.980 -0.8703  1.2729 -0.6358
  619TIP3    H223421   4.402   0.027   0.934 -1.0362 -0.3952 -0.0705
  620TIP3   OH223422   4.591   0.302   6.803 -0.4010  0.5045  0.2598
  620TIP3    H123423   4.628   0.378   6.848 -0.1774  1.0054 -0.7628
  620TIP3    H223424   4.657   0.277   6.739 -1.9033  1.6293 -1.8582
  621TIP3   OH223425   1.705   6.391   1.599 -0.3638  0.2560  0.4627
  621TIP3    H123426   1.768   6.390   1.527 -0.9667 -0.1236 -0.0575
  621TIP3    H223427   1.730   6.468   1.650  0.0629  0.5321 -0.1454
  622TIP3   OH223428   3.039   4.199   0.765 -0.0842 -0.2047  0.1975
  622TIP3    H123429   3.081   4.199   0.679 -0.6994 -2.3733 -0.1592
  622TIP3    H223430   3.069   4.117   0.806 -0.2475  0.5135  1.8248
  623TIP3   OH223431   4.977   4.534   0.456 -0.1731  0.1599  0.3016
  623TIP3    H123432   5.028   4.610   0.484 -0.0360  0.3003 -0.3059
  623TIP3    H223433   4.888   4.552   0.487 -0.3505  1.0240 -0.6279
  624TIP3   OH223434   3.359   3.622   0.787 -0.4374 -0.1178 -0.5625
  624TIP3    H123435   3.273   3.579   0.788  0.3328 -1.8195  2.0321
  624TIP3    H223436   3.396   3.600   0.701 -2.1688 -0.1579 -1.3445
  625TIP3   OH223437   2.101   5.364   8.337 -0.5238  0.8240 -1.2240
  625TIP3    H123438   2.055   5.316   8.268  0.5777  0.0613 -1.4466
  625TIP3    H223439   2.169   5.413   8.291  0.7189 -0.2924 -0.6265
  626TIP3   OH223440   1.876   4.049   7.476 -0.0387  0.2095 -0.1417
  626TIP3    H123441   1.923   4.093   7.547  0.0751  1.4957 -0.9809
  626TIP3    H223442   1.815   4.115   7.443 -0.5537 -0.5824 -0.8151
  627TIP3   OH223443   3.207   5.744   0.968  0.0952  0.1796  0.4067
  627TIP3    H123444   3.116   5.716   0.956  0.4784 -1.6318  1.3001
  627TIP3    H223445   3.232   5.779   0.883 -1.4930  0.9143  0.2045
  628TIP3   OH223446   6.792   5.903   6.413  1.0850  0.2843  0.3531
  628TIP3    H123447   6.750   5.901   6.499 -2.1947  1.1967 -1.0674
  628TIP3    H223448   6.799   5.811   6.388  2.9649 -0.0612  1.8805
  629TIP3   OH223449   0.947   4.163   8.206 -0.2334 -0.0628  0.1124
  629TIP3    H123450   0.855   4.148   8.228 -0.1872 -0.9306 -0.2343
  629TIP3    H223451   0.981   4.216   8.278 -0.4024 -1.7944  1.5266
  630TIP3   OH223452   5.846   4.468   0.576  0.0738 -0.1029 -0.0462
  630TIP3    H123453   5.769   4.491   0.628  2.2531  1.4113  2.7984
  630TIP3    H223454   5.872   4.382   0.610 -0.2752 -0.6035 -0.9934
  631TIP3   OH223455   1.083   3.790   7.363  0.2060 -0.4499 -0.1932
  631TIP3    H123456   1.012   3.821   7.307  1.0491  2.1977  0.0927
  631TIP3    H223457   1.045   3.787   7.451  0.1298 -0.1789 -0.2166
  632TIP3   OH223458   1.831   2.660   7.051 -0.1895 -0.5949 -0.5917
  632TIP3    H123459   1.769   2.714   7.002  0.1969 -2.6386 -3.6683
  632TIP3    H223460   1.913   2.708   7.048 -0.7987  0.5561  0.5033
  633TIP3   OH223461   4.527   3.654   1.197 -0.1897 -0.0163 -0.8025
  633TIP3    H123462   4.469   3.597   1.247  1.3598 -0.7698  0.1954
  633TIP3    H223463   4.593   3.596   1.159  1.5722  1.0592  0.4285
  634TIP3   OH223464   4.267   6.829   0.804  1.0049  0.2472 -0.4543
  634TIP3    H123465   4.210   6.890   0.849  0.1920 -1.5058  1.0121
  634TIP3    H223466   4.254   6.848   0.711  0.0400  1.6057 -0.0723
  635TIP3   OH223467   3.767   5.648   8.396  0.6895 -0.2444 -0.0265
  635TIP3    H123468   3.860   5.637   8.375  0.4494 -0.8877 -0.7756
  635TIP3    H223469   3.748   5.739   8.371  1.0812 -0.1515  0.0047
  636TIP3   OH223470   0.153   0.343   8.026  0.2012  0.1028 -0.2229
  636TIP3    H123471   0.239   0.383   8.036 -0.3197  0.9983  0.8824
  636TIP3    H223472   0.128   0.360   7.935  0.9453  0.3384 -0.3847
  637TIP3   OH223473   5.194   3.307   0.874  0.1785 -0.1825  0.2318
  637TIP3    H123474   5.278   3.352   0.884 -1.1144  2.3492  0.3000
  637TIP3    H223475   5.187   3.251   0.951  2.6079 -2.0125 -0.7128
  638TIP3   OH223476   0.127   0.049   7.345  0.1569  0.5265  0.3729
  638TIP3    H123477   0.151   0.033   7.254  0.5106 -0.2857  0.5959
  638TIP3    H223478   0.199   0.100   7.381  0.6438 -0.2632  0.5334
  639TIP3   OH223479   6.558   1.605   7.909 -0.3269  0.2466 -0.5755
  639TIP3    H123480   6.587   1.567   7.826  0.9091 -1.7181  0.6604
  639TIP3    H223481   6.484   1.550   7.936 -0.7359  0.8881 -0.3851
  640TIP3   OH223482   5.226   2.217   0.025  0.0643  0.1281 -0.3528
  640TIP3    H123483   5.300   2.231  -0.034  0.3360 -0.5923 -0.2007
  640TIP3    H223484   5.149   2.212  -0.033 -0.1182  2.4597 -0.3905
  641TIP3   OH223485   5.219   6.824   6.586  0.0555  0.2322  0.1332
  641TIP3    H123486   5.141   6.839   6.641 -1.2306 -1.7972 -0.9913
  641TIP3    H223487   5.228   6.903   6.534 -2.3220 -0.0739 -0.8783
  642TIP3   OH223488   3.883   3.426   7.679 -0.3528  0.3083  0.1201
  642TIP3    H123489   3.882   3.402   7.771 -0.6327 -0.4375 -0.0741
  642TIP3    H223490   3.885   3.522   7.679 -0.3850  0.3107  0.8972
  643TIP3   OH223491   5.047   0.210   7.605 -0.1639 -0.6455 -0.2768
  643TIP3    H123492   5.141   0.193   7.611 -0.4178 -2.1279 -0.1874
  643TIP3    H223493   5.022   0.234   7.694  0.2690  0.7117 -0.4861
  644TIP3   OH223494   6.135   0.812   1.981 -0.4014 -0.1542 -0.0344
  644TIP3    H123495   6.115   0.870   1.908  2.2162  0.8875 -0.0456
  644TIP3    H223496   6.120   0.724   1.948 -0.3337  0.3488 -1.4521
  645TIP3   OH223497   5.698   6.038   8.263 -0.0916 -0.3080  0.3913
  645TIP3    H123498   5.738   6.027   8.350 -0.8311  1.2196  0.9777
  645TIP3    H223499   5.681   5.949   8.233  3.5353 -1.0854  0.1354
  646TIP3   OH223500   0.919   6.687   6.747  0.1968  0.5967 -0.1732
  646TIP3    H123501   0.908   6.734   6.830 -1.4973 -0.3577  0.1855
  646TIP3    H223502   1.013   6.692   6.730  0.4659  1.5974  1.3352
  647TIP3   OH223503   4.527   5.502   6.870 -0.0215 -0.0025 -0.0641
  647TIP3    H123504   4.432   5.502   6.875 -0.0652 -0.7869 -0.7306
  647TIP3    H223505   4.547   5.450   6.793  0.9397  0.5296 -0.1842
  648TIP3   OH223506   0.031   4.897   0.123  0.4673 -0.0963 -0.4046
  648TIP3    H123507   0.069   4.830   0.179  1.0388  0.0923 -0.5600
  648TIP3    H223508   0.021   4.853   0.038 -0.4610 -0.4028 -0.1489
  649TIP3   OH223509   0.012   2.279   7.038 -0.6536 -0.2761  0.0488
  649TIP3    H123510  -0.064   2.262   7.094 -1.2319 -0.7479 -0.8578
  649TIP3    H223511   0.066   2.201   7.049  0.1280  0.4110  1.3315
  650TIP3   OH223512   4.658   5.934   1.721 -0.3849  0.0627  0.2274
  650TIP3    H123513   4.732   5.902   1.671  1.3392  1.7412  1.5742
  650TIP3    H223514   4.682   5.921   1.812 -1.0130  2.0421  0.7494
  651TIP3   OH223515   1.042   5.001   8.095  0.1545 -0.7219 -0.4026
  651TIP3    H123516   1.007   5.032   8.179  1.3599  0.6638 -0.3656
  651TIP3    H223517   1.129   4.966   8.117 -0.9432 -3.8423 -0.5249
  652TIP3   OH223518   0.583   0.800   1.645  0.0694 -0.5459  0.1395
  652TIP3    H123519   0.552   0.872   1.591 -1.0102 -1.1453 -0.0685
  652TIP3    H223520   0.579   0.833   1.735  1.2947  0.2441 -0.0695
  653TIP3   OH223521   1.907   6.505   1.448 -0.3033  0.6133  0.1249
  653TIP3    H123522   1.915   6.520   1.354  0.0026  0.4993  0.1344
  653TIP3    H223523   1.960   6.573   1.489  3.3502 -1.9864  0.1202
  654TIP3   OH223524   2.858   3.807   0.175  0.1359 -0.0183  0.1190
  654TIP3    H123525   2.777   3.797   0.224  0.0840 -1.3877 -0.2183
  654TIP3    H223526   2.863   3.901   0.157 -0.9485  0.2002  0.8445
  655TIP3   OH223527   5.686   6.040   2.333  0.3322 -0.1586  0.0724
  655TIP3    H123528   5.751   6.033   2.263  1.1884 -2.4904  1.0072
  655TIP3    H223529   5.736   6.065   2.410 -0.4746  1.4863  0.1221
  656TIP3   OH223530   1.873   3.227   6.960  0.5627  0.2333  0.6761
  656TIP3    H123531   1.957   3.273   6.966  0.7253 -0.0946  0.9978
  656TIP3    H223532   1.813   3.291   6.922  0.9562  0.4747  0.4454
  657TIP3   OH223533   0.764   3.231   8.395 -0.0379  0.1189 -0.2971
  657TIP3    H123534   0.733   3.157   8.447  2.1468 -1.1126 -0.6345
  657TIP3    H223535   0.695   3.245   8.330 -1.8580  0.3525  1.5707
  658TIP3   OH223536   3.985   2.937   0.198  0.2109 -1.1319  0.0910
  658TIP3    H123537   3.953   2.855   0.161  1.4811 -1.4064 -0.4465
  658TIP3    H223538   4.022   2.913   0.282  1.8829 -1.4025 -0.6738
  659TIP3   OH223539   2.833   0.930   7.261 -0.8983  0.2109  0.1765
  659TIP3    H123540   2.888   0.900   7.333 -0.9700  0.1329  0.1992
  659TIP3    H223541   2.866   1.017   7.239 -1.0225  0.3275  0.4504
  660TIP3   OH223542   3.699   1.010   6.683  0.1552 -0.4826  0.0420
  660TIP3    H123543   3.606   1.009   6.661 -0.2672 -0.2499  1.7056
  660TIP3    H223544   3.711   1.089   6.736  1.5444  0.0923 -1.0446
  661TIP3   OH223545   1.772   0.479   6.719  0.1453  0.1149 -0.1253
  661TIP3    H123546   1.860   0.511   6.737 -0.2533  0.7020  0.8461
  661TIP3    H223547   1.781   0.383   6.719  0.6901  0.1620  0.4361
  662TIP3   OH223548   2.060   6.091   2.205 -0.7299 -0.1741  0.2080
  662TIP3    H123549   2.009   6.018   2.241 -0.0335 -0.2397  1.0989
  662TIP3    H223550   2.119   6.051   2.142 -1.9949 -0.0528 -1.1013
  663TIP3   OH223551   3.232   2.722   0.129 -0.0623 -0.2485 -0.3223
  663TIP3    H123552   3.327   2.707   0.132 -0.1626 -1.2401 -1.4523
  663TIP3    H223553   3.204   2.683   0.047 -1.7347 -1.7093  0.8621
  664TIP3   OH223554   1.822   5.652   6.679  0.1687  0.2199 -0.6185
  664TIP3    H123555   1.797   5.743   6.665  0.0907  0.0216 -1.8916
  664TIP3    H223556   1.756   5.602   6.631  1.0826 -0.4385 -1.2186
  665TIP3   OH223557   2.141   4.685   0.748 -0.2641  0.0885  0.1926
  665TIP3    H123558   2.234   4.660   0.752 -0.5991 -1.2852  0.0348
  665TIP3    H223559   2.096   4.617   0.798 -1.0864  1.4074  1.3195
  666TIP3   OH223560   5.277   6.028   0.529 -0.0458  0.3485 -0.0646
  666TIP3    H123561   5.223   6.088   0.478  0.5692 -0.8754 -2.2975
  666TIP3    H223562   5.306   5.962   0.466  0.8709 -1.2238  1.8725
  667TIP3   OH223563   4.578   0.403   0.405  0.2330  0.1139 -0.2014
  667TIP3    H123564   4.658   0.385   0.356  1.1858  0.1848  1.2978
  667TIP3    H223565   4.602   0.471   0.468 -0.5141 -1.1116  1.4883
  668TIP3   OH223566   3.851   4.808   7.080  0.5323 -0.4561 -0.1190
  668TIP3    H123567   3.768   4.761   7.071  0.7618 -1.6391  2.7700
  668TIP3    H223568   3.889   4.773   7.161  2.8487  1.5947 -0.2164
  669TIP3   OH223569   5.219   2.999   0.609  1.0233  0.2467  0.9796
  669TIP3    H123570   5.194   3.056   0.536  1.5156  1.8707  2.0302
  669TIP3    H223571   5.197   2.911   0.579  1.7010  0.7928 -1.3455
  670TIP3   OH223572   3.187   5.100   2.132 -0.5306  0.2106 -0.2405
  670TIP3    H123573   3.189   5.191   2.103 -1.6257  0.4272  0.2919
  670TIP3    H223574   3.125   5.057   2.072  2.0689 -0.8984 -2.3073
  671TIP3   OH223575   2.771   2.527   8.222  0.1405 -0.6034  0.1431
  671TIP3    H123576   2.847   2.496   8.272 -0.0117 -0.6864  0.3264
  671TIP3    H223577   2.701   2.466   8.245 -0.2139 -0.0208  0.6451
  672TIP3   OH223578   2.661   1.748   1.240 -0.5032  0.0855 -0.2378
  672TIP3    H123579   2.688   1.667   1.197  0.1270 -0.7494  1.6031
  672TIP3    H223580   2.740   1.802   1.242 -0.6198  0.2660 -0.4106
  673TIP3   OH223581   3.151   3.506   6.058 -0.0366  0.2254 -0.4091
  673TIP3    H123582   3.231   3.542   6.020 -0.5781  0.5845 -1.2328
  673TIP3    H223583   3.175   3.418   6.085  0.7925  0.5285 -0.1044
  674TIP3   OH223584   5.196   5.297   0.248 -0.4547  0.8835  0.5627
  674TIP3    H123585   5.281   5.317   0.210 -0.6262  0.2951 -0.1491
  674TIP3    H223586   5.216   5.234   0.318 -0.5285 -1.3330 -1.3116
  675TIP3   OH223587   0.880   3.812   1.674  0.2875 -0.0626 -0.8108
  675TIP3    H123588   0.806   3.858   1.714  0.3793  0.4730 -1.2402
  675TIP3    H223589   0.874   3.723   1.707  0.6050  0.4607  0.7476
  676TIP3   OH223590   3.774   6.818   7.030 -0.0378  0.4223  0.0101
  676TIP3    H123591   3.775   6.837   6.936 -0.6834 -1.2714 -0.3798
  676TIP3    H223592   3.726   6.891   7.069 -0.7837  0.5667 -1.1324
  677TIP3   OH223593   4.904   5.666   7.461 -0.2701  0.1490  0.3147
  677TIP3    H123594   4.823   5.653   7.510 -0.4136  0.3022  0.1153
  677TIP3    H223595   4.890   5.619   7.379  0.0221 -0.2231  0.4709
  678TIP3   OH223596   0.129   5.926   8.122 -0.3973 -0.3229  0.1034
  678TIP3    H123597   0.094   5.962   8.040 -0.1994 -1.7483 -0.6339
  678TIP3    H223598   0.059   5.940   8.186 -1.8784 -1.9606 -1.0450
  679TIP3   OH223599   2.312   6.453   1.420 -0.2734  0.5690 -0.1373
  679TIP3    H123600   2.242   6.515   1.438  0.6651  1.6891 -0.1906
  679TIP3    H223601   2.370   6.459   1.496 -1.0761 -1.6070  0.7167
  680TIP3   OH223602   5.527   1.052   7.454  0.4856  0.1917 -0.3667
  680TIP3    H123603   5.553   1.048   7.362  0.5609  0.3143 -0.3522
  680TIP3    H223604   5.513   0.961   7.479  1.9628  0.0172 -0.0830
  681TIP3   OH223605   0.421   0.065   1.007 -0.0938 -0.1171 -0.5547
  681TIP3    H123606   0.352   0.066   1.073  0.4651  0.6980  0.0398
  681TIP3    H223607   0.416  -0.023   0.968 -1.6549  0.0259 -0.7558
  682TIP3   OH223608   3.814   0.272   7.318 -0.0965  0.2664 -0.0257
  682TIP3    H123609   3.854   0.298   7.401 -0.2844 -1.1721  0.5381
  682TIP3    H223610   3.884   0.286   7.254  0.6778 -0.3696  0.6565
  683TIP3   OH223611   4.337   3.787   7.450 -0.4185 -0.5322  0.1611
  683TIP3    H123612   4.276   3.819   7.516 -1.2255  0.0541 -0.8525
  683TIP3    H223613   4.283   3.764   7.375  0.2554 -3.0886  0.3621
  684TIP3   OH223614   1.104   3.788   0.677 -0.5935  0.2813 -0.4648
  684TIP3    H123615   1.041   3.830   0.618 -0.4880  0.3000 -0.5652
  684TIP3    H223616   1.175   3.760   0.619 -1.6904 -2.1066 -0.7698
  685TIP3   OH223617   5.344   0.846   0.466 -0.4318 -0.4079 -0.6303
  685TIP3    H123618   5.280   0.796   0.417 -0.8849 -0.6939  0.2398
  685TIP3    H223619   5.302   0.931   0.481 -1.9777 -1.5430  2.5638
  686TIP3   OH223620   1.338   4.218   8.158  0.0220  0.0196 -0.0305
  686TIP3    H123621   1.373   4.147   8.104  0.8646  0.3684  0.0529
  686TIP3    H223622   1.313   4.286   8.094 -0.1299 -0.0660 -0.0620
  687TIP3   OH223623   2.825   3.156   8.174 -0.0826  0.0181  0.1370
  687TIP3    H123624   2.767   3.087   8.143 -0.0488  0.9180 -2.1843
  687TIP3    H223625   2.819   3.152   8.269 -3.1619 -0.5950  0.0273
  688TIP3   OH223626   1.835   2.755   7.980  0.1767 -0.3039 -0.2045
  688TIP3    H123627   1.846   2.738   7.886  2.4713 -2.9740  0.4059
  688TIP3    H223628   1.910   2.711   8.021 -1.0909  0.2151  2.9534
  689TIP3   OH223629   3.820   1.425   1.810 -0.5612 -0.0063 -0.1691
  689TIP3    H123630   3.897   1.419   1.754 -0.2056 -0.9262  0.4047
  689TIP3    H223631   3.847   1.479   1.884 -0.2948 -0.7724  0.2997
  690TIP3   OH223632   2.860   4.687   1.177  0.1350 -0.0430  0.2985
  690TIP3    H123633   2.853   4.752   1.247 -2.1413 -1.2327  1.2925
  690TIP3    H223634   2.797   4.716   1.111  1.4067  0.4194 -0.7469
  691TIP3   OH223635   5.832   1.282   1.694 -0.9749 -0.4971 -0.5280
  691TIP3    H123636   5.815   1.252   1.784  1.3537 -0.8523 -0.1546
  691TIP3    H223637   5.841   1.202   1.644  1.5058 -0.4340 -0.2787
  692TIP3   OH223638   1.115   5.112   0.758  0.6901 -0.0746 -0.2493
  692TIP3    H123639   1.086   5.027   0.791  1.7167 -0.0506  0.7989
  692TIP3    H223640   1.150   5.157   0.835 -0.5703  1.6415 -0.6183
  693TIP3   OH223641   0.522   0.414   8.088  0.0146 -0.5027 -0.5450
  693TIP3    H123642   0.499   0.406   7.995 -1.6063  0.7493 -0.3179
  693TIP3    H223643   0.466   0.485   8.119  1.3689 -0.1148  1.1348
  694TIP3   OH223644   5.123   0.175   8.177 -0.1014 -0.0957 -0.2959
  694TIP3    H123645   5.102   0.220   8.258  0.6289  0.5310 -0.4446
  694TIP3    H223646   5.152   0.245   8.118 -3.2198 -0.0846 -2.0509
  695TIP3   OH223647   3.446   4.571   1.988 -0.4021  0.3999  0.0282
  695TIP3    H123648   3.418   4.496   1.935 -0.0434  0.7372 -0.6525
  695TIP3    H223649   3.524   4.539   2.034  0.4387  0.6910 -1.1455
  696TIP3   OH223650   6.998   5.736   7.483  0.3513  0.3650  0.1159
  696TIP3    H123651   6.965   5.665   7.538 -0.5019  0.9437  0.3693
  696TIP3    H223652   7.043   5.795   7.543 -2.0650  1.8941  0.5331
  697TIP3   OH223653   4.120   0.259   1.024 -0.2787 -0.3512  0.2488
  697TIP3    H123654   4.031   0.288   1.006  0.2837  1.3079 -0.0765
  697TIP3    H223655   4.112   0.201   1.099 -1.4338  1.2466  1.4127
  698TIP3   OH223656   2.886   4.204   2.293  0.0251  0.0580  0.6749
  698TIP3    H123657   2.916   4.213   2.384 -1.3151  1.6695  0.9961
  698TIP3    H223658   2.807   4.151   2.298  0.7629 -1.1035  0.2580
  699TIP3   OH223659   2.613   5.890   0.113  0.3747  0.0599  0.2180
  699TIP3    H123660   2.610   5.985   0.125  0.1341  0.1145 -0.2218
  699TIP3    H223661   2.546   5.856   0.173 -0.7234  0.3144 -0.8277
  700TIP3   OH223662   2.362   2.210   6.916  0.3599  0.6009 -0.1800
  700TIP3    H123663   2.287   2.152   6.908  1.3736 -0.6506 -1.0131
  700TIP3    H223664   2.413   2.196   6.836  3.0476 -0.9005  1.6218
  701TIP3   OH223665   1.907   6.027   0.752  0.7265 -0.0682 -0.5710
  701TIP3    H123666   1.958   6.007   0.831  1.5989  0.0746 -1.0757
  701TIP3    H223667   1.816   6.023   0.780  0.9988 -0.8145  0.2553
  702TIP3   OH223668   0.461   4.247   1.862 -0.4291  0.2791 -0.0938
  702TIP3    H123669   0.375   4.207   1.873 -0.3183 -0.3798 -1.4525
  702TIP3    H223670   0.496   4.254   1.951 -1.8097  0.4062  0.4554
  703TIP3   OH223671   5.391   2.605   8.041  0.1712 -0.1421  0.2491
  703TIP3    H123672   5.446   2.610   7.962 -1.7433  0.0261 -1.1394
  703TIP3    H223673   5.383   2.696   8.070 -2.3104  0.3925 -1.7525
  704TIP3   OH223674   4.760   5.908   7.756 -0.2066 -0.0147  0.0580
  704TIP3    H123675   4.775   5.828   7.706 -1.5056 -0.1724 -0.1234
  704TIP3    H223676   4.847   5.936   7.783  0.3798 -0.8112 -0.9196
  705TIP3   OH223677   4.227   4.535   1.453 -0.1983  0.2837  0.0665
  705TIP3    H123678   4.226   4.495   1.366 -0.7015 -0.0612  0.2233
  705TIP3    H223679   4.151   4.496   1.497 -1.5785  2.4394 -0.2465
  706TIP3   OH223680   2.468   2.212   6.627  0.0733  0.0255 -0.0232
  706TIP3    H123681   2.427   2.222   6.541  1.4335 -0.0305 -0.7019
  706TIP3    H223682   2.553   2.254   6.617 -0.4791  1.7748  1.8907
  707TIP3   OH223683   3.008   6.500   7.261  0.2652 -0.0663  0.4343
  707TIP3    H123684   3.044   6.571   7.315 -0.1593  0.7674 -0.3401
  707TIP3    H223685   3.084   6.467   7.212  0.7274 -1.0865  1.7757
  708TIP3   OH223686   5.289   0.469   6.037 -0.1016 -0.0528  0.2815
  708TIP3    H123687   5.254   0.447   6.123 -1.6205 -0.9080 -0.4956
  708TIP3    H223688   5.275   0.563   6.028 -1.7602 -0.2754  0.2351
  709TIP3   OH223689   0.856   6.097   7.325  0.4036 -0.2579 -0.3491
  709TIP3    H123690   0.806   6.024   7.287 -0.7404  0.6778 -0.6950
  709TIP3    H223691   0.826   6.103   7.415 -0.9010  0.9323 -0.8255
  710TIP3   OH223692   0.443   5.786   1.051  0.1733  0.4231  0.5592
  710TIP3    H123693   0.395   5.704   1.060  0.8179  0.0100  0.2771
  710TIP3    H223694   0.532   5.765   1.079 -0.0835  1.4989  2.3976
  711TIP3   OH223695   6.072   1.472   6.574  0.0085  0.0321 -0.5223
  711TIP3    H123696   6.139   1.541   6.574 -1.8232  1.9376 -1.4859
  711TIP3    H223697   6.060   1.450   6.481 -2.1175  1.2736 -0.6007
  712TIP3   OH223698   2.269   2.034   8.133 -0.4993 -0.6231  0.5771
  712TIP3    H123699   2.326   2.066   8.063 -3.1335 -1.1107 -1.9664
  712TIP3    H223700   2.297   1.943   8.147 -1.5660 -1.4119 -1.8431
  713TIP3   OH223701   0.792   0.153   6.311  0.2415  0.4648  0.2912
  713TIP3    H123702   0.732   0.190   6.376  0.1454 -1.2590  1.2593
  713TIP3    H223703   0.833   0.229   6.269  0.1603  1.6503  2.2294
  714TIP3   OH223704   1.308   4.346   6.517 -0.0607  0.2360  0.9045
  714TIP3    H123705   1.319   4.296   6.436  0.3562  0.7934  0.6093
  714TIP3    H223706   1.243   4.413   6.495 -0.0490  0.3020  1.0711
  715TIP3   OH223707   2.948   1.008   0.211 -0.4569  0.4939  0.5898
  715TIP3    H123708   2.948   1.098   0.178 -0.1003  0.1331 -0.4494
  715TIP3    H223709   3.032   0.972   0.181  0.4738  0.4891  2.9497
  716TIP3   OH223710   2.363   1.106   0.764  0.2990  0.0287 -0.1502
  716TIP3    H123711   2.433   1.046   0.792  0.3666  0.9291  1.7935
  716TIP3    H223712   2.389   1.191   0.800 -0.0857  1.1544 -2.3575
  717TIP3   OH223713   2.604   5.765   8.200  0.7121  0.0152 -1.7927
  717TIP3    H123714   2.596   5.672   8.222  0.6967 -0.0212 -1.9467
  717TIP3    H223715   2.689   5.791   8.236  0.0813  0.3184 -0.4535
  718TIP3   OH223716   4.568   0.476   8.047 -0.1786 -0.3743  0.2026
  718TIP3    H123717   4.481   0.482   8.007  0.3962  0.6266 -0.9530
  718TIP3    H223718   4.557   0.413   8.118 -1.5680 -1.1579 -0.6542
  719TIP3   OH223719   3.111   1.718   6.806 -0.6399  0.4239 -0.1508
  719TIP3    H123720   3.077   1.637   6.844 -0.1031  0.9172  1.4390
  719TIP3    H223721   3.037   1.753   6.756 -0.9001 -0.9893 -0.8155
  720TIP3   OH223722   4.107   2.036   0.312 -0.2944  0.1518  0.1159
  720TIP3    H123723   4.066   1.974   0.252 -0.2192 -1.0496  1.2372
  720TIP3    H223724   4.033   2.082   0.353 -0.4283 -0.2783  0.3661
  721TIP3   OH223725   1.196   4.727   1.095  0.0425 -0.2886  0.2517
  721TIP3    H123726   1.160   4.743   1.008  1.4012  1.8852 -0.0054
  721TIP3    H223727   1.123   4.693   1.146 -1.1416 -0.2710 -1.3688
  722TIP3   OH223728   3.010   4.535   1.337  0.8531  0.0694  0.1535
  722TIP3    H123729   2.981   4.555   1.425  1.5066  2.3725 -0.0975
  722TIP3    H223730   2.960   4.594   1.281  2.1736  0.3548 -0.7740
  723TIP3   OH223731   2.419   6.251   6.885 -0.0308  0.2612  0.1713
  723TIP3    H123732   2.400   6.345   6.880 -0.4737  0.2844  1.6667
  723TIP3    H223733   2.488   6.245   6.951  1.2182 -0.3380 -1.1428
  724TIP3   OH223734   0.849   3.471   7.228  0.0593 -0.4588 -0.0893
  724TIP3    H123735   0.775   3.411   7.220  0.5758 -0.9647 -1.2131
  724TIP3    H223736   0.925   3.414   7.235  0.5397  0.0528 -1.0197
  725TIP3   OH223737   2.158   4.394   6.721  0.8609 -0.4589  0.0901
  725TIP3    H123738   2.131   4.440   6.641  1.0127 -0.2445  0.1639
  725TIP3    H223739   2.251   4.376   6.707  0.9258 -0.2752  0.2923
  726TIP3   OH223740   0.125   0.400   0.776  0.4162 -0.0025  0.3612
  726TIP3    H123741   0.052   0.425   0.720  0.4524 -1.8548 -0.5983
  726TIP3    H223742   0.090   0.405   0.865 -0.3882  0.6235  0.0226
  727TIP3   OH223743   4.881   4.434   0.800  0.3974 -0.6815  0.1630
  727TIP3    H123744   4.863   4.515   0.753 -0.1367 -1.1088 -0.3819
  727TIP3    H223745   4.830   4.441   0.881 -0.8366 -1.1042 -0.5569
  728TIP3   OH223746   1.915   1.153   6.495 -0.2298 -0.5097  0.2624
  728TIP3    H123747   1.983   1.097   6.458 -0.3713  0.6088 -1.8475
  728TIP3    H223748   1.855   1.093   6.538  1.0508 -1.6943  0.4620
  729TIP3   OH223749   4.817   0.447   0.272 -0.7779 -0.5459  0.6313
  729TIP3    H123750   4.877   0.410   0.208  0.5883 -0.6294  1.9122
  729TIP3    H223751   4.836   0.541   0.271  0.4079 -0.7375  2.0208
  730TIP3   OH223752   4.845   2.204   6.697  0.2915  0.4765  0.6543
  730TIP3    H123753   4.801   2.133   6.651 -1.3442  1.1420  1.1361
  730TIP3    H223754   4.907   2.240   6.633 -0.1414 -0.2276 -0.1687
  731TIP3   OH223755   3.603   4.447   1.690 -0.3952  0.0853  0.0929
  731TIP3    H123756   3.520   4.454   1.738 -0.0966 -1.3329  0.8783
  731TIP3    H223757   3.664   4.503   1.739 -0.3834 -0.4625  0.7161
  732TIP3   OH223758   5.855   3.908   7.141  0.4687  0.5118 -0.2791
  732TIP3    H123759   5.766   3.908   7.175  0.6228 -1.3832  0.2645
  732TIP3    H223760   5.876   4.000   7.127 -1.4005  1.0177  0.0186
  733TIP3   OH223761   2.946   2.424   7.505  0.1877 -0.0481 -0.2298
  733TIP3    H123762   2.991   2.402   7.586 -1.2116 -1.1202  0.3004
  733TIP3    H223763   2.917   2.340   7.470  0.4301  0.4375 -1.6510
  734TIP3   OH223764   3.498   6.572   6.655 -0.3163  0.1399 -0.2263
  734TIP3    H123765   3.542   6.533   6.580 -0.2621  1.9181 -1.1846
  734TIP3    H223766   3.405   6.556   6.640 -0.2889  0.2904 -0.5705
  735TIP3   OH223767   2.052   2.311   0.865  0.2820 -0.5732 -0.2165
  735TIP3    H123768   2.067   2.381   0.803 -1.0136  0.8070  0.9463
  735TIP3    H223769   2.127   2.316   0.925  1.1787 -1.4694 -1.2149
  736TIP3   OH223770   1.936   0.141   6.389 -0.0043 -0.0670 -0.6688
  736TIP3    H123771   2.018   0.096   6.410 -0.2170  0.0462  0.4820
  736TIP3    H223772   1.911   0.106   6.304  2.1293  1.1767 -1.8991
  737TIP3   OH223773   2.205   5.373   1.250  0.4314  0.5076  0.1925
  737TIP3    H123774   2.233   5.407   1.164  2.0312 -0.2963  0.3533
  737TIP3    H223775   2.286   5.369   1.301 -0.1218 -1.1526  1.0030
  738TIP3   OH223776   0.235   3.930   7.549  0.4624 -0.3147 -0.2432
  738TIP3    H123777   0.308   3.868   7.556  1.4164  0.7660 -0.4073
  738TIP3    H223778   0.232   3.974   7.634  0.5903  0.2811 -0.5429
  739TIP3   OH223779   0.557   0.854   1.939 -0.6028  0.7986 -0.1843
  739TIP3    H123780   0.607   0.872   2.019  0.2722 -0.6151 -0.3849
  739TIP3    H223781   0.468   0.836   1.971 -0.2102  0.0056  0.5198
  740TIP3   OH223782   4.501   1.426   7.942 -0.1890 -0.3281 -0.3333
  740TIP3    H123783   4.550   1.473   7.875 -0.5068  0.6680  0.1200
  740TIP3    H223784   4.512   1.479   8.021 -0.4574 -1.0842  0.2199
  741TIP3   OH223785   5.576   4.197   6.140  0.2341 -0.2710  0.3053
  741TIP3    H123786   5.616   4.234   6.219 -2.0915 -1.5009  2.1982
  741TIP3    H223787   5.520   4.267   6.107 -1.2418 -0.7733  1.6609
  742TIP3   OH223788   2.134   2.716   8.125  0.0548  0.1285  0.4019
  742TIP3    H123789   2.110   2.643   8.183  1.5245 -0.3628  0.4334
  742TIP3    H223790   2.216   2.687   8.083  1.5263  2.3686  1.5624
  743TIP3   OH223791   6.593   6.187   1.315 -0.0576  0.5637  0.0039
  743TIP3    H123792   6.509   6.177   1.359  0.6789 -1.9415  0.9997
  743TIP3    H223793   6.581   6.149   1.228 -0.0797  0.6539 -0.0327
  744TIP3   OH223794   1.700   3.994   2.129 -0.2371 -0.2681  0.2735
  744TIP3    H123795   1.769   4.012   2.193 -1.2360 -0.2837  1.3729
  744TIP3    H223796   1.623   4.041   2.161 -0.4566  0.7734 -1.5836
  745TIP3   OH223797   5.236   2.578   6.602  0.0490  0.5093 -0.6051
  745TIP3    H123798   5.185   2.600   6.680 -0.3017 -1.0874 -0.3570
  745TIP3    H223799   5.323   2.613   6.620  0.1583 -0.4246  0.8166
  746TIP3   OH223800   2.791   5.936   1.339  0.0622  0.2061 -0.1660
  746TIP3    H123801   2.802   5.993   1.415  1.0905 -0.3923  0.1459
  746TIP3    H223802   2.749   5.992   1.273  0.1291  1.0263  0.4755
  747TIP3   OH223803   2.954   5.019   7.610  0.2735  0.7577  0.0251
  747TIP3    H123804   2.867   5.004   7.646 -0.1028 -0.9070 -1.4089
  747TIP3    H223805   3.002   4.937   7.629  0.3664  0.2198 -2.2274
  748TIP3   OH223806   5.893   5.435   7.623 -0.6569  0.1001  0.1594
  748TIP3    H123807   5.966   5.373   7.621  0.0343  0.8311  1.6642
  748TIP3    H223808   5.889   5.469   7.533  1.7475  1.0319  0.3286
  749TIP3   OH223809   1.694   1.756   1.083  0.5317 -0.2278 -0.3756
  749TIP3    H123810   1.785   1.788   1.085  0.6245 -0.5005  0.1108
  749TIP3    H223811   1.664   1.768   1.173  0.1674 -0.3760 -0.4785
  750TIP3   OH223812   1.927   3.233   7.616 -0.2811  0.1169 -0.4339
  750TIP3    H123813   1.884   3.253   7.700 -1.6861  0.0595 -1.1038
  750TIP3    H223814   1.940   3.319   7.575 -0.6781  0.0750 -0.6550
  751TIP3   OH223815   6.853   3.922   2.035 -0.4881  0.2590 -0.2882
  751TIP3    H123816   6.799   3.917   2.113 -1.2350  0.4741 -0.7785
  751TIP3    H223817   6.910   3.998   2.050 -1.1883  0.7925 -0.2895
  752TIP3   OH223818   1.070   6.600   7.320 -0.1842  0.3192  0.1728
  752TIP3    H123819   1.093   6.573   7.408 -0.4283  0.4597  0.2830
  752TIP3    H223820   0.986   6.557   7.302  0.3274 -0.4756 -0.3595
  753TIP3   OH223821   4.761   6.741   7.973  0.4884 -0.3327 -0.0287
  753TIP3    H123822   4.721   6.739   8.061  1.4051  1.0028  0.4473
  753TIP3    H223823   4.734   6.826   7.937  1.1017 -0.3659 -0.5739
  754TIP3   OH223824   0.753   2.774   1.537  0.7375  0.1048 -0.0061
  754TIP3    H123825   0.794   2.860   1.538  0.4164  0.2588 -0.0705
  754TIP3    H223826   0.733   2.757   1.445  2.6707 -0.9394 -0.2822
  755TIP3   OH223827   1.977   6.464   1.806  0.2891  0.3860 -0.3963
  755TIP3    H123828   1.949   6.451   1.896 -0.1456 -1.0336 -0.7194
  755TIP3    H223829   1.927   6.540   1.776 -1.0800 -0.3545 -0.0609
  756TIP3   OH223830   5.054   6.281   1.191 -0.3951  0.2947 -0.1244
  756TIP3    H123831   5.141   6.317   1.172  0.5607 -1.1488  1.3270
  756TIP3    H223832   5.063   6.239   1.276 -1.7571 -2.3890 -1.2024
  757TIP3   OH223833   3.400   6.181   1.680  0.1596 -0.2689 -0.0862
  757TIP3    H123834   3.349   6.195   1.600  0.2879  1.4459  0.0935
  757TIP3    H223835   3.367   6.247   1.741  0.1608 -1.4734  1.2503
  758TIP3   OH223836   2.603   6.660   6.036 -0.6693 -0.6175 -0.5523
  758TIP3    H123837   2.650   6.578   6.021 -0.2617 -0.9470  2.0542
  758TIP3    H223838   2.670   6.719   6.070 -1.4557 -0.0036 -0.0599
  759TIP3   OH223839   4.232   1.547   7.255  0.3886  0.0849  0.5949
  759TIP3    H123840   4.251   1.636   7.225  1.3895 -0.3005  0.0223
  759TIP3    H223841   4.265   1.544   7.345  0.7005  0.1813  0.4836
  760TIP3   OH223842   0.601   3.477   7.532  0.7187  0.3121  0.0366
  760TIP3    H123843   0.685   3.435   7.515  0.9506  0.7580  0.0645
  760TIP3    H223844   0.623   3.568   7.551  0.3371  0.1987  1.1433
  761TIP3   OH223845   2.324   1.552   0.784 -0.1125 -0.0644  0.0630
  761TIP3    H123846   2.371   1.478   0.823 -1.2015 -0.5345  0.5000
  761TIP3    H223847   2.335   1.540   0.689  1.7087  0.5424  0.1425
  762TIP3   OH223848   2.445   5.519   7.360 -0.3176  0.4785  0.1983
  762TIP3    H123849   2.356   5.529   7.325 -0.8239 -0.2420  1.2411
  762TIP3    H223850   2.477   5.438   7.320 -0.1605  0.6848 -0.0988
  763TIP3   OH223851   1.538   6.322   8.338 -0.1936  0.2607  0.3669
  763TIP3    H123852   1.583   6.237   8.336  0.9297  0.8196  1.0577
  763TIP3    H223853   1.606   6.385   8.362 -0.9321  1.4167 -0.4514
  764TIP3   OH223854   5.586   1.339   0.679  0.2477  0.5537 -0.0702
  764TIP3    H123855   5.543   1.409   0.729  0.5457  0.5181  0.2405
  764TIP3    H223856   5.667   1.322   0.727  0.4507  0.3911 -0.4667
  765TIP3   OH223857   2.143   1.178   7.510 -0.4619 -0.4553  0.3383
  765TIP3    H123858   2.171   1.177   7.419  0.9750  0.7935  0.7214
  765TIP3    H223859   2.193   1.249   7.550  0.7979 -2.4720  2.6681
  766TIP3   OH223860   0.776   3.385   0.212  0.4083 -0.4299  0.1911
  766TIP3    H123861   0.838   3.332   0.264  0.4680 -1.0639 -0.5013
  766TIP3    H223862   0.786   3.351   0.122 -0.3592  0.0173 -0.0681
  767TIP3   OH223863   6.623   2.596   7.109  0.3618  0.1583  0.0468
  767TIP3    H123864   6.596   2.599   7.017 -0.6110 -0.0809  0.3084
  767TIP3    H223865   6.718   2.606   7.107  0.8378 -3.2699 -1.2349
  768TIP3   OH223866   0.925   0.779   1.468  0.4501 -0.3820 -0.4102
  768TIP3    H123867   0.881   0.709   1.516  0.7889  0.4968  1.2435
  768TIP3    H223868   0.870   0.793   1.391 -0.7800 -1.0074  0.3210
  769TIP3   OH223869   4.391   6.506   0.426  0.8166  0.5015  0.5538
  769TIP3    H123870   4.445   6.585   0.420 -1.2425  2.0521  1.1768
  769TIP3    H223871   4.378   6.493   0.520 -0.1103  0.3445  0.4143
  770TIP3   OH223872   2.059   5.242   8.076  0.2384  0.3502 -0.3525
  770TIP3    H123873   2.005   5.196   8.011  1.0782 -0.2897 -0.6019
  770TIP3    H223874   2.115   5.299   8.024  0.2782  0.5163 -0.1269
  771TIP3   OH223875   1.682   3.699   1.138  0.5543  0.1041 -0.2780
  771TIP3    H123876   1.620   3.626   1.129  1.0510 -0.4770  0.8788
  771TIP3    H223877   1.679   3.723   1.230 -0.2211  2.1366 -0.7947
  772TIP3   OH223878   1.607   6.862   6.694  0.5103  0.1147  0.6923
  772TIP3    H123879   1.599   6.818   6.779  0.2818  0.6053  0.9341
  772TIP3    H223880   1.640   6.795   6.635 -0.3801 -0.5343  0.9088
  773TIP3   OH223881   6.927   1.746   6.757  0.0596  0.5631  0.0577
  773TIP3    H123882   6.851   1.687   6.751  0.5405 -0.1022  0.3609
  773TIP3    H223883   6.939   1.779   6.668  0.6290 -0.8926 -0.4375
  774TIP3   OH223884   0.935   4.104   1.302  0.3649 -0.0535  0.0304
  774TIP3    H123885   0.986   4.091   1.222 -1.8514 -2.2342 -1.1594
  774TIP3    H223886   0.986   4.060   1.370  2.4168  2.0623  0.0035
  775TIP3   OH223887   5.963   0.136   0.200 -0.1570  0.0807 -0.0168
  775TIP3    H123888   5.939   0.067   0.261 -2.5218  0.9545  0.1310
  775TIP3    H223889   5.888   0.195   0.198  0.4914  0.9793 -2.5471
  776TIP3   OH223890   3.091   0.681   1.042 -0.4641  0.1209 -0.2956
  776TIP3    H123891   3.176   0.697   1.001 -0.3014 -0.4137 -0.1736
  776TIP3    H223892   3.100   0.713   1.131 -0.4468  0.2266 -0.3355
  777TIP3   OH223893   6.548   4.195   0.242  0.0452  0.4294 -0.4337
  777TIP3    H123894   6.596   4.274   0.270 -0.8324  0.4550  1.1505
  777TIP3    H223895   6.475   4.228   0.190  0.2728  0.5828 -0.6562
  778TIP3   OH223896   2.357   0.322   6.586 -0.3515 -0.1155  0.0773
  778TIP3    H123897   2.345   0.245   6.530  2.2322 -1.8254  1.6811
  778TIP3    H223898   2.451   0.339   6.583 -0.6948  2.2235  0.8103
  779TIP3   OH223899   3.267   3.468   2.157 -0.3951  0.1927  0.2281
  779TIP3    H123900   3.343   3.515   2.123  0.5936 -1.3259  0.2237
  779TIP3    H223901   3.293   3.440   2.245 -0.9056 -0.4248  0.1883
  780TIP3   OH223902   4.095   2.274   6.426  0.0037  0.2053  0.4674
  780TIP3    H123903   4.011   2.316   6.446  0.5292  1.6546 -0.2205
  780TIP3    H223904   4.161   2.335   6.457  0.8041  0.2312 -1.1794
  781TIP3   OH223905   4.550   4.194   1.614  0.0342 -0.4807 -0.1506
  781TIP3    H123906   4.481   4.128   1.619 -0.5169  0.0287 -0.8396
  781TIP3    H223907   4.580   4.203   1.704 -0.3808 -1.1484  0.0642
  782TIP3   OH223908   0.706   5.272   0.982 -0.1299  0.0426  0.1460
  782TIP3    H123909   0.746   5.358   0.999 -0.1286 -0.0841  0.8281
  782TIP3    H223910   0.639   5.264   1.049  0.5315 -0.9103  0.7152
  783TIP3   OH223911   0.665   2.528   0.333 -0.2012  0.2952  1.1797
  783TIP3    H123912   0.642   2.481   0.413  1.1544 -0.9542  0.8833
  783TIP3    H223913   0.591   2.511   0.274 -0.3778 -0.3192  1.5584
  784TIP3   OH223914   0.660   0.046   7.564 -0.1433  0.1504  0.4727
  784TIP3    H123915   0.673  -0.002   7.483 -1.8387  0.0549  0.2313
  784TIP3    H223916   0.704   0.130   7.549  0.5518 -0.2918 -0.0818
  785TIP3   OH223917   4.680   1.881   7.926  0.1341  0.2069  0.0035
  785TIP3    H123918   4.747   1.907   7.989 -0.2002  1.9831 -0.3159
  785TIP3    H223919   4.699   1.932   7.848 -1.8489  1.1307  0.0677
  786TIP3   OH223920   6.997   6.823   0.951 -0.1315  0.5810  0.2438
  786TIP3    H123921   6.973   6.912   0.924 -0.1902  0.4397 -0.1875
  786TIP3    H223922   7.014   6.777   0.868 -0.7476  0.0050  0.4306
  787TIP3   OH223923   1.730   5.564   1.261 -0.8122  0.1001  0.7756
  787TIP3    H123924   1.687   5.480   1.245 -0.8002  0.3435 -0.7397
  787TIP3    H223925   1.820   5.540   1.284 -1.1220 -0.3293  1.5829
  788TIP3   OH223926   2.650   0.183   8.183  0.3561  0.3104 -0.3866
  788TIP3    H123927   2.719   0.222   8.237  1.6822 -0.5421 -1.4088
  788TIP3    H223928   2.569   0.223   8.215  1.2837  1.1340  1.0341
  789TIP3   OH223929   2.520   6.772   0.332 -0.3697 -0.0933  0.4318
  789TIP3    H123930   2.606   6.736   0.307 -0.4093  0.1784 -0.1086
  789TIP3    H223931   2.478   6.701   0.380 -0.3189 -0.6681 -0.3467
  790TIP3   OH223932   0.877   5.355   8.245 -0.2491 -0.5422  0.3679
  790TIP3    H123933   0.797   5.312   8.276 -1.4843  0.8294 -0.7783
  790TIP3    H223934   0.900   5.416   8.315 -1.3775  0.4830 -0.1235
  791TIP3   OH223935   2.685   0.409   1.605 -0.0302  0.6722  0.9446
  791TIP3    H123936   2.717   0.372   1.523 -0.8145 -0.2888  1.0542
  791TIP3    H223937   2.599   0.444   1.584 -0.1234  0.6599  1.2939
  792TIP3   OH223938   3.906   0.984   1.447  0.3433  0.0386 -0.0396
  792TIP3    H123939   3.940   0.901   1.413  1.1004  0.1435  0.4286
  792TIP3    H223940   3.812   0.980   1.431  0.4104 -0.7929 -0.2673
  793TIP3   OH223941   5.609   6.653   1.035  0.2567 -1.1242  0.2342
  793TIP3    H123942   5.615   6.648   0.939  2.0951  0.5280  0.2063
  793TIP3    H223943   5.516   6.666   1.052  0.0306 -0.2362 -1.4249
  794TIP3   OH223944   3.511   0.615   5.898 -0.0504  0.5081 -0.5381
  794TIP3    H123945   3.479   0.549   5.837 -0.6805  0.5748 -0.2820
  794TIP3    H223946   3.592   0.578   5.933 -1.5735 -1.2121  1.3600
  795TIP3   OH223947   1.606   6.598   7.998  0.3577  0.4270 -0.3667
  795TIP3    H123948   1.666   6.605   8.072  0.3817  3.6722 -0.5097
  795TIP3    H223949   1.655   6.632   7.923 -0.6528  0.2058 -1.1609
  796TIP3   OH223950   5.731   1.796   1.401 -0.6620 -0.0001 -0.2961
  796TIP3    H123951   5.638   1.774   1.401 -1.5613  2.7993  3.5509
  796TIP3    H223952   5.740   1.862   1.332 -1.7822  0.4097 -0.0817
  797TIP3   OH223953   4.345   6.275   7.853 -0.3741 -0.2087 -0.1980
  797TIP3    H123954   4.268   6.274   7.796  0.2449 -0.6774 -1.0540
  797TIP3    H223955   4.410   6.224   7.805  0.0930 -0.8260  1.0385
  798TIP3   OH223956   4.057   2.082   7.629  0.6816  0.2638 -0.0717
  798TIP3    H123957   4.053   2.178   7.633  0.1190  0.2907 -1.0039
  798TIP3    H223958   3.977   2.056   7.584  2.2045 -0.4251 -2.5705
  799TIP3   OH223959   2.373   1.579   2.362 -0.4022 -0.2511  0.0784
  799TIP3    H123960   2.444   1.643   2.354  0.6335 -1.2665  0.8933
  799TIP3    H223961   2.299   1.630   2.396  0.1967  0.6451  0.0630
  800TIP3   OH223962   1.958   4.342   1.113 -0.2163 -0.1780 -0.8137
  800TIP3    H123963   1.993   4.266   1.159  1.1058  0.3652 -0.8822
  800TIP3    H223964   1.875   4.361   1.158  0.6902 -0.0887  0.9167
  801TIP3   OH223965   2.895   2.461   2.168  0.3456 -0.3362  0.1948
  801TIP3    H123966   2.810   2.425   2.143 -0.0887  0.8526 -0.1276
  801TIP3    H223967   2.892   2.552   2.138  1.1955  0.1181  1.4279
  802TIP3   OH223968   0.312   2.717   7.143  0.4139  0.0770 -0.3340
  802TIP3    H123969   0.366   2.699   7.066  0.7062 -2.0384  0.2975
  802TIP3    H223970   0.227   2.741   7.107  0.8777  0.3034 -1.3225
  803TIP3   OH223971   5.440   6.768   0.591 -0.0424 -0.3008  0.2283
  803TIP3    H123972   5.367   6.744   0.649  0.7155  3.1932  2.8982
  803TIP3    H223973   5.509   6.797   0.649  2.9209 -1.6784 -2.3227
  804TIP3   OH223974   1.540   2.918   0.825  0.2350 -0.3730 -0.2386
  804TIP3    H123975   1.630   2.950   0.817 -0.0960  0.6139 -0.1686
  804TIP3    H223976   1.506   2.918   0.736 -0.1550  0.6881 -0.1079
  805TIP3   OH223977   2.575   5.608   6.932  0.5264  0.4218 -0.0991
  805TIP3    H123978   2.606   5.600   6.842 -0.9749 -0.5438 -0.5596
  805TIP3    H223979   2.487   5.647   6.924 -0.4329 -1.4271  0.7652
  806TIP3   OH223980   2.552   0.251   0.074 -0.2984 -0.2037  0.0966
  806TIP3    H123981   2.483   0.309   0.043 -0.8359  0.1825  1.9342
  806TIP3    H223982   2.630   0.280   0.026 -0.7971  1.2858  0.1362
  807TIP3   OH223983   1.691   0.799   7.848 -0.3487 -0.1614 -0.3579
  807TIP3    H123984   1.703   0.879   7.797 -1.4952  0.0331 -0.3425
  807TIP3    H223985   1.727   0.730   7.793 -1.4394  0.0627 -1.3919
  808TIP3   OH223986   1.515   4.683   0.142 -0.5634 -0.0858  0.0543
  808TIP3    H123987   1.473   4.763   0.110 -0.3047  0.3991  0.8928
  808TIP3    H223988   1.453   4.613   0.122 -2.6712  0.8066  2.8366
  809TIP3   OH223989   6.440   3.162   7.420  0.2151  0.4712  0.3961
  809TIP3    H123990   6.415   3.094   7.358 -0.2252  1.1912 -0.2345
  809TIP3    H223991   6.531   3.144   7.441  0.3968  0.2708 -0.5381
  810TIP3   OH223992   5.595   3.838   1.227 -0.1971 -0.0065 -0.0349
  810TIP3    H123993   5.513   3.809   1.266  0.8009 -0.5705  1.7389
  810TIP3    H223994   5.589   3.810   1.135 -0.3222 -3.8627  0.9692
  811TIP3   OH223995   3.353   0.216   7.561 -0.3152 -0.4011  0.5599
  811TIP3    H123996   3.372   0.157   7.489 -0.2116  1.2534 -0.8236
  811TIP3    H223997   3.260   0.235   7.554 -0.2120  0.1346  0.5693
  812TIP3   OH223998   3.218   5.937   0.437  0.1068 -0.0887  0.8552
  812TIP3    H123999   3.142   5.916   0.383 -0.4365 -0.9739  1.9291
  812TIP3    H224000   3.224   6.032   0.435 -0.6840 -0.0473  0.3002
  813TIP3   OH224001   6.221   3.040   7.590  0.5937 -0.1157  0.1644
  813TIP3    H124002   6.148   3.046   7.530 -0.5953 -1.4800  1.3831
  813TIP3    H224003   6.288   3.097   7.553 -0.4046 -0.2138 -1.9369
  814TIP3   OH224004   6.443   5.870   1.360 -0.0767 -0.7508  0.0168
  814TIP3    H124005   6.502   5.838   1.291 -0.4227  0.9590 -1.1356
  814TIP3    H224006   6.486   5.844   1.442  1.0910 -1.5650 -0.8169
  815TIP3   OH224007   5.415   1.321   7.129  0.8672 -0.5252 -0.1464
  815TIP3    H124008   5.351   1.253   7.108  0.7729 -0.4788 -0.0122
  815TIP3    H224009   5.500   1.276   7.125  0.8744 -0.4449 -0.9120
  816TIP3   OH224010   5.935   6.780   1.843 -0.1584 -0.1209  0.1254
  816TIP3    H124011   6.029   6.793   1.836 -0.2878  1.1212  0.4157
  816TIP3    H224012   5.897   6.865   1.819 -1.1308 -0.1530  1.4317
  817TIP3   OH224013   3.870   3.236   1.068 -0.1449  0.6470  0.2313
  817TIP3    H124014   3.785   3.279   1.060 -0.9968 -1.0491 -0.3590
  817TIP3    H224015   3.867   3.165   1.004  1.4295  0.0863  0.7279
  818TIP3   OH224016   4.982   3.296   8.327  0.5841 -0.8498 -0.2061
  818TIP3    H124017   4.994   3.386   8.298  1.3697 -0.8233  0.1536
  818TIP3    H224018   4.959   3.247   8.248  0.1990 -0.3456 -0.4108
  819TIP3   OH224019   1.261   6.512   1.291  0.3486  0.0580  0.4725
  819TIP3    H124020   1.251   6.606   1.305 -0.6125 -0.0733  0.7601
  819TIP3    H224021   1.288   6.477   1.376  0.6157  0.0606  0.3895
  820TIP3   OH224022   1.383   0.660   6.581  0.3246  0.1574 -0.4740
  820TIP3    H124023   1.454   0.706   6.536  0.4780  1.0772  0.6711
  820TIP3    H224024   1.312   0.723   6.587  0.8669  0.6442  1.9334
  821TIP3   OH224025   0.560   6.578   7.241 -0.2534  0.7106 -0.3079
  821TIP3    H124026   0.597   6.500   7.200 -0.8432  0.7341 -0.9101
  821TIP3    H224027   0.633   6.617   7.289  0.3593  0.4556 -1.0046
  822TIP3   OH224028   4.350   2.690   0.941 -0.0589 -0.6091  0.1631
  822TIP3    H124029   4.343   2.673   1.034  0.0567  1.8471  0.6920
  822TIP3    H224030   4.423   2.636   0.911  2.1673  1.0339  2.2261
  823TIP3   OH224031   0.302   1.720   0.917 -0.0668  0.3689  0.0843
  823TIP3    H124032   0.221   1.733   0.967  2.1435  1.8134  3.7334
  823TIP3    H224033   0.326   1.808   0.889  0.4328  0.0046 -0.6491
  824TIP3   OH224034   1.614   3.291   1.307  0.2421 -0.1701 -0.0806
  824TIP3    H124035   1.702   3.311   1.338  0.3988 -0.3384 -0.4163
  824TIP3    H224036   1.627   3.229   1.235 -0.1613 -0.3534  0.0036
  825TIP3   OH224037   5.090   4.352   0.681 -0.2157 -0.4495 -0.3668
  825TIP3    H124038   5.009   4.364   0.731  0.1160 -1.4797  0.4365
  825TIP3    H224039   5.061   4.324   0.595 -0.7092 -1.0628 -0.0076
  826TIP3   OH224040   5.137   6.806   7.514  0.4535 -0.2411 -0.2141
  826TIP3    H124041   5.200   6.876   7.501  1.6509 -1.0193  1.1003
  826TIP3    H224042   5.187   6.726   7.499 -0.2545 -0.8765  0.6910
  827TIP3   OH224043   1.130   1.190   6.555  0.4828 -0.6241 -0.3991
  827TIP3    H124044   1.087   1.112   6.521 -0.6419  0.6890 -2.1626
  827TIP3    H224045   1.165   1.163   6.640 -2.0670 -2.3490  0.2057
  828TIP3   OH224046   0.205   5.222   1.621 -0.1491 -0.7983 -0.4135
  828TIP3    H124047   0.146   5.263   1.685  0.0298 -0.6992 -0.3106
  828TIP3    H224048   0.263   5.167   1.674  0.6240  0.0235 -0.3825
  829TIP3   OH224049   0.113   0.656   0.461 -0.1372 -0.0290  0.9377
  829TIP3    H124050   0.139   0.747   0.446  0.8618 -0.2520  1.2503
  829TIP3    H224051   0.022   0.652   0.433  0.4655  0.5263 -1.2455
  830TIP3   OH224052   0.654   2.491   7.305  0.7614 -0.4436  0.2687
  830TIP3    H124053   0.728   2.504   7.365  1.4028 -2.7349  0.0672
  830TIP3    H224054   0.694   2.487   7.218  0.1811  0.0650 -0.0219
  831TIP3   OH224055   3.500   2.004   6.388  0.0425  0.0194  0.0562
  831TIP3    H124056   3.525   2.096   6.376  0.2388 -0.0530 -0.0877
  831TIP3    H224057   3.536   1.981   6.474  0.6220 -0.1355 -0.2279
  832TIP3   OH224058   5.324   1.316   0.610 -0.2937 -0.4221  0.0432
  832TIP3    H124059   5.415   1.341   0.593 -0.5104 -0.2233 -0.8253
  832TIP3    H224060   5.272   1.385   0.570 -0.8238  0.2954  1.8788
  833TIP3   OH224061   3.226   3.233   6.138 -0.3887 -0.0188  0.8299
  833TIP3    H124062   3.307   3.187   6.156  0.1477  0.5940  0.0495
  833TIP3    H224063   3.174   3.171   6.086 -0.2276 -0.2338  0.9240
  834TIP3   OH224064   4.226   2.356   0.022 -0.9039  0.2124 -0.3138
  834TIP3    H124065   4.147   2.403   0.050 -0.1687  2.2124 -1.3782
  834TIP3    H224066   4.279   2.351   0.102 -0.8911  1.4979 -0.2113
  835TIP3   OH224067   3.795   2.033   7.529 -0.1425 -0.9661 -0.2004
  835TIP3    H124068   3.701   2.027   7.545 -0.0045  0.1281  1.2668
  835TIP3    H224069   3.803   2.070   7.441 -1.1335  0.4590  0.2754
  836TIP3   OH224070   4.812   3.580   0.399  0.0154  0.2303 -0.1861
  836TIP3    H124071   4.833   3.663   0.442 -0.3928  0.3982 -0.3100
  836TIP3    H224072   4.746   3.540   0.455  0.2182 -0.0174 -0.1213
  837TIP3   OH224073   4.943   4.533   0.175 -0.1680  0.1642  0.6359
  837TIP3    H124074   4.941   4.524   0.270  0.1069  1.7097  0.8178
  837TIP3    H224075   5.034   4.553   0.155 -0.6954  2.6474  0.3941
  838TIP3   OH224076   0.050   0.648   7.638  0.3210 -0.2617 -0.1087
  838TIP3    H124077  -0.031   0.602   7.661 -0.1415  0.8794  0.6738
  838TIP3    H224078   0.117   0.581   7.637 -0.4138 -1.0211  0.5169
  839TIP3   OH224079   4.867   5.489   0.754  0.1072 -0.0464 -0.2605
  839TIP3    H124080   4.877   5.502   0.660  2.3518  0.3694 -0.0141
  839TIP3    H224081   4.912   5.406   0.771 -1.9072 -1.1054  0.2244
  840TIP3   OH224082   6.198   3.794   0.942 -0.7053 -0.2241  0.2867
  840TIP3    H124083   6.285   3.791   0.901 -1.8800 -0.2383 -2.4568
  840TIP3    H224084   6.191   3.882   0.977 -0.2178  0.4120 -1.1202
  841TIP3   OH224085   6.279   6.648   8.010 -0.1933  0.9423 -0.1159
  841TIP3    H124086   6.261   6.664   8.103 -1.4506 -0.4964 -0.0772
  841TIP3    H224087   6.194   6.630   7.971  0.6179 -1.7365 -0.8681
  842TIP3   OH224088   4.623   3.259   2.257 -0.0166  0.0147  0.3224
  842TIP3    H124089   4.541   3.286   2.215 -0.3618 -0.9384  0.3652
  842TIP3    H224090   4.601   3.251   2.350 -0.2440 -1.5420  0.1606
  843TIP3   OH224091   0.304   2.169   1.066 -0.0595  0.6111  0.0829
  843TIP3    H124092   0.387   2.143   1.105  0.2867  1.5609  0.0114
  843TIP3    H224093   0.318   2.259   1.036 -0.4904  0.1117 -1.7621
  844TIP3   OH224094   2.231   3.512   6.890  0.3786  0.1778 -0.0542
  844TIP3    H124095   2.267   3.597   6.863  1.0430 -0.5440 -1.5738
  844TIP3    H224096   2.260   3.451   6.822 -0.7473 -1.1300  0.5824
  845TIP3   OH224097   0.488   4.276   8.382  0.2834  0.1807  0.3668
  845TIP3    H124098   0.534   4.312   8.306  0.6156  0.4925  0.7119
  845TIP3    H224099   0.514   4.333   8.455  0.5076 -0.5186  0.8461
  846TIP3   OH224100   6.088   2.421   7.744 -0.9076  0.5263  0.1183
  846TIP3    H124101   6.029   2.434   7.819 -1.0829 -1.0411  0.2716
  846TIP3    H224102   6.036   2.372   7.680 -0.3708  0.8068 -0.5460
  847TIP3   OH224103   3.236   3.389   7.752 -0.6808  0.3738 -0.0275
  847TIP3    H124104   3.327   3.375   7.727 -0.3406  0.7209  0.9644
  847TIP3    H224105   3.202   3.302   7.771 -0.0546  0.3755  1.2144
  848TIP3   OH224106   1.467   6.630   1.935  0.2062 -0.0649  0.1711
  848TIP3    H124107   1.554   6.663   1.957 -0.8993  4.8110 -1.5328
  848TIP3    H224108   1.428   6.607   2.020  2.1612  0.3911  1.2423
  849TIP3   OH224109   2.073   5.282   0.819  0.3302  0.1493  0.2769
  849TIP3    H124110   2.037   5.197   0.844  1.6159 -0.0392  1.6007
  849TIP3    H224111   2.011   5.315   0.753 -0.8310 -1.2683  0.5905
  850TIP3   OH224112   3.085   1.571   7.331  0.0337  0.0388 -0.0157
  850TIP3    H124113   3.006   1.594   7.381  0.2072  0.7464 -0.0486
  850TIP3    H224114   3.153   1.563   7.398 -0.1503 -1.0179  0.0602
  851TIP3   OH224115   5.587   1.410   0.113 -0.0437  0.9457  0.1579
  851TIP3    H124116   5.683   1.411   0.114  0.0415 -0.7158 -1.4207
  851TIP3    H224117   5.562   1.502   0.106  1.4675  1.3566 -0.1921
  852TIP3   OH224118   4.950   0.482   7.171  0.4782  0.4615 -0.1368
  852TIP3    H124119   5.016   0.452   7.109  2.5708  3.7990  0.2669
  852TIP3    H224120   4.950   0.415   7.240  0.2300 -1.7828 -2.1885
  853TIP3   OH224121   5.951   4.150   0.036  0.2082 -0.5024  0.4758
  853TIP3    H124122   5.978   4.159   0.127  1.2599 -1.5228  0.2934
  853TIP3    H224123   6.030   4.120  -0.009  0.1547  1.5885 -1.0994
  854TIP3   OH224124   5.012   5.528   7.685  0.5499  0.0649  0.0007
  854TIP3    H124125   4.979   5.597   7.628 -1.9525 -1.1960 -0.2108
  854TIP3    H224126   4.961   5.537   7.766  0.6100 -1.1444  0.1922
  855TIP3   OH224127   4.191   0.554   6.106  0.1303  0.0155  0.4105
  855TIP3    H124128   4.148   0.514   6.181  0.0314  0.9140  0.8481
  855TIP3    H224129   4.126   0.551   6.036 -0.5176  0.9917  0.9461
  856TIP3   OH224130   4.835   3.143   0.107  0.0233  0.1970  0.2465
  856TIP3    H124131   4.798   3.208   0.167  0.4466 -0.2928  1.0553
  856TIP3    H224132   4.865   3.194   0.032  2.0676  1.2305  1.6591
  857TIP3   OH224133   2.980   0.596   0.459  0.1384  0.4295  0.0274
  857TIP3    H124134   2.972   0.554   0.545 -1.1538 -2.5501 -1.3776
  857TIP3    H224135   3.056   0.553   0.419 -0.9387 -0.3255 -1.3016
  858TIP3   OH224136   4.802   0.169   1.700  0.2857  0.3847 -0.9848
  858TIP3    H124137   4.855   0.190   1.777  1.3348 -0.8042 -1.3431
  858TIP3    H224138   4.821   0.239   1.637 -0.5950  1.3756 -0.1953
  859TIP3   OH224139   2.273   2.756   1.056 -0.1379  0.4037  0.3831
  859TIP3    H124140   2.213   2.784   1.125 -0.9499  1.8689 -0.8675
  859TIP3    H224141   2.217   2.716   0.989  0.5195 -0.0224  0.0726
  860TIP3   OH224142   1.928   1.237   7.679  0.2964  0.7331 -0.1115
  860TIP3    H124143   1.974   1.227   7.596 -1.0481 -1.4141 -0.6782
  860TIP3    H224144   1.980   1.187   7.742 -0.0355  0.1893 -0.2594
  861TIP3   OH224145   4.338   5.718   7.976 -0.3706  0.2235  0.6038
  861TIP3    H124146   4.259   5.678   7.940 -0.6658 -1.4208  2.8737
  861TIP3    H224147   4.314   5.810   7.989 -1.3636  0.0992 -0.2275
  862TIP3   OH224148   2.928   3.927   2.468  0.7977 -0.4200 -0.1832
  862TIP3    H124149   2.975   4.007   2.493  0.2079  0.1417 -0.8468
  862TIP3    H224150   2.841   3.958   2.441  0.3244 -1.3631  0.2313
  863TIP3   OH224151   5.940   2.126   7.292  0.9348 -0.4132  0.0959
  863TIP3    H124152   5.921   2.140   7.199  1.8390  1.9418  0.1948
  863TIP3    H224153   5.961   2.033   7.300  0.8961 -0.6349 -2.0584
  864TIP3   OH224154   1.598   2.612   0.972 -0.6467 -0.3454  0.3679
  864TIP3    H124155   1.647   2.688   1.005  0.1023 -0.7281  0.1600
  864TIP3    H224156   1.594   2.626   0.878 -0.1049 -0.7881  0.2748
  865TIP3   OH224157   3.138   2.691   0.383  0.5685  0.5746 -0.3402
  865TIP3    H124158   3.197   2.719   0.453 -1.6830  0.0612  1.8857
  865TIP3    H224159   3.182   2.718   0.302  3.1940  1.3596  1.2371
  866TIP3   OH224160   4.643   6.239   7.310  0.6928  0.3565 -0.0558
  866TIP3    H124161   4.644   6.258   7.404 -0.2541 -0.1285  0.0722
  866TIP3    H224162   4.700   6.163   7.300 -0.8218 -0.8971  0.4647
  867TIP3   OH224163   0.556   0.276   1.086  0.6339  0.8199  0.3232
  867TIP3    H124164   0.602   0.246   1.164  1.3673 -2.7231 -1.2521
  867TIP3    H224165   0.514   0.197   1.052 -1.6947  2.7123 -1.5917
  868TIP3   OH224166   1.963   1.352   8.239 -0.1975 -0.1969  0.2528
  868TIP3    H124167   1.923   1.269   8.214 -0.2506 -0.0538 -0.1433
  868TIP3    H224168   2.035   1.364   8.177  0.9110 -0.7889  1.3865
  869TIP3   OH224169   4.097   1.008   6.068  0.2127  0.2133 -0.1487
  869TIP3    H124170   4.028   1.073   6.052 -0.9200 -0.5523  1.4045
  869TIP3    H224171   4.151   1.047   6.137 -0.2518 -0.3107  0.5238
  870TIP3   OH224172   3.436   2.235   8.155 -0.0088 -0.3464  0.1574
  870TIP3    H124173   3.346   2.208   8.136 -0.1376  0.5426 -0.5459
  870TIP3    H224174   3.487   2.205   8.079  0.0383  0.3684 -0.1035
  871TIP3   OH224175   4.396   6.017   7.541 -0.0875 -0.2112 -0.1981
  871TIP3    H124176   4.338   6.081   7.499 -1.1534  0.0818  1.6190
  871TIP3    H224177   4.338   5.946   7.568  0.2469  0.2657  2.0093
  872TIP3   OH224178   3.103   6.518   7.878 -0.2723  0.1804  0.4396
  872TIP3    H124179   3.159   6.528   7.955  0.5430 -1.2507  0.0703
  872TIP3    H224180   3.113   6.601   7.831  1.0630  0.2024  0.7127
  873TIP3   OH224181   4.340   0.777   2.312 -0.0141 -0.9073  0.3028
  873TIP3    H124182   4.343   0.844   2.379 -0.3581 -0.0476 -0.5160
  873TIP3    H224183   4.280   0.812   2.246  0.5829 -1.5670 -0.6121
  874TIP3   OH224184   6.282   1.847   0.167 -0.5512 -0.1479 -0.4142
  874TIP3    H124185   6.294   1.858   0.073 -0.8920 -0.7345 -0.5343
  874TIP3    H224186   6.211   1.783   0.175 -1.8061  1.2790  0.2584
  875TIP3   OH224187   0.768   2.473   7.841 -0.0629 -0.1887  0.7325
  875TIP3    H124188   0.747   2.380   7.830  0.8597 -0.4725  1.1973
  875TIP3    H224189   0.862   2.474   7.860  0.4071  1.0126 -1.3500
  876TIP3   OH224190   4.504   6.548   7.570 -0.4979 -0.0016  0.4312
  876TIP3    H124191   4.472   6.583   7.654 -0.8749 -1.3964  0.8956
  876TIP3    H224192   4.426   6.545   7.514 -0.5875 -0.6273  0.5857
  877TIP3   OH224193   5.829   6.525   7.841  0.3468  0.0594 -0.0335
  877TIP3    H124194   5.789   6.441   7.865  1.0521 -0.6099 -1.0748
  877TIP3    H224195   5.918   6.520   7.876  0.4415  0.3023 -0.2364
  878TIP3   OH224196   1.225   4.495   8.212  0.3082  0.1271  0.0120
  878TIP3    H124197   1.242   4.464   8.123  1.4109 -0.6201  0.4625
  878TIP3    H224198   1.147   4.446   8.239  0.7092 -0.5902 -0.1036
  879TIP3   OH224199   0.080   6.897   8.281  0.2938  0.1103 -0.6430
  879TIP3    H124200   0.022   6.886   8.206 -0.0383 -1.8238 -0.1668
  879TIP3    H224201   0.133   6.974   8.260 -2.2424  1.8012 -1.2117
  880TIP3   OH224202   3.270   3.191   7.167  0.0614 -0.1884  0.5711
  880TIP3    H124203   3.299   3.242   7.243  0.9928 -1.3198  1.0129
  880TIP3    H224204   3.349   3.143   7.139 -0.5908 -0.7731 -0.3106
  881TIP3   OH224205   3.990   5.466   1.507  0.0188 -0.1939 -0.2948
  881TIP3    H124206   4.005   5.384   1.553 -0.1947 -0.6628 -1.0479
  881TIP3    H224207   4.011   5.447   1.416 -1.2470  0.2177 -0.7021
  882TIP3   OH224208   0.324   3.239   6.567  0.9080  0.1458 -0.0218
  882TIP3    H124209   0.361   3.152   6.555  0.0481 -0.1639 -0.5201
  882TIP3    H224210   0.244   3.224   6.618  1.0804  0.7219  0.4349
  883TIP3   OH224211   3.143   0.387   6.536  0.4620  1.0736  0.2842
  883TIP3    H124212   3.133   0.331   6.459 -1.9398  0.5651  0.9001
  883TIP3    H224213   3.231   0.424   6.527  0.8308 -0.1620 -1.8844
  884TIP3   OH224214   4.697   5.351   1.970 -0.2442 -0.2884 -0.1335
  884TIP3    H124215   4.775   5.341   2.025 -0.3787  1.6325  0.4759
  884TIP3    H224216   4.685   5.446   1.963 -2.7480 -0.5365  0.1031
  885TIP3   OH224217   5.163   1.224   0.915 -0.0170 -0.2027  0.0610
  885TIP3    H124218   5.215   1.283   0.860 -0.5568  0.8289  0.6210
  885TIP3    H224219   5.138   1.278   0.990 -1.3398 -0.8665  0.1242
  886TIP3   OH224220   0.641   0.687   7.985  0.0184  0.5700 -0.0748
  886TIP3    H124221   0.628   0.720   8.074  0.6961 -2.0113  1.0583
  886TIP3    H224222   0.735   0.669   7.979 -0.4411 -2.2612 -0.1246
  887TIP3   OH224223   1.087   4.124   6.445  0.1484  0.0243  0.0900
  887TIP3    H124224   1.151   4.108   6.376 -1.0604 -0.7079 -0.8789
  887TIP3    H224225   1.032   4.195   6.412 -1.0270 -0.9710 -0.1180
  888TIP3   OH224226   3.532   1.563   7.947 -0.0826 -0.7474 -0.6174
  888TIP3    H124227   3.531   1.658   7.939  0.2607 -0.8211 -1.6939
  888TIP3    H224228   3.537   1.547   8.041 -1.7384  0.2790 -0.3119
  889TIP3   OH224229   3.328   1.856   1.726 -0.3174 -0.5059  0.2907
  889TIP3    H124230   3.289   1.932   1.769 -0.9090 -1.1781  0.9590
  889TIP3    H224231   3.254   1.798   1.709  0.1907 -1.1300  0.1852
  890TIP3   OH224232   6.743   0.759   7.637  0.4975  0.0875  0.0087
  890TIP3    H124233   6.767   0.697   7.706  0.1781 -0.4077 -0.3141
  890TIP3    H224234   6.669   0.808   7.674  2.5114  2.2723  1.3719
  891TIP3   OH224235   2.157   2.790   7.349  0.1618 -0.1586  0.0925
  891TIP3    H124236   2.226   2.811   7.413  1.3889  1.5616 -1.6670
  891TIP3    H224237   2.077   2.826   7.388  0.9369  1.1770  0.5584
  892TIP3   OH224238   6.756   1.123   1.500  0.4074 -0.3930 -0.7471
  892TIP3    H124239   6.838   1.079   1.521  0.2291 -1.2809 -1.7941
  892TIP3    H224240   6.708   1.126   1.583  0.7114 -1.5935 -0.5149
  893TIP3   OH224241   5.887   6.537   1.954 -0.2766 -0.7280 -0.2523
  893TIP3    H124242   5.835   6.590   2.015 -0.9709 -1.1350 -0.4781
  893TIP3    H224243   5.928   6.601   1.896  0.7421 -0.3069  0.9023
  894TIP3   OH224244   3.759   1.864   0.647  0.8315  0.0828 -0.2953
  894TIP3    H124245   3.760   1.771   0.626 -1.2075 -0.2121  0.7151
  894TIP3    H224246   3.772   1.868   0.742 -1.7169  0.5985  0.0919
  895TIP3   OH224247   1.401   5.217   0.057  0.2054  0.5143  0.0810
  895TIP3    H124248   1.321   5.236   0.008  0.8387  0.2662 -1.0926
  895TIP3    H224249   1.431   5.303   0.087 -1.1365  0.4881  1.5967
  896TIP3   OH224250   6.698   2.230   1.736  0.0241 -0.1189  0.2789
  896TIP3    H124251   6.771   2.199   1.683  0.4913  0.8643  0.3201
  896TIP3    H224252   6.736   2.247   1.822  0.6042  3.5110 -0.5017
  897TIP3   OH224253   2.671   1.948   0.549  0.4560 -0.1362  0.6382
  897TIP3    H124254   2.587   1.986   0.524  0.3509 -1.2550 -0.8683
  897TIP3    H224255   2.678   1.965   0.643 -1.2400  0.3579  0.7107
  898TIP3   OH224256   6.726   4.566   1.762 -0.1690  0.1055 -0.1216
  898TIP3    H124257   6.724   4.613   1.845  0.3872  0.4253 -0.2841
  898TIP3    H224258   6.643   4.587   1.720 -0.1079  0.6006 -0.0019
  899TIP3   OH224259   6.247   6.176   1.211  0.0808  0.2374  0.1216
  899TIP3    H124260   6.296   6.247   1.170  1.1580 -0.5944 -0.0823
  899TIP3    H224261   6.312   6.125   1.258 -0.6657 -0.6023  0.2905
  900TIP3   OH224262   1.357   4.761   8.267 -0.2841  0.2793  0.6591
  900TIP3    H124263   1.303   4.687   8.238 -1.1639  0.9922  0.4524
  900TIP3    H224264   1.308   4.799   8.340 -0.0788  0.9463  0.4570
  901TIP3   OH224265   4.126   4.343   7.666  0.4380 -0.0209 -0.2268
  901TIP3    H124266   4.204   4.376   7.622  1.3847 -1.5811  0.1989
  901TIP3    H224267   4.094   4.273   7.610 -0.7566  0.6984 -0.4642
  902TIP3   OH224268   2.739   5.637   6.668  0.2136 -0.3939  0.5752
  902TIP3    H124269   2.821   5.656   6.623 -0.1960 -0.5733 -0.2772
  902TIP3    H224270   2.675   5.627   6.597 -0.7485  0.6733  1.2537
  903TIP3   OH224271   5.596   2.226   1.232  0.6489  0.7626  0.0900
  903TIP3    H124272   5.653   2.299   1.211  0.7382  0.7626  0.3267
  903TIP3    H224273   5.528   2.264   1.288  0.8039  0.6269  0.3726
  904TIP3   OH224274   2.438   0.477   8.328 -0.4788 -0.2095 -0.2507
  904TIP3    H124275   2.524   0.519   8.330 -0.0730 -1.0652  0.7252
  904TIP3    H224276   2.381   0.542   8.286  0.6096  0.4027 -0.8331
  905TIP3   OH224277   3.745   6.125   7.369  0.3314  0.3474  0.1213
  905TIP3    H124278   3.798   6.094   7.443  0.1168  0.4203  0.3055
  905TIP3    H224279   3.660   6.082   7.380  0.7847 -0.8965 -0.9697
  906TIP3   OH224280   4.363   3.036   1.396  0.0749  0.0572  0.2217
  906TIP3    H124281   4.328   3.102   1.455  2.6186  0.8451  0.9665
  906TIP3    H224282   4.295   3.026   1.329 -1.4834  1.5223  1.4827
  907TIP3   OH224283   6.419   6.880   7.510  0.1436 -0.2143  0.3170
  907TIP3    H124284   6.487   6.896   7.444 -0.1285 -0.2532  0.0244
  907TIP3    H224285   6.411   6.785   7.514  0.5443 -0.2319  0.8061
  908TIP3   OH224286   2.275   6.717   1.066 -0.0199  0.6715 -0.1555
  908TIP3    H124287   2.308   6.806   1.057  0.2479  0.8161  1.8469
  908TIP3    H224288   2.345   6.670   1.111 -1.4011  0.2946  1.7009
  909TIP3   OH224289   4.405   4.224   7.273 -0.0939  0.5858  0.7701
  909TIP3    H124290   4.408   4.168   7.195 -0.8785 -0.3902  1.4112
  909TIP3    H224291   4.496   4.238   7.296  0.1352  0.4708 -0.0261
  910TIP3   OH224292   0.564   0.594   7.638  0.7311 -0.2882 -0.3242
  910TIP3    H124293   0.631   0.598   7.706 -0.3762  2.5897  0.7622
  910TIP3    H224294   0.593   0.658   7.573 -0.3544  0.0952 -0.4360
  911TIP3   OH224295   4.692   6.337   7.570 -0.0755 -0.1538  0.2727
  911TIP3    H124296   4.715   6.330   7.663  1.9058  2.3561  0.0480
  911TIP3    H224297   4.633   6.412   7.566  2.9131  2.2843 -0.8837
  912TIP3   OH224298   3.355   6.811   1.211 -0.0085 -0.2431 -0.0374
  912TIP3    H124299   3.449   6.800   1.224 -0.2174 -1.6703  0.4345
  912TIP3    H224300   3.343   6.808   1.116  0.6143  2.0683 -0.2662
  913TIP3   OH224301   1.511   0.162   2.015 -0.1562  0.1294 -0.1578
  913TIP3    H124302   1.523   0.185   2.107  1.3299  0.7532 -0.4942
  913TIP3    H224303   1.565   0.084   2.003 -0.9779 -0.4294 -0.3252
  914TIP3   OH224304   1.856   2.468   6.713 -0.1282  0.2700  0.5837
  914TIP3    H124305   1.807   2.525   6.771 -0.8035 -1.4610  1.7649
  914TIP3    H224306   1.926   2.432   6.767  1.6905  1.6342 -0.7203
  915TIP3   OH224307   1.157   0.944   8.132  0.3395 -0.3820  0.1755
  915TIP3    H124308   1.249   0.965   8.148  0.6742 -1.6483  0.0693
  915TIP3    H224309   1.152   0.849   8.146 -0.9747 -0.3177  0.2762
  916TIP3   OH224310   4.734   2.359   6.372 -1.0385 -0.2041 -0.7704
  916TIP3    H124311   4.651   2.314   6.363 -1.1098 -0.4927  1.0699
  916TIP3    H224312   4.712   2.444   6.411 -0.3909 -0.7192  0.7800
  917TIP3   OH224313   3.981   3.416   1.414 -0.0112  0.4111 -0.5658
  917TIP3    H124314   4.057   3.456   1.457  0.7178 -1.9260  0.5368
  917TIP3    H224315   4.016   3.385   1.330 -0.2428  0.9293 -0.8586
  918TIP3   OH224316   6.296   0.475   1.289 -0.0471  0.0834  0.2850
  918TIP3    H124317   6.280   0.538   1.219 -2.6652  0.2709  0.9730
  918TIP3    H224318   6.257   0.393   1.258 -1.5636  0.2532  1.5927
  919TIP3   OH224319   0.846   2.455   1.372 -0.3592  0.3887  0.7960
  919TIP3    H124320   0.794   2.505   1.309  0.1827 -0.5140 -0.4159
  919TIP3    H224321   0.929   2.441   1.328 -0.2002 -0.8328  1.4535
  920TIP3   OH224322   1.519   6.965   7.342 -0.4312  0.1807  0.8260
  920TIP3    H124323   1.514   6.994   7.251 -2.1259 -1.0242  0.5041
  920TIP3    H224324   1.437   6.919   7.358  0.1417 -0.2749  2.7528
  921TIP3   OH224325   3.854   4.758   7.584 -0.7250 -0.1595 -0.0765
  921TIP3    H124326   3.789   4.744   7.514 -1.4216  0.9360  0.3107
  921TIP3    H224327   3.919   4.689   7.571 -2.1514 -1.5273 -0.2593
  922TIP3   OH224328   1.544   5.045   1.933 -0.2369 -0.5172  0.3306
  922TIP3    H124329   1.616   5.039   1.870  0.3117 -1.1615  1.0092
  922TIP3    H224330   1.549   5.134   1.968 -2.1192  0.8129 -2.3444
  923TIP3   OH224331   6.670   5.999   0.776 -0.7323  0.2335 -0.0177
  923TIP3    H124332   6.662   5.915   0.819  1.0287 -0.5225 -1.0480
  923TIP3    H224333   6.654   5.981   0.683 -1.1651  1.1998 -0.1525
  924TIP3   OH224334   5.007   2.890   6.974  0.0861 -0.4448  0.2288
  924TIP3    H124335   5.037   2.970   7.017  0.5968 -1.5037  1.9274
  924TIP3    H224336   4.921   2.912   6.938  1.2480  1.5626 -1.4975
  925TIP3   OH224337   5.330   1.911   6.928 -0.0017 -0.4746 -0.1972
  925TIP3    H124338   5.395   1.897   6.997  0.5094 -1.6771 -0.8755
  925TIP3    H224339   5.365   1.983   6.877 -1.0163  1.3033  1.4834
  926TIP3   OH224340   0.648   6.033   0.756  0.2021  0.3924  0.0202
  926TIP3    H124341   0.705   5.962   0.787  0.2263 -0.1598 -1.2383
  926TIP3    H224342   0.706   6.090   0.706  0.0113  0.8325  0.2992
  927TIP3   OH224343   5.127   4.091   7.327  0.1166 -0.2143 -0.8051
  927TIP3    H124344   5.083   4.023   7.276  0.2444 -1.6197  0.8395
  927TIP3    H224345   5.097   4.076   7.417 -0.4818  2.4623 -0.4855
  928TIP3   OH224346   0.001   2.516   1.524  0.0403 -0.2325 -0.2683
  928TIP3    H124347   0.069   2.465   1.568  1.4743 -0.5892 -2.6938
  928TIP3    H224348  -0.002   2.599   1.572  0.9345 -0.8647  0.9456
  929TIP3   OH224349   6.946   5.259   6.367  0.0309  0.1428  0.0889
  929TIP3    H124350   6.954   5.281   6.274 -0.2398  0.0947  0.0519
  929TIP3    H224351   7.033   5.275   6.404  0.1712  0.0461 -0.1981
  930TIP3   OH224352   1.802   6.833   0.177  0.4930  0.0996 -0.1588
  930TIP3    H124353   1.869   6.826   0.245 -0.0943 -1.0417  0.3276
  930TIP3    H224354   1.826   6.766   0.113 -0.6976 -1.0185  0.5090
  931TIP3   OH224355   3.801   2.956   1.524  0.0408 -0.5782 -0.0487
  931TIP3    H124356   3.795   2.955   1.619 -0.6976 -0.6699 -0.0917
  931TIP3    H224357   3.832   2.869   1.501  2.2428  0.0797  0.2139
  932TIP3   OH224358   0.929   1.513   1.496 -1.0357  0.0324 -0.1339
  932TIP3    H124359   0.937   1.574   1.423 -0.4460  0.0011 -0.0953
  932TIP3    H224360   0.965   1.560   1.571  0.2197 -0.6608 -0.2748
  933TIP3   OH224361   2.166   0.825   1.131 -0.0157  0.0519  0.3286
  933TIP3    H124362   2.216   0.906   1.139  0.5266 -0.3799  1.4040
  933TIP3    H224363   2.075   0.850   1.150 -0.0253  0.5946 -0.3940
  934TIP3   OH224364   6.553   5.316   1.420  0.0963  0.4328 -0.1251
  934TIP3    H124365   6.586   5.275   1.340 -0.7369  0.9199 -0.7379
  934TIP3    H224366   6.601   5.398   1.426  0.4320  0.2227  0.0864
  935TIP3   OH224367   4.790   0.677   8.315  0.5646 -0.2763  0.5478
  935TIP3    H124368   4.734   0.672   8.238 -0.6872 -0.2508  1.4199
  935TIP3    H224369   4.878   0.690   8.280  0.4540 -2.8791 -0.9749
  936TIP3   OH224370   6.659   2.474   0.991  0.2142 -0.2024  0.2731
  936TIP3    H124371   6.585   2.414   0.997 -0.2916  0.5452  2.0854
  936TIP3    H224372   6.736   2.418   1.001 -0.0433 -1.0022 -1.7210
  937TIP3   OH224373   6.499   4.768   1.901  0.7079 -0.5126 -0.1231
  937TIP3    H124374   6.591   4.748   1.917  1.3371  0.9705 -1.5348
  937TIP3    H224375   6.456   4.683   1.896  2.0066 -1.2357  0.5344
  938TIP3   OH224376   4.036   1.375   8.303  0.0464 -0.1729 -0.2428
  938TIP3    H124377   3.998   1.461   8.321 -0.8958 -0.7934  0.9263
  938TIP3    H224378   4.130   1.390   8.304 -0.0979  0.8103  0.1948
  939TIP3   OH224379   6.161   5.179   0.276 -0.0310  0.2010  0.2199
  939TIP3    H124380   6.067   5.188   0.257 -0.3109 -0.3475  1.2693
  939TIP3    H224381   6.183   5.261   0.321  0.3003  0.8711 -1.1074
  940TIP3   OH224382   4.062   0.007   0.900  0.2773  0.3739  0.6059
  940TIP3    H124383   4.112   0.085   0.926  1.8613  0.1582 -1.5167
  940TIP3    H224384   4.027   0.029   0.814  1.9572 -1.6961 -0.6968
  941TIP3   OH224385   6.984   0.447   1.006  0.6067  0.0155  0.3021
  941TIP3    H124386   7.056   0.445   1.069 -1.3313 -0.7673  2.6352
  941TIP3    H224387   6.949   0.535   1.011  1.8559  0.6804 -1.5039
  942TIP3   OH224388   3.454   4.078   1.549  0.2642 -0.2046 -0.2847
  942TIP3    H124389   3.372   4.096   1.596  1.7768  2.3731  1.6047
  942TIP3    H224390   3.434   4.097   1.457 -1.1212  0.9057  0.2127
  943TIP3   OH224391   2.632   2.429   1.025 -0.5780  0.2702 -0.2526
  943TIP3    H124392   2.571   2.494   1.060 -0.5169  0.0469  0.2798
  943TIP3    H224393   2.717   2.472   1.029 -0.6850  0.5759 -0.9805
  944TIP3   OH224394   3.292   4.431   0.785  0.0468  0.4038 -0.2185
  944TIP3    H124395   3.289   4.350   0.735 -1.3392  1.2771 -1.6562
  944TIP3    H224396   3.282   4.500   0.720  1.8270  1.7997  0.8809
  945TIP3   OH224397   2.971   0.840   7.508  0.0105 -0.4126 -0.3776
  945TIP3    H124398   2.974   0.868   7.599  0.7863  0.8281 -0.7574
  945TIP3    H224399   3.017   0.757   7.506  1.8110  0.5221  0.0654
  946TIP3   OH224400   6.613   1.746   8.192 -0.1018 -0.1300 -0.3820
  946TIP3    H124401   6.554   1.683   8.151 -3.2524  2.0368  0.4679
  946TIP3    H224402   6.604   1.730   8.286 -0.7541  1.3164 -0.1680
  947TIP3   OH224403   1.393   0.479   0.241 -0.1628 -0.3423 -0.5595
  947TIP3    H124404   1.372   0.469   0.334 -0.1000  0.1696 -0.4862
  947TIP3    H224405   1.470   0.425   0.227  0.8070  0.8211  0.0602
  948TIP3   OH224406   6.371   1.011   7.785 -0.1403 -0.1849 -0.6462
  948TIP3    H124407   6.439   1.072   7.757 -1.3053  0.6793 -1.6919
  948TIP3    H224408   6.295   1.067   7.803 -0.4252 -1.0642  1.0770
  949TIP3   OH224409   4.136   1.474   0.234  0.1127  0.3537  0.2275
  949TIP3    H124410   4.154   1.381   0.220 -1.7778 -0.0832  0.4790
  949TIP3    H224411   4.216   1.518   0.206  0.7823 -1.2940 -0.5789
  950TIP3   OH224412   3.931   0.113   0.672  0.4070 -0.3194 -0.5325
  950TIP3    H124413   3.915   0.207   0.682 -0.4908 -0.5663  0.6153
  950TIP3    H224414   3.844   0.074   0.671  0.7851 -1.1929 -0.4078
  951TIP3   OH224415   3.733   4.878   1.459 -0.3734  0.3032  0.3396
  951TIP3    H124416   3.662   4.857   1.398 -0.4530  0.1875  0.4720
  951TIP3    H224417   3.690   4.928   1.529 -0.1707  1.0087 -0.0236
  952TIP3   OH224418   0.602   4.285   7.274  0.0385  0.3426 -0.5061
  952TIP3    H124419   0.658   4.341   7.329  2.4176 -1.9362 -0.3957
  952TIP3    H224420   0.650   4.278   7.192 -1.7084  0.8183 -1.5976
  953TIP3   OH224421   0.246   5.203   7.456 -0.2659 -0.1632  0.2436
  953TIP3    H124422   0.212   5.155   7.531  0.3128  1.8787  1.8886
  953TIP3    H224423   0.173   5.258   7.427 -0.6592 -1.3081 -1.1134
  954TIP3   OH224424   4.171   6.185   8.280  0.0990 -0.0089 -0.2720
  954TIP3    H124425   4.219   6.107   8.308 -0.4039 -0.5547 -0.8940
  954TIP3    H224426   4.232   6.231   8.222 -0.1964 -0.8088 -1.2295
  955TIP3   OH224427   6.593   4.322   1.660  0.4483 -0.0255  0.1269
  955TIP3    H124428   6.557   4.407   1.634 -0.7240 -0.1345  1.2727
  955TIP3    H224429   6.645   4.341   1.738  0.8756 -0.2348 -0.1083
  956TIP3   OH224430   4.813   4.261   6.227 -0.8636  0.1197 -0.0297
  956TIP3    H124431   4.770   4.330   6.278 -0.4229 -0.3173  0.9650
  956TIP3    H224432   4.752   4.188   6.229 -0.4876 -0.1931  0.6293
  957TIP3   OH224433   4.912   6.474   2.346  0.2497  0.3160  0.4433
  957TIP3    H124434   4.879   6.396   2.390 -0.8496 -0.4673 -1.6396
  957TIP3    H224435   4.962   6.440   2.271 -0.1693  1.5650 -0.4434
  958TIP3   OH224436   3.578   1.099   1.122  0.0002  0.2323 -0.2735
  958TIP3    H124437   3.540   1.087   1.035 -0.6834  0.7479 -0.0532
  958TIP3    H224438   3.559   1.191   1.144  0.2952  0.1458  0.3548
  959TIP3   OH224439   6.423   1.035   1.898  0.0389 -0.3224  0.2897
  959TIP3    H124440   6.429   1.095   1.824 -1.1594 -1.8683 -1.1366
  959TIP3    H224441   6.378   1.085   1.966 -0.2176  0.6556 -0.5748
  960TIP3   OH224442   0.458   5.991   1.737 -0.3810  0.2355  0.6073
  960TIP3    H124443   0.373   5.953   1.763 -1.0273  0.9384 -0.4290
  960TIP3    H224444   0.439   6.082   1.717  0.4237  0.1609 -0.6109
  961TIP3   OH224445   4.402   4.559   0.590  0.9772  0.4320 -0.1055
  961TIP3    H124446   4.345   4.630   0.558  1.6058  0.5095 -1.1123
  961TIP3    H224447   4.342   4.486   0.605  0.3213  1.1468  0.8948
  962TIP3   OH224448   3.982   0.070   1.815  0.1990  0.1833  0.0711
  962TIP3    H124449   4.004   0.163   1.809  2.3114 -0.3249 -1.5280
  962TIP3    H224450   4.021   0.031   1.737  0.0541 -2.1796  1.0755
  963TIP3   OH224451   4.932   4.701   6.217 -0.5122  0.1767 -0.4513
  963TIP3    H124452   4.902   4.714   6.307  0.4611 -0.9548  0.0543
  963TIP3    H224453   4.868   4.642   6.178 -0.2434 -0.3454 -0.1060
  964TIP3   OH224454   3.935   6.248   0.125  0.2639  0.4366 -0.3698
  964TIP3    H124455   3.870   6.249   0.196  0.9830  0.0645  0.3090
  964TIP3    H224456   3.907   6.176   0.068  1.2524 -1.1656  1.0718
  965TIP3   OH224457   0.398   3.622   7.388  0.9024 -0.0888  0.1121
  965TIP3    H124458   0.450   3.548   7.422  1.6551  0.6765  0.6722
  965TIP3    H224459   0.453   3.698   7.404 -0.2402  0.7031  0.3540
  966TIP3   OH224460   5.176   5.940   8.395  0.5644 -0.0659 -0.1005
  966TIP3    H124461   5.216   6.026   8.390 -0.5304  0.6709  2.4232
  966TIP3    H224462   5.248   5.881   8.418  0.9110  0.5999  0.5612
  967TIP3   OH224463   6.274   3.744   1.705 -0.2165 -0.5314 -0.4883
  967TIP3    H124464   6.330   3.813   1.740 -1.8389  1.9933 -2.5442
  967TIP3    H224465   6.240   3.699   1.782  2.4779 -0.4438  0.8649
  968TIP3   OH224466   6.327   2.103   0.838  0.3071 -0.3158  0.6858
  968TIP3    H124467   6.334   2.092   0.932 -2.5447 -0.8343  0.9263
  968TIP3    H224468   6.239   2.073   0.816  0.1866  1.4953 -1.8747
  969TIP3   OH224469   0.310   2.730   1.146  0.5468  0.5078 -0.5249
  969TIP3    H124470   0.293   2.776   1.228 -1.0271  2.5713 -1.8933
  969TIP3    H224471   0.264   2.646   1.155  1.8482 -0.0747  1.2968
  970TIP3   OH224472   0.290   0.576   8.141 -0.0950 -0.3549 -0.0748
  970TIP3    H124473   0.260   0.633   8.071  2.2603 -1.7800 -2.4378
  970TIP3    H224474   0.306   0.634   8.215 -0.7218  1.5213 -1.3466
  971TIP3   OH224475   5.250   3.100   0.183 -0.5367 -0.1391 -0.4715
  971TIP3    H124476   5.187   3.051   0.130  0.8747 -0.5936 -1.8253
  971TIP3    H224477   5.248   3.189   0.148 -0.7599 -0.0360 -0.1986
  972TIP3   OH224478   4.027   0.465   6.301  0.0479 -0.1890  0.0913
  972TIP3    H124479   3.933   0.450   6.316  0.3255 -0.1584  2.0207
  972TIP3    H224480   4.071   0.412   6.367  1.5648 -2.6490 -2.6356
  973TIP3   OH224481   0.814   5.281   1.408  0.1464 -0.1183 -0.2447
  973TIP3    H124482   0.805   5.219   1.481 -2.3788 -1.1459 -1.3158
  973TIP3    H224483   0.759   5.245   1.339  2.4600  0.7963 -2.7542
  974TIP3   OH224484   6.492   2.425   8.330  0.4353  0.5311 -0.1740
  974TIP3    H124485   6.471   2.341   8.371 -1.2345  1.3152  0.6977
  974TIP3    H224486   6.538   2.474   8.399 -1.1155  1.3319  0.3415
  975TIP3   OH224487   5.897   3.326   6.103  0.1468 -0.0842  0.1228
  975TIP3    H124488   5.946   3.281   6.171 -1.5897  0.2219  1.6549
  975TIP3    H224489   5.815   3.276   6.095  0.2828 -0.0822 -1.7210
  976TIP3   OH224490   3.500   2.142   0.937 -0.1212  0.2671 -0.1326
  976TIP3    H124491   3.410   2.109   0.947 -0.0892 -0.1035 -0.9948
  976TIP3    H224492   3.553   2.081   0.988 -0.0000 -1.4220 -2.1218
  977TIP3   OH224493   2.526   1.257   6.393  0.1536 -0.4543 -0.3900
  977TIP3    H124494   2.616   1.238   6.366  0.6940 -0.7824  1.4861
  977TIP3    H224495   2.474   1.185   6.357  0.9804 -1.3597  0.1736
  978TIP3   OH224496   0.681   6.326   7.136  0.4917 -0.3022 -0.1414
  978TIP3    H124497   0.650   6.238   7.158 -0.1449 -0.0529 -0.0235
  978TIP3    H224498   0.714   6.317   7.046  1.7854 -0.9863  0.3800
  979TIP3   OH224499   4.969   5.475   2.038 -0.1913 -0.4797  0.1153
  979TIP3    H124500   5.028   5.481   1.962  0.4282 -0.8982  0.5462
  979TIP3    H224501   4.897   5.534   2.017  1.6520  2.1974  0.7324
  980TIP3   OH224502   1.296   0.085   6.209 -0.1139 -0.1043 -0.6825
  980TIP3    H124503   1.339   0.048   6.132  1.2999 -1.7811  0.8418
  980TIP3    H224504   1.203   0.067   6.195  0.0147  0.3613 -2.3557
  981TIP3   OH224505   6.975   2.571   0.477  0.3337  0.5686  0.1646
  981TIP3    H124506   7.011   2.572   0.388  0.2540  2.0008  0.1203
  981TIP3    H224507   7.023   2.639   0.523  0.2616 -0.0582  1.1873
  982TIP3   OH224508   6.902   2.289   7.406 -0.0059  0.3754 -0.1698
  982TIP3    H124509   6.822   2.305   7.456  0.4240  1.7437  0.1531
  982TIP3    H224510   6.884   2.211   7.354 -1.9579  1.2893 -0.9540
  983TIP3   OH224511   6.326   2.065   1.101 -0.0583  0.3183 -0.4296
  983TIP3    H124512   6.239   2.032   1.081  0.2003 -0.7444  0.1074
  983TIP3    H224513   6.353   2.016   1.179  0.6493  1.2965 -0.0368
  984TIP3   OH224514   2.401   2.350   1.606 -0.0095  0.0720  0.6836
  984TIP3    H124515   2.356   2.291   1.547 -0.2798  1.0459 -0.1148
  984TIP3    H224516   2.365   2.437   1.585  3.4198  1.2225 -1.2516
  985TIP3   OH224517   3.011   6.231   2.002 -0.2026 -0.1508 -0.0460
  985TIP3    H124518   3.040   6.321   1.983  1.0343 -0.3044  0.9848
  985TIP3    H224519   2.933   6.243   2.055  1.1726  0.4050  1.9732
  986TIP3   OH224520   1.757   0.892   0.431  0.0562  0.0432  0.2529
  986TIP3    H124521   1.666   0.900   0.401 -0.1393 -3.2001 -0.3842
  986TIP3    H224522   1.809   0.894   0.350  0.2944 -0.6274  0.3829
  987TIP3   OH224523   1.538   3.415   1.044 -0.2675  0.1578  0.8057
  987TIP3    H124524   1.500   3.429   1.131 -0.6434  1.5151  0.4392
  987TIP3    H224525   1.463   3.415   0.985 -0.1410 -1.9291  0.5600
  988TIP3   OH224526   3.319   5.548   1.163  0.3484 -0.2399  0.0138
  988TIP3    H124527   3.309   5.613   1.094  0.6423 -0.3611 -0.1424
  988TIP3    H224528   3.379   5.588   1.226 -0.6500  0.2581  0.6760
  989TIP3   OH224529   2.657   0.370   0.785  0.5686  0.3099  0.1302
  989TIP3    H124530   2.598   0.329   0.722  1.5764 -0.8380 -0.1096
  989TIP3    H224531   2.605   0.440   0.825 -0.2043  0.8371 -1.6994
  990TIP3   OH224532   3.299   2.256   6.657 -0.4818 -0.5790 -0.0888
  990TIP3    H124533   3.297   2.163   6.634  0.9245 -0.6533  0.0101
  990TIP3    H224534   3.230   2.295   6.604 -2.4335 -1.9733  1.3127
  991TIP3   OH224535   4.851   2.288   0.771 -0.2252  0.0572 -0.0525
  991TIP3    H124536   4.787   2.313   0.837 -0.0944  1.6636 -0.5087
  991TIP3    H224537   4.932   2.330   0.799  0.4333 -1.2097  0.0241
  992TIP3   OH224538   3.658   4.947   0.020  0.2052  0.1164  0.2857
  992TIP3    H124539   3.709   4.923   0.098  0.3716  1.0145  0.4544
  992TIP3    H224540   3.571   4.970   0.054  0.1147 -0.0104  0.1443
  993TIP3   OH224541   1.425   2.407   7.853 -0.2755  0.4047  0.5237
  993TIP3    H124542   1.473   2.333   7.816 -1.5542 -0.6679  0.9129
  993TIP3    H224543   1.421   2.470   7.781 -0.2345 -0.4345 -0.2451
  994TIP3   OH224544   6.886   0.467   7.180  0.5940 -0.0284  0.0955
  994TIP3    H124545   6.905   0.540   7.121 -0.5792  0.8142  0.7262
  994TIP3    H224546   6.918   0.496   7.265  1.3981 -0.8404  0.0766
  995TIP3   OH224547   2.801   1.158   7.433 -0.2412  0.2198 -0.0766
  995TIP3    H124548   2.891   1.162   7.465 -1.0408  2.8776  2.3533
  995TIP3    H224549   2.800   1.215   7.356  0.2136 -0.0963 -0.3194
  996TIP3   OH224550   6.873   0.733   8.371  0.1204  0.9918 -0.2038
  996TIP3    H124551   6.888   0.648   8.330 -0.3467  1.6315 -1.7697
  996TIP3    H224552   6.938   0.737   8.442  0.5747 -0.3859 -0.5136
  997TIP3   OH224553   4.171   1.730   7.574  0.1615  0.1789  0.0700
  997TIP3    H124554   4.195   1.639   7.557 -1.6003 -0.4077  0.4884
  997TIP3    H224555   4.253   1.778   7.569  1.0507 -1.3501 -0.7018
  998TIP3   OH224556   1.478   6.069   7.265 -0.1309  0.3933 -0.3865
  998TIP3    H124557   1.564   6.067   7.224 -0.3078 -2.7685 -0.8413
  998TIP3    H224558   1.474   5.989   7.317 -2.3927  1.0219  0.5233
  999TIP3   OH224559   3.886   3.137   6.095  0.1708 -0.1023 -0.0712
  999TIP3    H124560   3.979   3.125   6.117  0.7777  1.9662 -1.2492
  999TIP3    H224561   3.886   3.208   6.032 -2.1492 -0.8525 -0.9999
 1000TIP3   OH224562   4.013   2.129   0.819  0.0474  0.5579  0.1361
 1000TIP3    H124563   3.962   2.105   0.897  0.3996 -1.9026 -0.3097
 1000TIP3    H224564   3.964   2.201   0.779 -2.1478 -0.5670  0.6676
 1001TIP3   OH224565   0.358   5.433   1.219  0.0944  0.1989  0.1832
 1001TIP3    H124566   0.364   5.461   1.128 -1.5291 -0.0156 -0.0211
 1001TIP3    H224567   0.445   5.449   1.255  0.3224  1.8352 -0.9641
 1002TIP3   OH224568   6.180   5.986   1.581 -0.3006 -0.0959  0.4691
 1002TIP3    H124569   6.122   5.910   1.581 -1.0298  0.4382 -0.5824
 1002TIP3    H224570   6.156   6.033   1.662 -2.4225  0.8648 -0.6191
 1003TIP3   OH224571   5.613   0.762   7.498 -0.5453  0.2387 -0.1763
 1003TIP3    H124572   5.701   0.785   7.529 -0.5979  2.9746 -1.8004
 1003TIP3    H224573   5.628   0.687   7.441  1.0241  1.5377 -1.5976
 1004TIP3   OH224574   5.741   5.301   0.673 -0.1389 -0.1602 -0.6353
 1004TIP3    H124575   5.777   5.333   0.756 -0.5703  0.9317 -0.8522
 1004TIP3    H224576   5.788   5.219   0.657  1.4796  0.6608 -0.3675
 1005TIP3   OH224577   3.484   6.266   8.369  0.8841  0.0366 -0.2039
 1005TIP3    H124578   3.433   6.247   8.290 -0.9879  0.1035  0.9393
 1005TIP3    H224579   3.435   6.224   8.440  2.4550  0.0837  0.9713
 1006TIP3   OH224580   2.274   1.425   7.491  0.2942  1.0912  0.2600
 1006TIP3    H124581   2.349   1.438   7.433  0.1519  0.4986 -0.0670
 1006TIP3    H224582   2.298   1.472   7.571  0.8525  1.2180  0.0287
 1007TIP3   OH224583   4.293   2.154   2.344  0.5603 -0.1862 -0.1905
 1007TIP3    H124584   4.326   2.224   2.289 -1.5134  0.2829 -0.9336
 1007TIP3    H224585   4.350   2.079   2.326  1.6194  0.7551 -0.8346
 1008TIP3   OH224586   0.445   2.562   2.187 -0.7865 -0.5118 -0.5145
 1008TIP3    H124587   0.534   2.597   2.185 -0.2810 -1.6883  0.4978
 1008TIP3    H224588   0.391   2.636   2.216  0.0776 -0.1919  0.3503
 1009TIP3   OH224589   3.389   1.322   0.242 -0.0443 -0.5856  0.1951
 1009TIP3    H124590   3.469   1.339   0.293 -0.6418 -0.5192  1.1295
 1009TIP3    H224591   3.318   1.354   0.298 -0.7583 -1.0344 -0.4415
 1010TIP3   OH224592   0.334   2.400   6.989  0.3839 -0.2839 -0.1237
 1010TIP3    H124593   0.324   2.471   7.052  0.9335 -0.0663 -0.2759
 1010TIP3    H224594   0.252   2.350   6.996 -0.3530  0.8034 -0.5627
 1011TIP3   OH224595   0.353   0.844   6.392 -0.2628  0.2861 -0.1622
 1011TIP3    H124596   0.294   0.887   6.329 -2.0527 -1.8715 -0.0987
 1011TIP3    H224597   0.413   0.913   6.420 -0.2047  1.6568 -3.2418
 1012TIP3   OH224598   1.499   1.382   6.055  0.4185 -0.3187 -0.4797
 1012TIP3    H124599   1.594   1.394   6.042  0.1983  1.1108 -0.9387
 1012TIP3    H224600   1.474   1.317   5.989  1.2996 -1.7940  0.5815
 1013TIP3   OH224601   1.705   4.359   1.193  0.3973 -0.1560  0.0853
 1013TIP3    H124602   1.672   4.270   1.207  0.9582 -0.4494 -0.4207
 1013TIP3    H224603   1.647   4.396   1.127  0.4782 -0.3262 -0.0812
 1014TIP3   OH224604   6.465   5.417   0.298 -0.4968 -0.0364 -0.6078
 1014TIP3    H124605   6.420   5.437   0.215 -1.1990  1.1453  0.0223
 1014TIP3    H224606   6.399   5.436   0.365 -0.1417 -1.5679  0.2111
 1015TIP3   OH224607   3.403   6.041   8.094 -0.0127 -0.3715  0.7467
 1015TIP3    H124608   3.334   5.990   8.051  0.2747 -1.0563  1.0894
 1015TIP3    H224609   3.462   5.976   8.131  0.6506  0.2090  0.7384
 1016TIP3   OH224610   3.921   5.638   6.852  0.1285 -0.2837  0.4164
 1016TIP3    H124611   3.889   5.617   6.765 -0.1976  1.7650 -0.0037
 1016TIP3    H224612   4.009   5.672   6.838 -0.7444  2.2144  0.5659
 1017TIP3   OH224613   5.949   0.196   7.579 -0.1467 -0.3446  0.5629
 1017TIP3    H124614   5.927   0.224   7.490  1.3512  1.0143  0.5554
 1017TIP3    H224615   5.883   0.132   7.602 -1.5073  0.4531 -0.9401
 1018TIP3   OH224616   1.972   1.460   6.603 -0.0688 -0.7050  0.0100
 1018TIP3    H124617   1.967   1.550   6.573 -0.3438 -0.7044  0.0520
 1018TIP3    H224618   1.923   1.459   6.685  0.7534 -0.6867  0.5087
 1019TIP3   OH224619   1.820   6.133   0.221  0.4053 -0.2126  0.1208
 1019TIP3    H124620   1.725   6.141   0.207  0.0773 -0.8728  1.7265
 1019TIP3    H224621   1.856   6.120   0.133 -1.1827 -1.5673 -0.3915
 1020TIP3   OH224622   5.776   3.563   7.609  0.0088 -0.2304 -0.2765
 1020TIP3    H124623   5.705   3.621   7.635 -3.0301 -3.2719 -1.0620
 1020TIP3    H224624   5.776   3.567   7.513  0.8643 -0.3640 -0.2898
 1021TIP3   OH224625   6.160   0.145   1.401  0.4610 -0.1496 -0.0370
 1021TIP3    H124626   6.249   0.110   1.410  0.9082  0.9508 -0.0658
 1021TIP3    H224627   6.125   0.100   1.324  0.8410 -0.8804  0.2018
 1022TIP3   OH224628   1.310   2.407   2.004  0.1845  0.4084 -0.3438
 1022TIP3    H124629   1.359   2.478   2.046  0.1095  0.3774 -0.2001
 1022TIP3    H224630   1.224   2.409   2.048  0.5698 -0.5253  0.4921
 1023TIP3   OH224631   3.745   5.982   1.551 -0.4113  0.0930  0.1715
 1023TIP3    H124632   3.835   5.991   1.583 -0.4164  1.9860 -0.2423
 1023TIP3    H224633   3.750   6.003   1.458 -0.9672 -1.9257 -0.3669
 1024TIP3   OH224634   1.418   2.528   7.608 -0.4796 -0.3960  0.6447
 1024TIP3    H124635   1.389   2.578   7.532 -0.5929 -0.9125  0.3412
 1024TIP3    H224636   1.513   2.526   7.601 -0.3863  0.8616  1.3584
 1025TIP3   OH224637   6.730   6.803   2.307 -0.1109  0.5170 -0.4616
 1025TIP3    H124638   6.682   6.776   2.386  1.3410 -0.2368  0.2051
 1025TIP3    H224639   6.734   6.724   2.254 -0.4770  0.8441 -0.9832
 1026TIP3   OH224640   3.829   5.340   6.181  0.1157  0.2809  0.1651
 1026TIP3    H124641   3.736   5.322   6.191  0.3294 -0.5141  0.8085
 1026TIP3    H224642   3.833   5.428   6.142 -0.9072 -0.0167 -0.6300
 1027TIP3   OH224643   2.414   1.235   6.739 -0.1621 -0.4265  0.2659
 1027TIP3    H124644   2.384   1.287   6.814 -0.3413 -1.9145  1.2693
 1027TIP3    H224645   2.333   1.210   6.694 -0.1972 -1.1740  0.7261
 1028TIP3   OH224646   5.841   3.839   6.879  0.1286  0.1581 -0.0473
 1028TIP3    H124647   5.824   3.827   6.972  0.6346  0.5893  0.1039
 1028TIP3    H224648   5.820   3.931   6.862 -0.9919 -0.1858 -0.5884
 1029TIP3   OH224649   4.596   0.356   1.214 -0.2854 -0.2247  0.1692
 1029TIP3    H124650   4.592   0.274   1.262  1.9505 -0.4277  0.1430
 1029TIP3    H224651   4.505   0.378   1.195 -0.9315 -2.7463  0.0443
 1030TIP3   OH224652   3.915   0.449   6.793  0.3320 -0.1609 -0.3215
 1030TIP3    H124653   3.968   0.471   6.717 -0.8338  0.5430 -0.9547
 1030TIP3    H224654   3.922   0.526   6.850  0.8029 -0.4843  0.0662
 1031TIP3   OH224655   1.555   1.752   1.919  0.0488 -0.1324 -0.1558
 1031TIP3    H124656   1.553   1.656   1.925 -0.3453 -0.1733 -0.7701
 1031TIP3    H224657   1.645   1.773   1.897  0.1077 -0.3791 -0.1488
 1032TIP3   OH224658   3.322   5.877   0.041 -0.8161 -0.2153  0.0854
 1032TIP3    H124659   3.335   5.802   0.099 -0.5135  0.0275  0.3360
 1032TIP3    H224660   3.342   5.953   0.095  0.0212 -0.0128 -0.4875
 1033TIP3   OH224661   1.443   1.200   5.870 -0.5266  0.1760  0.0220
 1033TIP3    H124662   1.364   1.168   5.827 -0.2511 -0.8016  0.2233
 1033TIP3    H224663   1.504   1.127   5.866  0.4384  0.9817 -0.2848
 1034TIP3   OH224664   0.075   2.501   7.308 -0.7605 -0.0759  0.2899
 1034TIP3    H124665   0.160   2.462   7.330 -0.4891 -0.9443 -2.0636
 1034TIP3    H224666   0.012   2.430   7.323 -0.7634 -0.1837 -0.2213
 1035TIP3   OH224667   1.021   1.443   0.538  0.0802 -0.0370  0.0460
 1035TIP3    H124668   1.110   1.424   0.570  0.4255  1.1590 -0.1477
 1035TIP3    H224669   0.974   1.361   0.548  1.4500 -0.9531 -0.6572
 1036TIP3   OH224670   6.846   3.397   1.951 -0.3066  0.1302  0.1664
 1036TIP3    H124671   6.916   3.462   1.956  0.7624 -1.0300  0.5792
 1036TIP3    H224672   6.819   3.383   2.041 -1.2940  0.7760 -0.0108
 1037TIP3   OH224673   4.366   5.362   6.419  0.0434 -0.3801  0.0229
 1037TIP3    H124674   4.280   5.321   6.424 -0.2856  0.2131 -0.5427
 1037TIP3    H224675   4.421   5.309   6.476 -0.9406 -0.1416  1.2585
 1038TIP3   OH224676   4.497   3.660   6.822  0.5935 -0.3013  0.0503
 1038TIP3    H124677   4.448   3.641   6.902  0.6760 -0.4434  0.0686
 1038TIP3    H224678   4.522   3.574   6.788  0.4746 -0.2444 -0.1823
 1039TIP3   OH224679   2.677   5.102   7.424  0.3728 -0.2080  0.3775
 1039TIP3    H124680   2.657   5.017   7.385 -0.1281  1.0368 -2.3297
 1039TIP3    H224681   2.646   5.095   7.514  0.0079 -2.7350  0.1379
 1040TIP3   OH224682   1.757   4.317   0.755 -0.2480  0.2061  0.0562
 1040TIP3    H124683   1.830   4.272   0.798  1.4143  2.1785 -0.4929
 1040TIP3    H224684   1.692   4.329   0.825  0.0478 -1.3506  0.6398
 1041TIP3   OH224685   0.123   2.506   1.219  0.0820  0.7584 -0.4920
 1041TIP3    H124686   0.194   2.458   1.261  0.7117  0.0681 -2.2913
 1041TIP3    H224687   0.083   2.557   1.291  0.7711 -0.7529  1.0251
 1042TIP3   OH224688   4.806   2.528   7.048  0.0049  0.3698  0.1469
 1042TIP3    H124689   4.801   2.501   6.956  0.8480 -2.4414  0.8426
 1042TIP3    H224690   4.890   2.493   7.078  0.5476  2.7057  1.6039
 1043TIP3   OH224691   4.293   0.467   0.573  0.6805 -0.3784 -0.3071
 1043TIP3    H124692   4.310   0.425   0.488  1.1691  0.3288 -0.5702
 1043TIP3    H224693   4.278   0.394   0.633 -0.7011 -0.8659 -1.2007
 1044TIP3   OH224694   2.455   5.631   7.914 -0.5187  0.4708  0.5087
 1044TIP3    H124695   2.394   5.612   7.842 -2.4755 -1.1103  2.4637
 1044TIP3    H224696   2.406   5.687   7.973  1.2009  2.0621  0.5128
 1045TIP3   OH224697   6.287   0.579   6.698  0.1598  0.2226 -0.3323
 1045TIP3    H124698   6.205   0.571   6.649  0.2513 -1.3549 -0.2991
 1045TIP3    H224699   6.268   0.643   6.767 -1.5202 -1.1296  0.5519
 1046TIP3   OH224700   5.751   4.041   2.306 -0.8932  1.0382  0.1533
 1046TIP3    H124701   5.732   3.950   2.328 -1.5109  0.8681 -1.0069
 1046TIP3    H224702   5.845   4.051   2.322 -0.6513 -0.0490 -0.5074
 1047TIP3   OH224703   6.718   0.217   1.229 -0.5444  0.3841 -0.2297
 1047TIP3    H124704   6.716   0.300   1.277  0.7197  0.4516 -0.2406
 1047TIP3    H224705   6.657   0.230   1.156  0.5927  1.8210 -0.9929
 1048TIP3   OH224706   0.030   3.708   6.832 -0.2589 -0.3080 -0.1136
 1048TIP3    H124707  -0.012   3.648   6.894 -0.8401 -1.6227 -1.7240
 1048TIP3    H224708   0.091   3.653   6.784 -0.5188  0.4687 -1.3603
 1049TIP3   OH224709   2.501   4.912   2.292 -0.1802  0.0938  0.5114
 1049TIP3    H124710   2.484   4.937   2.383  0.1483  0.6840  0.4119
 1049TIP3    H224711   2.596   4.915   2.284 -0.2392  0.5960 -0.0115
 1050TIP3   OH224712   3.784   4.048   7.015 -0.3937 -0.9019 -0.2938
 1050TIP3    H124713   3.792   3.958   7.047  0.3033 -0.6514  0.2576
 1050TIP3    H224714   3.874   4.077   7.002 -0.6019 -0.1196 -0.0192
 1051TIP3   OH224715   1.436   0.406   0.513 -0.2643 -0.5172 -0.3911
 1051TIP3    H124716   1.509   0.367   0.562  0.4827  0.9012 -0.3381
 1051TIP3    H224717   1.396   0.331   0.468  0.8099 -1.4244  0.0891
 1052TIP3   OH224718   3.598   5.350   6.722 -0.0260  0.1494  0.2874
 1052TIP3    H124719   3.597   5.409   6.646 -1.6725 -0.4976 -0.2519
 1052TIP3    H224720   3.660   5.282   6.699 -2.1648 -1.3256 -1.6073
 1053TIP3   OH224721   0.119   5.777   2.040  0.3060 -0.0473  0.4114
 1053TIP3    H124722   0.058   5.781   2.114  0.7949 -0.3348  0.8433
 1053TIP3    H224723   0.120   5.685   2.015 -1.2261  0.3116 -1.1507
 1054TIP3   OH224724   1.480   4.955   0.093  0.1932  0.1551  0.0260
 1054TIP3    H124725   1.464   5.046   0.118 -0.9691  0.3169 -1.1967
 1054TIP3    H224726   1.575   4.944   0.101  0.3160  1.3794  0.4461
 1055TIP3   OH224727   6.586   2.771   0.014 -0.4472 -0.0698 -0.5412
 1055TIP3    H124728   6.490   2.772   0.015 -0.4691 -1.0036  0.1437
 1055TIP3    H224729   6.610   2.772   0.107  0.1483 -1.4777 -0.6465
 1056TIP3   OH224730   3.947   0.213   6.934  0.0068 -0.3401  0.7282
 1056TIP3    H124731   3.979   0.137   6.884  2.2116  0.0836  1.3547
 1056TIP3    H224732   3.943   0.284   6.869 -1.4635 -0.8237  0.2693
 1057TIP3   OH224733   1.193   6.791   0.512 -0.1345 -0.2853 -0.7212
 1057TIP3    H124734   1.129   6.830   0.570 -0.0872  0.4049 -1.1174
 1057TIP3    H224735   1.277   6.804   0.556 -0.2029 -0.6730 -0.4730
 1058TIP3   OH224736   4.268   4.823   1.560  0.1603  0.8597  0.2751
 1058TIP3    H124737   4.208   4.872   1.503 -0.5950  1.5399  1.6079
 1058TIP3    H224738   4.250   4.731   1.539 -1.1484  1.0535  0.4144
 1059TIP3   OH224739   5.630   4.239   6.699 -0.2991 -0.6861 -0.1591
 1059TIP3    H124740   5.621   4.151   6.737 -1.6709  0.0640  1.3741
 1059TIP3    H224741   5.718   4.267   6.723 -0.7699 -0.6457  1.6642
 1060TIP3   OH224742   1.503   0.863   6.108  0.0443  0.4028  0.0903
 1060TIP3    H124743   1.571   0.930   6.114  0.1500  0.2243  1.1047
 1060TIP3    H224744   1.423   0.907   6.136  0.2981 -0.1166  1.7830
 1061TIP3   OH224745   4.207   6.233   0.418 -0.7370  0.4898 -0.1315
 1061TIP3    H124746   4.215   6.153   0.469  2.0208  0.6015 -0.2764
 1061TIP3    H224747   4.173   6.298   0.479  2.8390  0.7300  1.8244
 1062TIP3   OH224748   1.268   3.681   1.585  0.0859 -0.2464 -0.6322
 1062TIP3    H124749   1.188   3.714   1.545  0.9093  2.0011 -0.5687
 1062TIP3    H224750   1.276   3.728   1.668  0.1982 -2.3149  0.6130
 1063TIP3   OH224751   0.340   2.927   7.323 -0.3335 -0.1556 -0.4605
 1063TIP3    H124752   0.313   2.848   7.277  0.7784 -1.1188  0.4852
 1063TIP3    H224753   0.433   2.936   7.303  0.4163 -1.0682  2.1361
 1064TIP3   OH224754   5.295   4.776   1.016  0.4393  0.4054  0.2702
 1064TIP3    H124755   5.258   4.689   1.034  1.5695 -0.1096  0.1901
 1064TIP3    H224756   5.229   4.837   1.047 -0.6670 -0.4862 -0.2771
 1065TIP3   OH224757   6.754   6.631   0.254 -0.5892  0.4191 -0.4963
 1065TIP3    H124758   6.677   6.575   0.248 -0.0001 -0.3571 -0.9350
 1065TIP3    H224759   6.774   6.654   0.163  1.2443 -1.5457 -0.6567
 1066TIP3   OH224760   0.183   0.757   6.598  0.5173 -0.5171  0.4033
 1066TIP3    H124761   0.156   0.679   6.549  0.8786 -0.1472 -0.3973
 1066TIP3    H224762   0.242   0.804   6.539 -1.5629  1.6430 -0.0937
 1067TIP3   OH224763   0.210   5.972   0.536  0.1621 -0.2022  0.6779
 1067TIP3    H124764   0.216   5.933   0.623 -0.8789  1.9959  1.7971
 1067TIP3    H224765   0.288   6.027   0.529 -0.3826  0.5958  0.7509
 1068TIP3   OH224766   4.365   4.107   8.204 -0.4674  0.7233 -0.1877
 1068TIP3    H124767   4.420   4.163   8.260  1.8308 -1.5401 -0.0013
 1068TIP3    H224768   4.427   4.056   8.153 -2.4759 -0.6787 -1.3574
 1069TIP3   OH224769   6.793   6.045   1.431 -0.3449 -0.0230 -0.3364
 1069TIP3    H124770   6.747   6.022   1.511  0.6303  2.5083  1.0768
 1069TIP3    H224771   6.734   6.104   1.385 -1.7267 -2.9048 -2.6040
 1070TIP3   OH224772   2.888   4.939   6.973 -0.0895  0.3296 -0.0997
 1070TIP3    H124773   2.814   4.879   6.974 -1.6163  2.1183 -0.6795
 1070TIP3    H224774   2.923   4.932   6.883  0.6705 -0.7031  0.2470
 1071TIP3   OH224775   2.021   1.858   0.792  1.3092  0.0326 -0.6552
 1071TIP3    H124776   2.083   1.787   0.808  0.6895 -0.3366  0.1931
 1071TIP3    H224777   1.977   1.870   0.876 -0.0862 -0.0177 -1.3656
 1072TIP3   OH224778   2.806   5.699   1.177  0.3202 -0.1265 -0.3862
 1072TIP3    H124779   2.780   5.791   1.184  0.4202 -0.1966  1.1144
 1072TIP3    H224780   2.901   5.701   1.170  0.4353 -0.1642  1.0337
 1073TIP3   OH224781   6.462   3.942   0.293  0.0747 -0.2878  0.2102
 1073TIP3    H124782   6.374   3.968   0.267  0.3370 -0.2436 -0.6489
 1073TIP3    H224783   6.515   4.021   0.285 -0.2486  0.3327  3.0174
 1074TIP3   OH224784   6.058   0.382   0.346 -0.1175 -0.1314  0.2117
 1074TIP3    H124785   6.063   0.287   0.341 -2.4663 -0.2770 -0.6719
 1074TIP3    H224786   6.081   0.403   0.436  2.9861 -1.2418 -0.2020
 1075TIP3   OH224787   0.218   3.211   8.112  0.1865 -0.2332  0.1570
 1075TIP3    H124788   0.298   3.211   8.164  0.8455  1.6490 -0.7569
 1075TIP3    H224789   0.182   3.299   8.124 -1.1240 -0.6740 -0.3786
 1076TIP3   OH224790   6.233   5.554   1.654 -0.4095  0.1270  0.2775
 1076TIP3    H124791   6.151   5.583   1.693 -0.1298 -0.8765  1.7248
 1076TIP3    H224792   6.290   5.538   1.729  1.2723  1.2033 -0.6998
 1077TIP3   OH224793   6.437   3.993   1.349 -0.2489  0.7999 -0.0592
 1077TIP3    H124794   6.397   3.916   1.309  1.1057  0.6970 -1.2979
 1077TIP3    H224795   6.531   3.977   1.346  0.0915  2.5823 -0.5857
 1078TIP3   OH224796   3.720   6.956   8.363  0.2636  0.1353  0.1789
 1078TIP3    H124797   3.793   6.927   8.417 -2.1623 -1.8709  2.6627
 1078TIP3    H224798   3.656   6.885   8.368 -1.9909  1.8511 -1.6866
 1079TIP3   OH224799   0.698   1.048   0.385 -0.2550  0.4484  0.1286
 1079TIP3    H124800   0.771   0.987   0.380 -0.5201  0.2692 -2.9105
 1079TIP3    H224801   0.697   1.093   0.301 -1.1072  3.5080  1.6132
 1080TIP3   OH224802   6.038   1.711   0.222  0.8871 -0.3301 -0.6772
 1080TIP3    H124803   5.984   1.662   0.160  0.2427 -1.4402  0.7055
 1080TIP3    H224804   5.975   1.763   0.272  1.0148 -1.7755  1.0805
 1081TIP3   OH224805   6.927   4.576   0.475 -0.7211 -0.3895 -0.2766
 1081TIP3    H124806   6.937   4.668   0.452 -2.7376 -0.1476 -0.2880
 1081TIP3    H224807   6.927   4.575   0.571 -1.4402 -0.2711 -0.2703
 1082TIP3   OH224808   4.977   2.950   7.567 -0.0598 -0.2820 -0.2118
 1082TIP3    H124809   4.988   2.872   7.621 -0.9348 -0.0362  0.3242
 1082TIP3    H224810   4.898   2.992   7.600 -0.0878  0.3694 -1.0723
 1083TIP3   OH224811   6.185   5.077   8.226  0.2011 -0.0917 -0.1052
 1083TIP3    H124812   6.270   5.034   8.217  0.8895  0.9019  1.3551
 1083TIP3    H224813   6.125   5.007   8.252  0.9062 -0.5235  0.3763
 1084TIP3   OH224814   0.500   1.678   7.487  0.2237  0.3322  0.2079
 1084TIP3    H124815   0.568   1.711   7.427  1.5215 -0.6913  1.0390
 1084TIP3    H224816   0.422   1.727   7.464  0.9232  0.6675 -1.6678
 1085TIP3   OH224817   6.044   5.560   8.093  0.5940  0.0732  0.1255
 1085TIP3    H124818   6.102   5.484   8.089 -0.5594 -0.7940 -0.9459
 1085TIP3    H224819   5.990   5.553   8.014  0.5132  2.0612 -0.0313
 1086TIP3   OH224820   6.357   6.159   1.455  0.1485 -0.0857 -0.1777
 1086TIP3    H124821   6.284   6.216   1.430  0.5160  0.0692 -0.9503
 1086TIP3    H224822   6.316   6.083   1.496 -0.4322  0.1058 -0.3917
 1087TIP3   OH224823   0.664   1.455   7.589  0.5675  0.1970  0.1174
 1087TIP3    H124824   0.623   1.524   7.537 -0.0010  0.0679  0.3786
 1087TIP3    H224825   0.624   1.374   7.557  0.6817  0.0588  0.3215
 1088TIP3   OH224826   0.700   2.564   7.042 -0.4218 -0.5065  0.2627
 1088TIP3    H124827   0.650   2.492   7.004  0.8253 -0.8682 -0.7506
 1088TIP3    H224828   0.731   2.614   6.967 -0.0026  0.2134  0.9045
 1089TIP3   OH224829   6.795   2.834   6.537  0.1055  0.4026  0.1463
 1089TIP3    H124830   6.770   2.905   6.478 -1.1596 -0.8452 -0.8624
 1089TIP3    H224831   6.888   2.819   6.518 -0.0960  0.5208 -0.9857
 1090TIP3   OH224832   4.882   3.865   6.872 -0.3560  0.3083  0.3377
 1090TIP3    H124833   4.902   3.798   6.806 -1.8125 -0.9552  1.1008
 1090TIP3    H224834   4.944   3.935   6.855 -0.5990 -0.0293 -2.2911
 1091TIP3   OH224835   0.366   3.498   6.946  0.6192 -0.3831  0.7913
 1091TIP3    H124836   0.340   3.589   6.960  0.4075 -0.0964 -1.1890
 1091TIP3    H224837   0.453   3.503   6.907  0.3714 -0.9823  0.1384
 1092TIP3   OH224838   6.583   4.568   1.507 -0.1308  0.1226  0.5224
 1092TIP3    H124839   6.573   4.657   1.474  0.3939  1.3899  3.4006
 1092TIP3    H224840   6.499   4.526   1.491 -0.2417  0.9675 -1.2906
 1093TIP3   OH224841   5.406   4.448   6.385  0.5975  0.3097 -0.3874
 1093TIP3    H124842   5.451   4.517   6.434 -0.8225  0.0043  1.4489
 1093TIP3    H224843   5.329   4.491   6.348  1.0933  0.2866 -1.4697
 1094TIP3   OH224844   4.275   1.879   7.057  0.4796  0.0235 -0.0088
 1094TIP3    H124845   4.273   1.844   6.968  0.7893 -3.1986  1.1336
 1094TIP3    H224846   4.367   1.871   7.084 -0.3549 -4.4231  2.3731
 1095TIP3   OH224847   0.274   4.953   1.149 -0.1196 -0.9370  0.4131
 1095TIP3    H124848   0.259   4.860   1.132  1.4452 -1.1218 -0.0635
 1095TIP3    H224849   0.354   4.974   1.101  0.2454  0.3556  1.5209
 1096TIP3   OH224850   6.840   4.358   6.874  0.0579 -0.3407  0.0698
 1096TIP3    H124851   6.913   4.308   6.839  0.1523 -0.1464 -0.0128
 1096TIP3    H224852   6.876   4.445   6.892  0.4327 -0.8947  2.2158
 1097TIP3   OH224853   4.516   0.922   7.748 -0.4510 -0.1548  0.4914
 1097TIP3    H124854   4.437   0.871   7.733 -1.0240  0.8532  0.0044
 1097TIP3    H224855   4.552   0.887   7.830  1.3152 -4.0038 -1.6259
 1098TIP3   OH224856   6.659   1.617   6.815  0.3906  0.3963  0.3295
 1098TIP3    H124857   6.576   1.571   6.804 -1.5867  2.6499  3.8135
 1098TIP3    H224858   6.698   1.578   6.893  0.0731  2.5254  1.6352
 1099TIP3   OH224859   2.645   0.239   6.591  0.2078 -0.5126  0.3634
 1099TIP3    H124860   2.678   0.270   6.507  1.5779  0.2349  1.1322
 1099TIP3    H224861   2.718   0.191   6.630  0.0152  0.1583  1.6110
 1100TIP3   OH224862   1.406   2.835   6.829  0.1193 -0.5029  0.2111
 1100TIP3    H124863   1.419   2.929   6.841 -1.7943 -0.3263  1.3434
 1100TIP3    H224864   1.377   2.804   6.915  3.5425 -2.7234  0.7513
 1101TIP3   OH224865   5.672   3.824   0.530 -0.3713  0.3884  0.5138
 1101TIP3    H124866   5.757   3.814   0.486 -0.6918 -1.4556  0.2020
 1101TIP3    H224867   5.608   3.805   0.463 -1.0843  2.1012  0.6673
 1102TIP3   OH224868   1.566   0.238   0.747  0.3631  0.3148  0.3163
 1102TIP3    H124869   1.565   0.142   0.747  2.1275  0.2588  0.0646
 1102TIP3    H224870   1.573   0.262   0.840  1.9532  0.0951  0.2897
 1103TIP3   OH224871   1.621   6.986   8.057 -0.0580 -0.2516  0.2474
 1103TIP3    H124872   1.663   6.935   7.987  1.2340  1.0460  0.0296
 1103TIP3    H224873   1.680   7.060   8.071 -0.7528  0.0031  2.0997
 1104TIP3   OH224874   4.345   2.142   0.359 -0.3611 -0.2928  0.1650
 1104TIP3    H124875   4.334   2.209   0.427 -0.7731 -0.8004  0.6108
 1104TIP3    H224876   4.256   2.128   0.326 -0.7276 -2.4178  1.8340
 1105TIP3   OH224877   5.470   2.358   7.454  0.4632  0.2643 -0.2886
 1105TIP3    H124878   5.503   2.280   7.499 -0.2508 -0.1318 -0.4265
 1105TIP3    H224879   5.377   2.361   7.477  0.8831  2.3668  1.5709
 1106TIP3   OH224880   1.758   5.828   2.114  0.2475 -0.2579 -0.0974
 1106TIP3    H124881   1.812   5.780   2.052  0.6688  0.1267 -0.0293
 1106TIP3    H224882   1.672   5.785   2.109  0.6308 -1.0528  0.0099
 1107TIP3   OH224883   2.069   1.711   6.224  0.3588  0.2041  0.5789
 1107TIP3    H124884   2.157   1.729   6.256  2.1677 -2.7841 -2.0880
 1107TIP3    H224885   2.065   1.756   6.139 -0.5609  0.0215  0.5212
 1108TIP3   OH224886   4.208   3.717   6.958  0.2585  0.1164 -0.6350
 1108TIP3    H124887   4.213   3.675   6.872  0.1622 -0.5507 -0.3168
 1108TIP3    H224888   4.225   3.810   6.940 -0.2913  0.0739 -1.4494
 1109TIP3   OH224889   6.949   2.308   1.078  0.2234  0.0050 -0.9752
 1109TIP3    H124890   7.003   2.372   1.125  2.2800 -1.8596 -0.6318
 1109TIP3    H224891   6.948   2.231   1.135 -0.4538 -0.9862 -2.2845
 1110TIP3   OH224892   4.100   4.121   7.923 -0.1487  0.3870 -0.5211
 1110TIP3    H124893   4.143   4.204   7.939 -1.1885  0.6615  1.0175
 1110TIP3    H224894   4.010   4.144   7.900  0.3011 -0.1942 -3.2232
 1111TIP3   OH224895   2.430   0.285   1.467 -0.0832  0.3631 -0.4513
 1111TIP3    H124896   2.390   0.229   1.400  0.4080  0.1537 -0.5724
 1111TIP3    H224897   2.462   0.361   1.419  0.7533 -0.0349 -0.5485
 1112TIP3   OH224898   0.066   2.559   0.225  0.2282 -0.2912  0.1661
 1112TIP3    H124899   0.018   2.531   0.148  1.2883 -0.5469 -0.4271
 1112TIP3    H224900   0.093   2.649   0.205  0.7856 -0.4705  0.0867
 1113TIP3   OH224901   3.896   4.031   1.626  0.0752  0.5161 -0.4258
 1113TIP3    H124902   3.897   4.025   1.721  0.9251  0.8063 -0.4089
 1113TIP3    H224903   3.818   4.084   1.606  0.9523  2.1454  0.2268
 1114TIP3   OH224904   5.638   5.727   0.558  0.2582 -0.3718 -0.1770
 1114TIP3    H124905   5.725   5.694   0.538  0.6968 -0.3236  1.5019
 1114TIP3    H224906   5.652   5.794   0.625 -1.1090 -0.7774  0.5669
 1115TIP3   OH224907   0.174   5.598   1.352 -0.0029  0.2927 -0.3316
 1115TIP3    H124908   0.247   5.544   1.320 -0.6947 -0.3608 -0.8565
 1115TIP3    H224909   0.153   5.655   1.278  1.2030  1.8476  0.4648
 1116TIP3   OH224910   6.809   4.951   1.361  0.2249  0.1842 -0.2039
 1116TIP3    H124911   6.838   5.041   1.373 -3.6981  1.4544  1.4093
 1116TIP3    H224912   6.845   4.905   1.437  0.7763  0.8145 -0.0722
 1117TIP3   OH224913   5.283   3.930   7.889  0.0156  0.0259 -0.4441
 1117TIP3    H124914   5.266   4.024   7.882  0.3120  0.1167  0.0397
 1117TIP3    H224915   5.361   3.915   7.836 -0.3009 -0.0289 -0.9012
 1118TIP3   OH224916   4.835   0.744   1.180 -0.5036  0.4358  0.7985
 1118TIP3    H124917   4.895   0.678   1.214 -0.2194  0.8699  1.1491
 1118TIP3    H224918   4.890   0.804   1.129 -0.9760 -0.3967 -0.7437
 1119TIP3   OH224919   1.880   2.456   8.133  0.5332 -0.0558 -0.2422
 1119TIP3    H124920   1.954   2.462   8.194  1.6110 -2.0221 -1.2519
 1119TIP3    H224921   1.883   2.366   8.101 -1.4644  0.2317 -1.4129
 1120TIP3   OH224922   2.872   6.747   7.831 -0.1075 -0.3549 -0.4696
 1120TIP3    H124923   2.905   6.702   7.910  1.3198  1.0954 -0.1928
 1120TIP3    H224924   2.949   6.789   7.794 -1.1562  0.7101 -1.4917
 1121TIP3   OH224925   4.737   6.146   6.625  0.1744  0.1604 -0.8644
 1121TIP3    H124926   4.783   6.202   6.562  1.9663 -0.2177  0.0364
 1121TIP3    H224927   4.804   6.085   6.656 -0.4666  0.6694  1.7990
 1122TIP3   OH224928   6.741   4.049   0.063 -0.3885  0.4869 -0.5756
 1122TIP3    H124929   6.829   4.080   0.042 -0.4250 -0.0611 -1.6173
 1122TIP3    H224930   6.698   4.124   0.103  1.0989  0.2380  1.6710
 1123TIP3   OH224931   2.655   3.105   1.842 -0.4128  0.2769  0.0862
 1123TIP3    H124932   2.614   3.020   1.857  0.2508 -0.0496  0.0629
 1123TIP3    H224933   2.749   3.087   1.841 -0.3013  0.6248 -2.1455
 1124TIP3   OH224934   1.080   6.968   8.302  0.3216  0.1344 -0.5895
 1124TIP3    H124935   1.122   6.884   8.320 -1.1029 -0.0360  2.5718
 1124TIP3    H224936   1.105   7.024   8.376 -1.8671  1.2481 -0.6242
 1125TIP3   OH224937   5.257   6.989   8.291  0.2867  0.2962 -0.2872
 1125TIP3    H124938   5.343   7.020   8.262  0.2032  1.8050  0.9594
 1125TIP3    H224939   5.195   7.048   8.249  0.0053  0.6301  0.5820
 1126TIP3   OH224940   4.236   3.713   0.135  0.0821  0.4933  0.0200
 1126TIP3    H124941   4.274   3.713   0.223 -0.9067  1.2609  0.4696
 1126TIP3    H224942   4.157   3.660   0.143 -0.6706  1.5708 -0.0866
 1127TIP3   OH224943   6.809   1.688   6.320  0.6640  0.5538 -0.0194
 1127TIP3    H124944   6.761   1.618   6.364 -0.4744  0.9365 -0.6041
 1127TIP3    H224945   6.895   1.651   6.302 -0.0403 -0.8338 -0.6587
 1128TIP3   OH224946   1.869   1.268   0.921  0.2341 -0.0682  0.2541
 1128TIP3    H124947   1.804   1.325   0.880  0.0947 -1.0198 -0.9045
 1128TIP3    H224948   1.918   1.230   0.848  0.7530 -0.9210  1.0153
 1129TIP3   OH224949   1.467   1.538   7.413  0.0267 -0.0763  0.5801
 1129TIP3    H124950   1.462   1.597   7.488 -2.0200 -0.2873  0.6639
 1129TIP3    H224951   1.376   1.521   7.389  0.6016 -0.1638 -1.8542
 1130TIP3   OH224952   2.313   1.615   7.745 -0.2764 -0.1747  0.2459
 1130TIP3    H124953   2.232   1.609   7.695 -0.6621  1.2021  0.6550
 1130TIP3    H224954   2.288   1.663   7.824  1.0692  0.8646  0.0705
 1131TIP3   OH224955   1.263   6.867   2.001 -0.1010  0.2710 -0.6990
 1131TIP3    H124956   1.336   6.909   1.955 -0.8450  3.0285  0.4551
 1131TIP3    H224957   1.185   6.913   1.970 -1.1795 -1.3970 -0.5539
 1132TIP3   OH224958   5.669   5.731   1.736  0.2296 -0.3334 -0.0695
 1132TIP3    H124959   5.599   5.700   1.678 -0.0511  0.3377 -0.1112
 1132TIP3    H224960   5.732   5.660   1.739 -1.3054 -1.7140  1.3959
 1133TIP3   OH224961   1.898   5.734   0.646  0.4262 -1.0600 -0.3783
 1133TIP3    H124962   1.973   5.768   0.696  1.1880 -2.4232 -0.5404
 1133TIP3    H224963   1.837   5.808   0.642  1.6492  0.0219 -0.0352
 1134TIP3   OH224964   0.592   4.238   2.112  0.6214 -0.1365  0.0669
 1134TIP3    H124965   0.611   4.264   2.202 -2.3345  0.1772  0.7019
 1134TIP3    H224966   0.586   4.142   2.115  0.1704 -0.1002  0.2763
 1135TIP3   OH224967   4.168   4.790   6.817  0.0543  0.2786 -0.3161
 1135TIP3    H124968   4.263   4.799   6.807 -0.0362 -0.1982 -1.8486
 1135TIP3    H224969   4.157   4.712   6.871  0.5359  0.4364  0.0139
 1136TIP3   OH224970   2.425   1.801   0.801 -0.4130 -0.4296  0.9621
 1136TIP3    H124971   2.385   1.849   0.728  1.5818 -0.9391 -0.5650
 1136TIP3    H224972   2.403   1.709   0.783  0.5346 -0.6069  0.6898
 1137TIP3   OH224973   1.711   3.544   7.447 -0.2718 -0.6326 -0.8524
 1137TIP3    H124974   1.792   3.496   7.464 -0.3489  0.0275  1.7437
 1137TIP3    H224975   1.716   3.621   7.504 -2.1862  0.0857 -1.5592
 1138TIP3   OH224976   2.012   1.989   2.280 -0.0772  0.5922  0.6758
 1138TIP3    H124977   1.983   1.989   2.188 -0.3552  0.3510  0.7621
 1138TIP3    H224978   1.948   2.043   2.326  0.9992  2.1441  0.4488
 1139TIP3   OH224979   5.225   1.314   8.070 -0.3459 -0.6129  0.0791
 1139TIP3    H124980   5.320   1.322   8.080 -0.4023 -0.4705  0.5215
 1139TIP3    H224981   5.213   1.236   8.016  0.0588 -0.0027 -0.9176
 1140TIP3   OH224982   3.941   2.644   7.775  0.0110  0.1794  0.0390
 1140TIP3    H124983   3.980   2.662   7.861 -0.1919 -2.4587  0.7760
 1140TIP3    H224984   3.867   2.703   7.769  0.4887  0.9536  1.3328
 1141TIP3   OH224985   2.488   4.583   8.185  0.3499  0.2090 -0.8489
 1141TIP3    H124986   2.488   4.631   8.268  2.9196  0.8042 -1.0964
 1141TIP3    H224987   2.477   4.491   8.211  0.2354  0.4744  0.0873
 1142TIP3   OH224988   4.353   1.312   7.066 -0.4768  0.2156 -0.2204
 1142TIP3    H124989   4.403   1.329   6.986  1.5593 -1.5797  0.5643
 1142TIP3    H224990   4.349   1.397   7.109  0.8629  0.6771 -0.9255
 1143TIP3   OH224991   3.645   0.289   1.313 -0.2281 -0.2190 -0.3578
 1143TIP3    H124992   3.627   0.346   1.239 -2.0591 -1.5492 -1.0139
 1143TIP3    H224993   3.573   0.226   1.313  1.7390 -2.6524  0.2047
 1144TIP3   OH224994   2.928   0.452   0.698  0.2615  0.9637  0.4518
 1144TIP3    H124995   2.861   0.400   0.743 -0.9461  0.3674 -1.8759
 1144TIP3    H224996   3.010   0.431   0.744 -0.3283 -2.3318  0.2275
 1145TIP3   OH224997   1.475   2.290   0.643  0.9042 -0.3696 -0.1863
 1145TIP3    H124998   1.461   2.297   0.549  0.4088 -1.2919 -0.1926
 1145TIP3    H224999   1.538   2.218   0.653 -1.2322 -2.3089  0.2954
 1146TIP3   OH225000   1.963   0.835   0.253 -0.0487  0.0163 -0.3717
 1146TIP3    H125001   1.960   0.750   0.208 -0.5610 -0.7712  1.0966
 1146TIP3    H225002   2.039   0.829   0.310 -1.1109 -0.1911  1.0823
 1147TIP3   OH225003   6.750   4.957   0.252 -0.2286  0.4832 -0.2892
 1147TIP3    H125004   6.686   4.973   0.183  1.8804 -0.7477 -2.7237
 1147TIP3    H225005   6.749   4.862   0.264  1.5829  0.3405 -0.9309
 1148TIP3   OH225006   4.831   5.979   0.337 -0.3111 -0.5647 -0.0252
 1148TIP3    H125007   4.810   6.022   0.254 -1.9383 -2.3625 -0.6047
 1148TIP3    H225008   4.878   5.900   0.312 -0.0363 -0.6884  0.8427
 1149TIP3   OH225009   5.304   2.834   0.940 -0.1362 -0.4201 -0.5787
 1149TIP3    H125010   5.238   2.875   0.884  1.1449  2.4095 -0.1684
 1149TIP3    H225011   5.381   2.825   0.883  0.1529 -0.6567 -0.1561
 1150TIP3   OH225012   0.412   5.749   1.386 -0.0926 -0.2527 -0.5837
 1150TIP3    H125013   0.413   5.778   1.295  3.2183 -0.6829 -0.8085
 1150TIP3    H225014   0.350   5.807   1.429 -0.4848  1.0736 -2.7731
 1151TIP3   OH225015   5.938   3.539   0.428  0.3504 -0.2144 -0.6576
 1151TIP3    H125016   5.966   3.455   0.392 -0.6485 -0.5865 -0.6128
 1151TIP3    H225017   5.842   3.534   0.428  0.2907  0.6971 -0.1149
 1152TIP3   OH225018   4.903   5.610   0.069  0.4322 -0.0701  0.3825
 1152TIP3    H125019   4.932   5.697   0.096  2.9396 -1.1126  1.3910
 1152TIP3    H225020   4.968   5.582   0.004 -0.5160 -1.0622 -0.1636
 1153TIP3   OH225021   2.626   3.287   2.060  0.6646 -0.9420  0.4685
 1153TIP3    H125022   2.636   3.244   1.975 -0.9970  0.4493 -0.4873
 1153TIP3    H225023   2.704   3.342   2.068 -0.0380  0.3715 -1.0958
 1154TIP3   OH225024   3.156   5.360   8.221 -0.0396 -0.5665  0.1573
 1154TIP3    H125025   3.088   5.342   8.156 -1.5559  2.2590  0.7930
 1154TIP3    H225026   3.110   5.358   8.305  0.3185  2.3494  0.5287
 1155TIP3   OH225027   2.481   4.375   0.170 -0.6014  0.0417  0.1473
 1155TIP3    H125028   2.434   4.313   0.226  0.6848  0.4831  1.8125
 1155TIP3    H225029   2.434   4.458   0.180  0.1594  0.3553  1.3981
 1156TIP3   OH225030   2.576   1.448   7.854  0.2485 -0.0959 -0.1270
 1156TIP3    H125031   2.587   1.540   7.828 -0.3397  0.0385  0.1025
 1156TIP3    H225032   2.576   1.400   7.771  0.8097  0.0797 -0.2356
 1157TIP3   OH225033   2.537   5.974   8.043  0.3739 -0.5852  0.3433
 1157TIP3    H125034   2.567   5.906   8.103  1.1839 -2.2116 -1.7450
 1157TIP3    H225035   2.459   5.937   8.002  1.0527 -0.4737 -1.1180
 1158TIP3   OH225036   1.576   3.091   1.069 -0.5774 -0.1635  0.0927
 1158TIP3    H125037   1.606   3.102   0.978  0.3826 -2.4860  0.0567
 1158TIP3    H225038   1.481   3.099   1.064 -0.6111 -1.0358 -1.2741
 1159TIP3   OH225039   2.714   4.490   7.058 -0.4603  0.6259  0.0847
 1159TIP3    H125040   2.629   4.473   7.018 -0.2761  0.6767 -0.3318
 1159TIP3    H225041   2.778   4.463   6.992 -0.1392 -0.1277  0.6804
 1160TIP3   OH225042   3.467   5.649   6.538 -0.3008  0.4977  0.8260
 1160TIP3    H125043   3.501   5.735   6.515 -1.8127  0.9530  0.1144
 1160TIP3    H225044   3.455   5.605   6.454  0.7320 -0.5351  1.1977
 1161TIP3   OH225045   2.280   3.579   1.085 -0.5193  0.0398 -0.0025
 1161TIP3    H125046   2.276   3.525   1.006 -3.5495  0.3120 -0.1437
 1161TIP3    H225047   2.339   3.651   1.062 -0.0483 -0.7585 -1.4062
 1162TIP3   OH225048   6.540   6.788   6.800 -0.9138  0.1780  0.0986
 1162TIP3    H125049   6.454   6.831   6.796 -0.6267  0.8243  0.6317
 1162TIP3    H225050   6.552   6.767   6.892 -2.1080 -3.3418 -0.3949
 1163TIP3   OH225051   1.782   0.023   1.637 -0.7488  0.5049  0.4313
 1163TIP3    H125052   1.760   0.115   1.651  0.3687  0.8628 -0.0692
 1163TIP3    H225053   1.710  -0.011   1.583  0.1601  1.8112 -1.7435
 1164TIP3   OH225054   2.865   4.410   0.765  0.5024 -0.1336 -0.1382
 1164TIP3    H125055   2.914   4.329   0.751 -0.0467 -0.3312 -0.9919
 1164TIP3    H225056   2.799   4.387   0.831  0.5791 -0.2769 -0.1112
 1165TIP3   OH225057   6.056   6.977   0.434 -0.8436 -0.0885 -0.5576
 1165TIP3    H125058   6.093   6.907   0.488  1.4809  1.3586 -0.1480
 1165TIP3    H225059   5.984   7.012   0.486 -0.2015 -0.3202  0.5284
 1166TIP3   OH225060   0.279   3.612   7.692  0.1329  0.1034 -0.2312
 1166TIP3    H125061   0.244   3.535   7.736 -0.1656 -0.2737 -1.1042
 1166TIP3    H225062   0.208   3.642   7.634  0.6992  0.2469 -0.8705
 1167TIP3   OH225063   1.598   4.601   8.176  0.1405  0.0883  0.0058
 1167TIP3    H125064   1.586   4.696   8.182  2.0711  0.3960 -0.4674
 1167TIP3    H225065   1.537   4.566   8.241 -0.3592  1.6709  0.4425
 1168TIP3   OH225066   2.380   0.448   7.695 -0.1077  0.4810  0.1636
 1168TIP3    H125067   2.438   0.373   7.711 -0.4185  0.2940  0.4232
 1168TIP3    H225068   2.314   0.415   7.634 -0.5080  0.4133  0.6315
 1169TIP3   OH225069   2.980   4.095   8.227  0.1082  0.2480 -0.3571
 1169TIP3    H125070   2.891   4.129   8.213 -0.2286 -0.4447  0.0348
 1169TIP3    H225071   2.990   4.091   8.322 -0.2227 -1.6114 -0.3659
 1170TIP3   OH225072   0.263   1.052   6.253 -0.3047  0.4633  0.2679
 1170TIP3    H125073   0.175   1.044   6.292 -1.1679  0.6764 -1.5246
 1170TIP3    H225074   0.290   1.141   6.276 -0.1917  0.1353  1.4954
 1171TIP3   OH225075   5.661   3.354   8.279 -0.7655  0.2171  0.3821
 1171TIP3    H125076   5.647   3.428   8.221 -1.1189  0.0638  0.2661
 1171TIP3    H225077   5.656   3.390   8.367  1.2874  0.7342  0.3457
 1172TIP3   OH225078   4.591   4.546   7.453 -0.3769  0.1048 -0.1012
 1172TIP3    H125079   4.534   4.540   7.377  1.3511 -1.7263 -1.3585
 1172TIP3    H225080   4.660   4.608   7.427 -1.1737  1.5550  1.0417
 1173TIP3   OH225081   0.958   4.762   0.255 -0.0096 -0.0945  0.4264
 1173TIP3    H125082   0.909   4.834   0.295 -0.0885  0.6656 -0.9721
 1173TIP3    H225083   1.040   4.759   0.303  0.4819  1.7149 -0.2050
 1174TIP3   OH225084   6.915   3.582   8.157  0.3024 -0.1303  0.7324
 1174TIP3    H125085   6.984   3.526   8.193 -0.7884 -1.2331  1.2152
 1174TIP3    H225086   6.914   3.659   8.214  1.7350  0.3536  0.1434
 1175TIP3   OH225087   1.831   6.694   6.616 -0.1040 -0.2223 -0.2739
 1175TIP3    H125088   1.865   6.776   6.652 -0.6135 -0.0899 -0.0818
 1175TIP3    H225089   1.854   6.696   6.524 -0.8863  0.5595 -0.4733
 1176TIP3   OH225090   1.716   4.846   7.585  0.4346  0.6130  0.3195
 1176TIP3    H125091   1.682   4.933   7.563 -0.0331  0.3326 -0.0913
 1176TIP3    H225092   1.704   4.795   7.504  0.0577 -0.0235  0.7673
 1177TIP3   OH225093   3.835   4.060   0.135 -0.1526  0.6868  0.1565
 1177TIP3    H125094   3.891   4.000   0.084  0.0560  1.1370 -0.1482
 1177TIP3    H225095   3.860   4.147   0.105  1.1703  1.0849  2.1745
 1178TIP3   OH225096   1.719   0.834   2.240  0.0002  0.1135  0.2539
 1178TIP3    H125097   1.649   0.773   2.264 -0.5030  0.9914  1.0988
 1178TIP3    H225098   1.796   0.804   2.289  0.6602 -1.6922 -1.7371
 1179TIP3   OH225099   6.079   6.053   0.222  0.2783  0.6183 -0.1615
 1179TIP3    H125100   5.992   6.066   0.259 -0.4264 -0.3404 -1.3846
 1179TIP3    H225101   6.074   5.967   0.180  2.3543 -0.2370  1.1898
 1180TIP3   OH225102   0.689   6.785   1.082  0.3747 -0.3817  0.4188
 1180TIP3    H125103   0.615   6.804   1.139  1.3217 -1.6065  2.1523
 1180TIP3    H225104   0.665   6.705   1.037 -0.9386  1.2809 -2.0426
 1181TIP3   OH225105   2.129   5.007   1.552 -0.0498  0.4875 -0.6945
 1181TIP3    H125106   2.094   5.062   1.481  0.2442  0.3937 -0.9142
 1181TIP3    H225107   2.164   4.930   1.507 -0.8550 -0.0981 -0.3594
 1182TIP3   OH225108   1.787   0.944   6.631 -0.3392 -0.5435  0.1612
 1182TIP3    H125109   1.856   0.930   6.696 -0.5269  2.2497  1.0976
 1182TIP3    H225110   1.715   0.889   6.660  1.3222 -3.3685 -0.7193
 1183TIP3   OH225111   2.277   4.261   6.935 -0.1332 -0.0592 -0.4462
 1183TIP3    H125112   2.213   4.326   6.907 -2.0581 -1.1357  1.2504
 1183TIP3    H225113   2.245   4.178   6.901  1.3018 -0.4223 -1.0092
 1184TIP3   OH225114   4.457   3.138   8.311  0.6214  0.7858 -0.4533
 1184TIP3    H125115   4.498   3.074   8.370  0.1847  0.9002 -0.0175
 1184TIP3    H225116   4.365   3.136   8.335  0.2694  0.1854 -1.7334
 1185TIP3   OH225117   0.666   1.195   7.081  0.5138  0.7302 -0.0925
 1185TIP3    H125118   0.646   1.276   7.128  1.9247  1.5311 -0.8007
 1185TIP3    H225119   0.591   1.182   7.022 -0.1454  1.0055  0.6662
 1186TIP3   OH225120   0.962   2.405   8.149 -0.0016 -0.0840 -0.5199
 1186TIP3    H125121   0.957   2.342   8.221  0.8585 -1.6879 -1.7943
 1186TIP3    H225122   0.912   2.481   8.180  1.6086 -0.0456  2.3816
 1187TIP3   OH225123   4.351   5.942   7.128 -0.0684 -0.0033 -0.8243
 1187TIP3    H125124   4.384   5.855   7.152 -1.4610 -0.6861 -1.2918
 1187TIP3    H225125   4.320   5.932   7.038 -5.2322 -0.6114  0.7116
 1188TIP3   OH225126   1.693   1.677   0.325 -0.1579 -0.3421  0.1610
 1188TIP3    H125127   1.765   1.627   0.365  0.1982 -0.8112 -1.0187
 1188TIP3    H225128   1.713   1.768   0.345  0.6045 -0.4887  0.1255
 1189TIP3   OH225129   6.624   0.196   0.624 -0.3098  0.8339  0.1723
 1189TIP3    H125130   6.554   0.155   0.676  0.5084 -1.2675 -0.2913
 1189TIP3    H225131   6.660   0.263   0.682 -2.2044  1.4857  0.6844
 1190TIP3   OH225132   5.240   4.276   6.965 -0.4099  0.2149  0.6539
 1190TIP3    H125133   5.324   4.263   6.920 -1.3011  1.0584 -1.3887
 1190TIP3    H225134   5.265   4.309   7.051  1.3689 -0.3433  0.4147
 1191TIP3   OH225135   1.497   6.658   1.520  0.6998  0.2609 -0.2755
 1191TIP3    H125136   1.563   6.628   1.583  1.1397 -1.2131 -1.4017
 1191TIP3    H225137   1.413   6.638   1.563  0.9184  2.0790  1.1317
 1192TIP3   OH225138   0.149   5.707   6.719  0.4713 -0.3795 -0.4233
 1192TIP3    H125139   0.226   5.660   6.750  0.5156 -0.3569 -0.4978
 1192TIP3    H225140   0.170   5.800   6.732 -1.0139 -0.3769  3.1311
 1193TIP3   OH225141   5.480   1.906   2.103 -0.3144  0.2090 -0.1341
 1193TIP3    H125142   5.487   1.991   2.145 -0.0852 -1.0740  2.6761
 1193TIP3    H225143   5.571   1.875   2.097 -0.4971 -0.4020  0.1697
 1194TIP3   OH225144   0.589   4.130   6.888 -0.0383  0.1405 -0.2682
 1194TIP3    H125145   0.618   4.213   6.926  1.0101 -0.1214 -0.4927
 1194TIP3    H225146   0.514   4.104   6.942  0.8654  0.2285  1.0715
 1195TIP3   OH225147   1.169   2.420   7.558 -0.0512 -0.2888 -0.1585
 1195TIP3    H125148   1.253   2.443   7.598 -0.2655 -2.7647  1.9750
 1195TIP3    H225149   1.105   2.474   7.605  0.1513  0.1654 -0.4037
 1196TIP3   OH225150   5.776   5.360   7.250 -0.3376  0.3697  0.0930
 1196TIP3    H125151   5.808   5.288   7.306 -0.3384 -0.2173 -0.6492
 1196TIP3    H225152   5.814   5.439   7.290 -2.1467  0.2507  2.2684
 1197TIP3   OH225153   6.141   5.477   0.355 -0.0681 -0.3977  0.1313
 1197TIP3    H125154   6.053   5.468   0.391 -0.5961  0.5496 -0.8883
 1197TIP3    H225155   6.196   5.497   0.431 -1.0135  0.7101  0.5395
 1198TIP3   OH225156   2.287   5.572   7.723  0.3714 -0.2493 -0.0015
 1198TIP3    H125157   2.207   5.623   7.733 -0.1192 -1.2839  1.7729
 1198TIP3    H225158   2.278   5.531   7.637 -0.0607  1.1824 -0.6655
 1199TIP3   OH225159   5.964   5.130   6.823 -0.3892  0.2839 -0.2100
 1199TIP3    H125160   5.889   5.099   6.772 -1.6273  0.7590  1.2651
 1199TIP3    H225161   5.935   5.212   6.861  0.4566 -0.0989  1.3253
 1200TIP3   OH225162   2.711   0.615   8.315 -0.0543 -0.0028 -0.1590
 1200TIP3    H125163   2.795   0.658   8.329  0.2574 -0.6144 -0.1091
 1200TIP3    H225164   2.703   0.607   8.220  0.2930 -0.6088 -0.1420
 1201TIP3   OH225165   2.458   3.142   1.224 -0.7108 -0.4532 -0.3829
 1201TIP3    H125166   2.539   3.181   1.257 -0.0476 -0.1480 -2.2388
 1201TIP3    H225167   2.456   3.054   1.261  0.5489 -0.5075 -0.4106
 1202TIP3   OH225168   1.799   1.924   0.118 -0.2216  0.2192 -0.2927
 1202TIP3    H125169   1.841   1.987   0.059 -1.5705 -0.3305 -1.9201
 1202TIP3    H225170   1.759   1.859   0.060 -1.0864 -0.7067  1.2593
 1203TIP3   OH225171   4.282   2.162   7.791 -0.3258 -0.0731  0.0388
 1203TIP3    H125172   4.293   2.098   7.721  1.6867  0.6131 -0.3212
 1203TIP3    H225173   4.308   2.245   7.753 -2.0722  0.8644  0.7679
 1204TIP3   OH225174   6.361   0.143   6.555  0.2332 -0.0001 -0.0091
 1204TIP3    H125175   6.445   0.098   6.551 -0.2266 -0.9157  0.4309
 1204TIP3    H225176   6.296   0.073   6.545 -0.5096  0.4755  1.3419
 1205TIP3   OH225177   6.185   1.583   7.377 -0.0891 -0.0939 -0.4963
 1205TIP3    H125178   6.184   1.487   7.376  1.1995 -0.1288  0.1384
 1205TIP3    H225179   6.128   1.606   7.450 -1.0709 -0.3345 -1.1605
 1206TIP3   OH225180   5.821   1.952   7.542  0.0972  0.2815  0.5203
 1206TIP3    H125181   5.772   1.874   7.567  0.5536 -0.6587 -1.3109
 1206TIP3    H225182   5.831   2.002   7.623 -0.2600 -1.5334  1.7349
 1207TIP3   OH225183   3.792   0.992   0.371 -0.1769 -0.1035  0.2484
 1207TIP3    H125184   3.864   1.028   0.422 -1.4443  1.0443  1.3299
 1207TIP3    H225185   3.754   1.069   0.327  0.3576 -0.9385 -1.8023
 1208TIP3   OH225186   3.604   6.179   7.768  0.0998  0.1412  0.0125
 1208TIP3    H125187   3.575   6.222   7.849  0.2305 -1.7523  1.1125
 1208TIP3    H225188   3.642   6.250   7.716 -1.0960  1.6314  1.0602
 1209TIP3   OH225189   4.562   1.511   7.139 -0.0151  0.0169  0.3010
 1209TIP3    H125190   4.561   1.599   7.176 -1.2235 -0.6903  2.1322
 1209TIP3    H225191   4.608   1.458   7.204  1.4504 -0.6005 -1.1692
 1210TIP3   OH225192   4.241   1.012   8.300 -0.0879  0.1935 -0.3869
 1210TIP3    H125193   4.196   1.002   8.384  1.0548  1.2334  0.3940
 1210TIP3    H225194   4.173   1.039   8.239 -1.0819 -1.2923  0.0044
 1211TIP3   OH225195   0.675   0.569   6.611 -0.2342  0.4217 -0.2199
 1211TIP3    H125196   0.729   0.631   6.660  0.1286  0.2346 -0.3814
 1211TIP3    H225197   0.732   0.539   6.540 -0.2850 -0.3849  0.0730
 1212TIP3   OH225198   0.325   2.044   7.683  0.0207 -0.4549 -0.3493
 1212TIP3    H125199   0.348   2.125   7.729  1.4896 -0.6496 -0.6750
 1212TIP3    H225200   0.235   2.027   7.707  0.5134 -0.1539  1.8841
 1213TIP3   OH225201   2.260   5.045   7.551  0.2648 -0.1936  0.4340
 1213TIP3    H125202   2.308   5.070   7.472  0.6311 -0.5248  0.5432
 1213TIP3    H225203   2.261   4.949   7.549 -1.7820 -0.2447 -0.3898
 1214TIP3   OH225204   3.962   0.951   6.826 -0.6110  0.1973  0.2933
 1214TIP3    H125205   4.019   0.878   6.802  1.1581  0.8674  2.2181
 1214TIP3    H225206   3.877   0.928   6.788  0.4507 -1.7211 -1.1137
 1215TIP3   OH225207   3.819   6.605   7.495  0.0566  0.4433 -0.6733
 1215TIP3    H125208   3.910   6.636   7.490  0.5287 -0.0489  2.6892
 1215TIP3    H225209   3.824   6.514   7.464  0.9681  0.0792  0.4495
 1216TIP3   OH225210   3.468   3.884   7.323 -0.4474 -0.6097  0.1068
 1216TIP3    H125211   3.482   3.895   7.417 -1.0646 -2.8614  0.5270
 1216TIP3    H225212   3.513   3.802   7.301  0.3032  0.2202 -1.7531
 1217TIP3   OH225213   0.482   4.347   7.648  0.6234  0.5850  0.2211
 1217TIP3    H125214   0.451   4.435   7.623 -1.3981  0.1140  0.8361
 1217TIP3    H225215   0.528   4.361   7.730 -1.2925  0.9089  1.3123
 1218TIP3   OH225216   1.080   2.450   1.237 -0.3867  0.3806 -0.4052
 1218TIP3    H125217   1.140   2.394   1.188 -0.3426 -0.2930  0.3871
 1218TIP3    H225218   1.128   2.531   1.250 -0.0680  0.2427 -0.7198
 1219TIP3   OH225219   2.001   3.679   8.343  0.3018  0.3727  0.4662
 1219TIP3    H125220   1.988   3.649   8.253  0.2435  0.5336  0.4201
 1219TIP3    H225221   1.914   3.706   8.372 -0.4252 -2.8507  1.7548
 1220TIP3   OH225222   3.532   5.315   8.272  0.0549  0.0184  0.2636
 1220TIP3    H125223   3.603   5.347   8.328 -0.7170  0.8119  0.8161
 1220TIP3    H225224   3.502   5.392   8.224 -0.7572 -0.1891  0.4118
 1221TIP3   OH225225   4.083   5.257   7.256 -0.5724  0.4342 -0.2184
 1221TIP3    H125226   4.049   5.333   7.209 -0.4202  0.9254  0.4530
 1221TIP3    H225227   4.028   5.184   7.227  0.0526  0.5562 -1.7982
 1222TIP3   OH225228   2.950   2.554   6.057  0.4998  0.5135 -0.2336
 1222TIP3    H125229   2.857   2.553   6.038  0.3460  1.9246  0.3009
 1222TIP3    H225230   2.959   2.501   6.137  0.1911  0.1986 -0.4064
 1223TIP3   OH225231   5.443   1.226   0.259 -0.1812 -0.3085  0.3177
 1223TIP3    H125232   5.508   1.230   0.329 -0.4286  1.8944  0.4935
 1223TIP3    H225233   5.469   1.295   0.197 -2.0237  0.2923  0.1420
 1224TIP3   OH225234   3.613   6.219   7.092 -0.3143  0.2774 -0.0315
 1224TIP3    H125235   3.639   6.305   7.057  1.0718 -0.1817 -0.2070
 1224TIP3    H225236   3.597   6.234   7.185 -2.0830  1.1183 -0.4400
 1225TIP3   OH225237   4.508   4.054   0.184  0.3884 -0.2732  0.1247
 1225TIP3    H125238   4.478   4.113   0.114 -1.5583 -1.1873  0.1380
 1225TIP3    H225239   4.525   4.112   0.258  1.5917  0.6036 -0.7844
 1226TIP3   OH225240   1.579   3.136   1.685 -0.0264 -0.1874 -0.2888
 1226TIP3    H125241   1.557   3.162   1.774  2.5585 -1.0907  0.6965
 1226TIP3    H225242   1.505   3.082   1.657 -0.3304 -0.9744  1.8275
 1227TIP3   OH225243   3.483   2.643   0.114 -0.3889  0.0834 -0.0409
 1227TIP3    H125244   3.564   2.695   0.122 -0.2097 -0.1697 -0.2087
 1227TIP3    H225245   3.485   2.584   0.189 -0.1179 -0.3342 -0.3707
 1228TIP3   OH225246   3.923   1.695   7.996 -0.8796  0.3721  0.5972
 1228TIP3    H125247   3.980   1.719   8.069 -1.6754  0.8484  1.0684
 1228TIP3    H225248   3.966   1.732   7.919  1.0928 -1.8913  0.4824
 1229TIP3   OH225249   3.398   0.451   7.191  0.5602  0.0498  0.0092
 1229TIP3    H125250   3.464   0.385   7.214  0.9771  0.0492 -1.1545
 1229TIP3    H225251   3.434   0.533   7.226  1.0451  0.0046 -0.3785
 1230TIP3   OH225252   4.298   0.807   7.680  0.2669  0.6500  0.2459
 1230TIP3    H125253   4.221   0.825   7.734  1.9259  1.0143  2.6687
 1230TIP3    H225254   4.273   0.730   7.629 -1.5686  0.4849  1.2785
 1231TIP3   OH225255   4.079   5.354   6.348  1.0250 -0.0327 -0.1592
 1231TIP3    H125256   3.999   5.361   6.296  0.2633 -0.2114  0.9574
 1231TIP3    H225257   4.128   5.434   6.329 -0.4833  1.1704  0.8705
 1232TIP3   OH225258   6.467   4.708   1.197 -0.2424  0.0672  0.7170
 1232TIP3    H125259   6.394   4.764   1.224 -1.2111 -1.4915  1.4677
 1232TIP3    H225260   6.427   4.642   1.140  0.7912 -0.1454  0.2106
 1233TIP3   OH225261   2.618   1.681   8.336 -0.4898  0.0169  0.1979
 1233TIP3    H125262   2.544   1.628   8.305  0.6407 -1.0237 -0.7993
 1233TIP3    H225263   2.642   1.641   8.420  0.5813 -1.3536 -0.7097
 1234TIP3   OH225264   2.338   5.269   6.936  0.1178 -0.1810  0.3714
 1234TIP3    H125265   2.395   5.198   6.964 -0.2133 -0.4642  0.3328
 1234TIP3    H225266   2.350   5.337   7.002  1.5161  0.3190 -0.3402
 1235TIP3   OH225267   0.528   1.548   8.407  0.0867 -0.2418  0.1056
 1235TIP3    H125268   0.474   1.562   8.485  1.3508 -0.0402  0.9826
 1235TIP3    H225269   0.505   1.460   8.377 -0.2462 -0.4215  0.8581
 1236TIP3   OH225270   6.281   3.495   7.395 -0.2716  0.2270 -0.3951
 1236TIP3    H125271   6.267   3.579   7.439  0.0145 -0.0660  0.2718
 1236TIP3    H225272   6.194   3.456   7.389 -0.2485  0.0319  0.4137
 1237TIP3   OH225273   0.315   0.510   7.547 -0.1279 -0.6854  0.2897
 1237TIP3    H125274   0.404   0.536   7.570  0.1664 -1.6056  0.2055
 1237TIP3    H225275   0.325   0.454   7.471 -0.8532 -0.1548 -0.2126
 1238TIP3   OH225276   3.884   6.491   7.072  0.0378 -0.6105  0.2680
 1238TIP3    H125277   3.888   6.501   6.977 -1.5933 -0.4888  0.1914
 1238TIP3    H225278   3.791   6.490   7.093  0.3483 -1.5731  1.7824
 1239TIP3   OH225279   3.834   1.947   7.057  0.2557 -0.2874  0.2284
 1239TIP3    H125280   3.755   1.896   7.038 -0.8473 -0.0266  3.5484
 1239TIP3    H225281   3.828   2.024   6.999 -0.6200 -1.4264 -1.2616
 1240TIP3   OH225282   0.171   4.643   2.497 -0.1811 -0.4935  0.3556
 1240TIP3    H125283   0.146   4.681   2.414  1.5253 -2.0808 -0.9703
 1240TIP3    H225284   0.092   4.599   2.529 -1.7770  2.7389  1.2523
 1241TIP3   OH225285   3.108   6.948   1.313  0.0524 -0.2797 -0.5425
 1241TIP3    H125286   3.151   6.975   1.232  2.1198 -0.2913  0.4931
 1241TIP3    H225287   3.125   7.020   1.375  1.4622 -1.6875  0.8206
 1242TIP3   OH225288   1.112   5.953   7.928  0.0951 -0.3552 -0.6165
 1242TIP3    H125289   1.017   5.940   7.928 -0.0686  0.7412 -0.2219
 1242TIP3    H225290   1.134   5.968   8.020  0.4614  0.6045 -0.8458
 1243TIP3   OH225291   1.938   3.902   1.094 -0.1609 -0.1223 -0.3442
 1243TIP3    H125292   1.927   3.819   1.141  0.5704 -0.6975 -1.1700
 1243TIP3    H225293   1.941   3.878   1.002  0.0637  0.8329 -0.6020
 1244TIP3   OH225294   5.596   0.568   7.157  0.3111 -0.0137  0.2959
 1244TIP3    H125295   5.604   0.528   7.243  1.3348  1.4418  0.9231
 1244TIP3    H225296   5.507   0.602   7.154  0.7155  1.2311  1.4204
 1245TIP3   OH225297   1.260   1.722   2.111 -0.1469  0.1724  0.1277
 1245TIP3    H125298   1.259   1.682   2.024 -0.9436  1.7511 -0.6217
 1245TIP3    H225299   1.297   1.654   2.168 -1.2669 -1.5616 -1.1070
 1246TIP3   OH225300   4.745   5.385   7.452  0.9778  0.3219 -0.2195
 1246TIP3    H125301   4.676   5.330   7.417  0.0728  2.3949 -1.9764
 1246TIP3    H225302   4.699   5.457   7.496  1.8255  2.3828 -2.4267
 1247TIP3   OH225303   4.029   3.218   7.257  0.0970  0.1212  1.0691
 1247TIP3    H125304   4.002   3.152   7.321 -0.5661  0.1218  0.8048
 1247TIP3    H225305   4.095   3.270   7.302 -0.4875  0.2284  1.8173
 1248TIP3   OH225306   2.645   2.218   6.272  0.1850  0.0558  0.1428
 1248TIP3    H125307   2.627   2.311   6.262 -2.6261 -0.4773 -0.7655
 1248TIP3    H225308   2.631   2.182   6.184 -0.7345 -1.4410  0.8517
 1249TIP3   OH225309   1.747   1.455   7.566  0.1276  0.4724 -0.0981
 1249TIP3    H125310   1.796   1.378   7.594 -0.2674 -0.1566 -1.0589
 1249TIP3    H225311   1.772   1.524   7.627  1.9483  0.0818 -0.3501
 1250TIP3   OH225312   4.962   1.848   1.072 -0.2164  0.1463  0.3039
 1250TIP3    H125313   4.975   1.758   1.102 -0.6045 -0.1876 -0.5106
 1250TIP3    H225314   5.039   1.866   1.018 -0.0561  0.3650  0.6020
 1251TIP3   OH225315   6.088   0.272   0.798  0.6564  0.3390 -0.0238
 1251TIP3    H125316   6.161   0.210   0.798  0.2803 -0.1447 -1.2661
 1251TIP3    H225317   6.114   0.339   0.735  0.2101  0.3789 -0.1653
 1252TIP3   OH225318   5.020   4.418   6.738  0.1124  0.1487  0.3282
 1252TIP3    H125319   5.108   4.390   6.714  1.1722  2.6576  0.9895
 1252TIP3    H225320   5.011   4.396   6.830  0.6038  1.1231  0.6188
 1253TIP3   OH225321   6.906   0.933   7.050 -0.8726  0.2872 -0.1911
 1253TIP3    H125322   6.826   0.986   7.054 -1.9901 -1.0426 -2.8039
 1253TIP3    H225323   6.906   0.896   6.962  2.7106  0.2821 -0.3089
 1254TIP3   OH225324   1.858   0.517   7.417 -0.0619  0.0275 -0.0286
 1254TIP3    H125325   1.867   0.555   7.329  0.5929 -1.7117 -0.7566
 1254TIP3    H225326   1.787   0.453   7.408  0.2671 -0.4331  0.6127
 1255TIP3   OH225327   0.592   3.351   7.825  0.3751  0.2107 -0.7260
 1255TIP3    H125328   0.593   3.360   7.920  1.9464 -0.1913 -0.6864
 1255TIP3    H225329   0.676   3.388   7.796 -0.4551  1.1728 -2.0442
 1256TIP3   OH225330   3.216   6.419   7.069 -0.2534  0.5361 -0.3162
 1256TIP3    H125331   3.234   6.494   7.013 -0.4889 -0.1350 -1.3177
 1256TIP3    H225332   3.172   6.356   7.012 -1.3090  0.1782  0.8368
 1257TIP3   OH225333   1.306   4.757   6.263 -0.2377 -0.1113 -0.2733
 1257TIP3    H125334   1.277   4.685   6.207  0.3884  1.3476 -2.6454
 1257TIP3    H225335   1.358   4.715   6.332 -1.5199 -2.0483 -0.4151
 1258TIP3   OH225336   4.596   1.369   2.204 -0.5145  0.2006 -0.2588
 1258TIP3    H125337   4.579   1.277   2.227 -0.9761  0.3559  0.0386
 1258TIP3    H225338   4.676   1.366   2.153 -0.3881 -0.3453 -0.0420
 1259TIP3   OH225339   5.712   3.324   0.984 -0.5280  0.6420  0.3549
 1259TIP3    H125340   5.729   3.230   0.993 -1.8115  0.4278  0.8834
 1259TIP3    H225341   5.745   3.362   1.065  1.8016  0.9798 -0.6725
 1260TIP3   OH225342   6.600   5.589   6.768  0.5737 -0.5128 -0.1754
 1260TIP3    H125343   6.538   5.603   6.697  0.7382 -2.8111 -0.8553
 1260TIP3    H225344   6.679   5.635   6.741  0.0473  0.1415 -0.6167
 1261TIP3   OH225345   6.171   2.953   1.301  0.8630  0.0221 -0.6496
 1261TIP3    H125346   6.098   2.967   1.361  0.3579 -1.9431 -0.7673
 1261TIP3    H225347   6.242   3.006   1.337  0.6137 -1.1779  1.7571
 1262TIP3   OH225348   1.501   4.453   7.604 -0.2209  0.3386  0.7840
 1262TIP3    H125349   1.488   4.540   7.642 -1.2914 -0.5412  2.5161
 1262TIP3    H225350   1.536   4.400   7.676 -1.2949 -1.1188  0.2700
 1263TIP3   OH225351   4.098   5.776   6.454 -0.3852  0.4217 -0.1249
 1263TIP3    H125352   4.006   5.803   6.458 -0.4889  0.6901 -2.8253
 1263TIP3    H225353   4.106   5.727   6.373  1.5198 -1.1420  0.9228
 1264TIP3   OH225354   2.452   5.139   1.830  0.5362  0.1084 -0.2115
 1264TIP3    H125355   2.376   5.166   1.777  1.0302  2.1448  0.0412
 1264TIP3    H225356   2.413   5.096   1.906 -0.3421  0.2816 -0.5429
 1265TIP3   OH225357   6.346   0.510   7.461  0.0610  0.1233  0.1704
 1265TIP3    H125358   6.274   0.562   7.498 -0.4241 -0.0556 -0.5127
 1265TIP3    H225359   6.425   0.562   7.480 -0.5287  1.7506 -1.5527
 1266TIP3   OH225360   2.668   4.721   7.520  0.2152 -0.3165 -0.4047
 1266TIP3    H125361   2.600   4.658   7.500  1.2750 -0.9456 -2.3789
 1266TIP3    H225362   2.671   4.779   7.443  0.0919  1.4123  0.8217
 1267TIP3   OH225363   0.331   3.333   1.484  0.4419  0.2762 -0.1074
 1267TIP3    H125364   0.392   3.333   1.410  0.1900 -0.9259 -0.3482
 1267TIP3    H225365   0.337   3.421   1.521  1.1949  0.6364 -1.0477
 1268TIP3   OH225366   2.331   3.886   1.494 -0.3704  0.1022  0.5405
 1268TIP3    H125367   2.254   3.832   1.482  0.0712 -0.8092  1.5992
 1268TIP3    H225368   2.341   3.892   1.589  0.8595  0.1963  0.4195
 1269TIP3   OH225369   5.183   6.197   6.265  0.0397  0.4341  0.0039
 1269TIP3    H125370   5.218   6.228   6.348 -0.5173 -1.3964  0.9850
 1269TIP3    H225371   5.254   6.212   6.202  2.1174 -1.7618  1.6192
 1270TIP3   OH225372   3.804   3.829   1.438 -0.6410  0.0426  0.2902
 1270TIP3    H125373   3.885   3.798   1.397 -0.0970 -2.0708  2.6655
 1270TIP3    H225374   3.830   3.905   1.490  0.6485 -2.2580  3.3321
 1271TIP3   OH225375   2.554   4.455   1.187 -0.1212 -0.0968  0.7288
 1271TIP3    H125376   2.584   4.409   1.265 -0.4256  2.1109  2.2603
 1271TIP3    H225377   2.459   4.444   1.188 -0.4637  2.1793  2.3529
 1272TIP3   OH225378   1.451   6.511   0.210  0.0939 -0.0680 -0.1378
 1272TIP3    H125379   1.516   6.560   0.260  2.0921 -1.1934 -1.4458
 1272TIP3    H225380   1.448   6.557   0.125 -2.2702  1.0628  0.4973
 1273TIP3   OH225381   5.648   3.652   0.993 -0.2583 -0.0455  0.5689
 1273TIP3    H125382   5.644   3.571   1.044 -0.0944  2.0206  4.1792
 1273TIP3    H225383   5.741   3.662   0.973 -0.1768 -0.4039  0.7547
 1274TIP3   OH225384   4.706   3.709   1.729  0.0136  0.2645  0.2659
 1274TIP3    H125385   4.671   3.782   1.779 -1.1822  1.4187 -2.0942
 1274TIP3    H225386   4.635   3.683   1.671  0.8541 -1.9533  0.1207
 1275TIP3   OH225387   5.593   4.955   8.160 -0.0760  0.6008  0.0126
 1275TIP3    H125388   5.546   5.032   8.194  1.3856  0.6714  2.0678
 1275TIP3    H225389   5.667   4.944   8.220  1.6689 -0.4203 -2.1929
 1276TIP3   OH225390   6.176   5.923   6.815 -0.0952 -0.1346  0.5823
 1276TIP3    H125391   6.083   5.904   6.799  0.3597  0.1267 -3.1945
 1276TIP3    H225392   6.177   5.963   6.902 -3.4760 -0.2784  0.8438
 1277TIP3   OH225393   6.949   2.379   7.997 -0.2501 -0.6604  0.0304
 1277TIP3    H125394   6.888   2.437   8.044  1.8622  0.4421  1.5826
 1277TIP3    H225395   6.895   2.305   7.969 -2.3391  0.3634  1.1376
 1278TIP3   OH225396   4.020   3.999   1.244 -0.2494 -0.0174  0.2752
 1278TIP3    H125397   4.005   3.980   1.151  0.4088  2.4668 -0.4176
 1278TIP3    H225398   4.050   3.916   1.281  1.3177 -0.6653 -2.1751
 1279TIP3   OH225399   4.009   6.162   6.038  0.1106 -0.5029 -0.0477
 1279TIP3    H125400   4.077   6.219   6.075 -0.5582  0.6703 -0.5817
 1279TIP3    H225401   3.974   6.211   5.964 -0.0934 -1.8750 -0.8901
 1280TIP3   OH225402   2.992   4.664   7.286 -0.1203  0.4089 -0.4685
 1280TIP3    H125403   2.925   4.641   7.350 -0.7140  0.1001 -1.1865
 1280TIP3    H225404   3.019   4.581   7.248 -0.9095  0.6989 -1.7262
 1281TIP3   OH225405   6.223   3.415   1.251 -0.0112 -0.1844  0.0064
 1281TIP3    H125406   6.193   3.347   1.311 -0.8109  0.9023  0.8955
 1281TIP3    H225407   6.144   3.466   1.232  0.9043  1.7155  1.0112
 1282TIP3   OH225408   3.987   6.191   1.126  0.6044 -0.1725  0.0258
 1282TIP3    H125409   4.076   6.159   1.115  0.0890 -1.7263  0.2394
 1282TIP3    H225410   3.974   6.250   1.051  1.9648  0.4821  0.2787
 1283TIP3   OH225411   1.610   4.248   8.192 -0.2789 -0.1709 -0.2769
 1283TIP3    H125412   1.590   4.252   8.286 -1.5076 -0.9207 -0.4870
 1283TIP3    H225413   1.525   4.256   8.149  0.4056  1.8314 -1.4162
 1284TIP3   OH225414   6.784   2.487   0.649  0.0104 -0.5082  0.2237
 1284TIP3    H125415   6.798   2.554   0.716  0.5422 -1.1291  0.7532
 1284TIP3    H225416   6.845   2.510   0.579 -0.7074  0.2729 -0.1542
 1285TIP3   OH225417   2.028   5.212   1.408 -0.2350  0.1056  0.2001
 1285TIP3    H125418   2.089   5.272   1.366 -1.5134  0.3044 -1.4859
 1285TIP3    H225419   1.973   5.268   1.462 -1.3065  0.4948 -1.2266
 1286TIP3   OH225420   4.613   2.643   6.358 -0.0671  0.3616  0.2399
 1286TIP3    H125421   4.560   2.712   6.398  0.2947  1.0466 -0.4507
 1286TIP3    H225422   4.552   2.593   6.304 -0.4780 -0.3231  1.3113
 1287TIP3   OH225423   6.570   1.684   2.072  0.2180 -1.0300 -0.0437
 1287TIP3    H125424   6.477   1.680   2.096  0.1548 -0.7575 -0.2431
 1287TIP3    H225425   6.601   1.594   2.086  0.5090 -0.6193  2.3000
 1288TIP3   OH225426   5.599   2.317   6.943  0.0385  0.2726  0.0400
 1288TIP3    H125427   5.577   2.410   6.943 -2.7403 -0.3022 -1.0939
 1288TIP3    H225428   5.669   2.309   6.878  0.6279  1.5921  0.4729
 1289TIP3   OH225429   4.535   3.783   0.094 -0.0111  0.4394 -0.3739
 1289TIP3    H125430   4.444   3.755   0.086  0.1860 -0.1619 -0.5279
 1289TIP3    H225431   4.535   3.840   0.171  0.1493 -2.4490  1.9124
 1290TIP3   OH225432   6.394   2.591   6.329  0.2039 -0.1178 -0.1510
 1290TIP3    H125433   6.429   2.679   6.344  0.6943 -0.1496 -1.0040
 1290TIP3    H225434   6.330   2.602   6.260 -0.1672 -0.3449  0.1552
 1291TIP3   OH225435   2.895   2.840   7.058  0.2075  0.0038  0.2509
 1291TIP3    H125436   2.885   2.925   7.016  0.5657  0.1819  0.5250
 1291TIP3    H225437   2.821   2.834   7.119  0.4743  0.3374  0.6069
 1292TIP3   OH225438   6.572   0.941   0.967 -0.5628  0.1055  0.1454
 1292TIP3    H125439   6.650   0.949   0.912 -0.6380 -0.1013  0.0060
 1292TIP3    H225440   6.605   0.950   1.056 -0.2822 -0.6093  0.1228
 1293TIP3   OH225441   2.820   2.164   0.005  0.1099  0.1840 -0.7198
 1293TIP3    H125442   2.890   2.229   0.004 -0.2772  0.6018 -1.2325
 1293TIP3    H225443   2.747   2.206  -0.042 -1.1079  0.4338  1.2615
 1294TIP3   OH225444   1.747   6.110   2.138  0.0239 -0.2238  0.3419
 1294TIP3    H125445   1.810   6.117   2.067  0.5470 -0.7730  0.7405
 1294TIP3    H225446   1.724   6.017   2.140 -2.3860  0.2475 -1.1423
 1295TIP3   OH225447   5.769   1.498   1.401  0.1771  0.4481 -0.3706
 1295TIP3    H125448   5.706   1.520   1.469 -2.1759  0.6017 -2.4285
 1295TIP3    H225449   5.815   1.580   1.383  0.6512  0.4619  0.8161
 1296TIP3   OH225450   3.122   0.336   7.494 -0.3614  0.0004 -0.1497
 1296TIP3    H125451   3.027   0.347   7.494 -0.4217 -0.3617 -1.5089
 1296TIP3    H225452   3.139   0.274   7.423  0.8862 -0.0093  0.1357
 1297TIP3   OH225453   6.488   2.603   1.536 -0.4998 -0.2413  0.0848
 1297TIP3    H125454   6.571   2.610   1.583  0.0526 -0.6103 -0.8141
 1297TIP3    H225455   6.500   2.657   1.458 -1.2174 -0.0487  0.1005
 1298TIP3   OH225456   4.876   0.320   8.227 -0.4661  0.4719  0.1931
 1298TIP3    H125457   4.880   0.234   8.184  0.1333  0.2761  0.6352
 1298TIP3    H225458   4.897   0.382   8.157 -2.5899  0.4146 -0.5537
 1299TIP3   OH225459   6.829   1.768   0.836 -0.1854 -0.0568 -0.7236
 1299TIP3    H125460   6.746   1.809   0.814  0.7090  1.6370 -1.0544
 1299TIP3    H225461   6.894   1.813   0.782  1.2005 -0.1460  0.7871
 1300TIP3   OH225462   4.677   3.794   0.809 -0.7845  0.0147 -0.0621
 1300TIP3    H125463   4.708   3.830   0.892 -1.0649 -0.4129  0.2376
 1300TIP3    H225464   4.755   3.757   0.768 -0.5588  0.6517 -0.2141
 1301TIP3   OH225465   1.955   6.589   1.145  0.2679 -0.0993 -0.1199
 1301TIP3    H125466   1.974   6.584   1.051 -1.9699 -2.5513 -0.5626
 1301TIP3    H225467   1.916   6.675   1.157 -2.5436 -0.9443 -2.2173
 1302TIP3   OH225468   6.021   6.407   1.248  0.0397 -0.1041 -0.2644
 1302TIP3    H125469   6.046   6.462   1.323  1.4697 -0.9386 -0.0847
 1302TIP3    H225470   5.934   6.438   1.224  0.1246  1.1310  0.8572
 1303TIP3   OH225471   0.613   2.898   7.315  0.2387  0.1693 -0.6095
 1303TIP3    H125472   0.642   2.809   7.334  1.7910  0.0692 -3.0598
 1303TIP3    H225473   0.686   2.953   7.346 -0.4527  0.5791  0.3448
 1304TIP3   OH225474   1.927   6.751   7.073  0.3038  0.2914 -0.0273
 1304TIP3    H125475   1.890   6.830   7.111  0.4792 -0.8255  2.7826
 1304TIP3    H225476   1.921   6.686   7.144  0.8224 -1.9951 -1.9616
 1305TIP3   OH225477   0.245   6.473   0.077  0.3708  0.2467 -0.2964
 1305TIP3    H125478   0.322   6.425   0.046 -0.3698 -2.0763  1.1371
 1305TIP3    H225479   0.265   6.565   0.060  1.6673 -0.5226 -3.7349
 1306TIP3   OH225480   0.894   5.525   1.302 -0.9103 -0.2333  0.7036
 1306TIP3    H125481   0.950   5.550   1.229 -2.1645  1.1085  0.1656
 1306TIP3    H225482   0.905   5.430   1.309  0.6234 -0.1345 -0.0256
 1307TIP3   OH225483   6.218   0.639   2.240 -0.0319  0.5573 -0.1648
 1307TIP3    H125484   6.193   0.553   2.274 -0.5972  1.0095  0.6014
 1307TIP3    H225485   6.197   0.635   2.147  0.4020 -0.2943 -0.2345
 1308TIP3   OH225486   2.266   5.520   8.178 -0.0619 -0.2595 -0.1578
 1308TIP3    H125487   2.235   5.610   8.186  2.0678  0.5757 -0.4811
 1308TIP3    H225488   2.233   5.491   8.093 -0.2214  0.4517 -0.3489
 1309TIP3   OH225489   6.072   5.658   7.727 -0.3105  0.3662  0.2646
 1309TIP3    H125490   6.051   5.565   7.728 -1.7288  0.6741  0.9809
 1309TIP3    H225491   6.000   5.699   7.679  0.4803  1.0746 -0.3556
 1310TIP3   OH225492   4.040   0.598   7.019 -0.4559  0.0182 -0.5263
 1310TIP3    H125493   3.968   0.656   6.995  1.0414  1.4551 -1.7782
 1310TIP3    H225494   4.105   0.655   7.059  0.6340 -0.9673 -0.8326
 1311TIP3   OH225495   1.677   0.365   0.193 -0.4685 -0.0115  0.5930
 1311TIP3    H125496   1.720   0.332   0.113  0.9571  0.0619  1.2888
 1311TIP3    H225497   1.703   0.303   0.261  0.1664  1.1320  1.4240
 1312TIP3   OH225498   1.348   2.484   1.441  0.0335 -0.1522  0.3708
 1312TIP3    H125499   1.377   2.533   1.365 -0.1336 -1.4722 -0.5854
 1312TIP3    H225500   1.258   2.514   1.456  0.1493  0.2832  0.1846
 1313TIP3   OH225501   0.895   5.814   5.530 -0.4206 -0.4417  0.3204
 1313TIP3    H125502   0.977   5.789   5.488 -0.9541 -0.2706 -0.8945
 1313TIP3    H225503   0.837   5.739   5.517 -1.2980  0.4468 -1.2981
 1314TIP3   OH225504   6.082   1.667   7.646  0.5834 -0.1460 -0.6134
 1314TIP3    H125505   6.059   1.757   7.667 -2.6872 -0.3969 -2.4949
 1314TIP3    H225506   6.007   1.615   7.676  0.1037 -1.5770 -3.8966
 1315TIP3   OH225507   3.530   4.731   8.006  0.1508 -0.0033  0.1359
 1315TIP3    H125508   3.489   4.807   7.964  1.2142  1.3018  1.3468
 1315TIP3    H225509   3.546   4.670   7.934 -1.7691  0.4080 -0.7005
 1316TIP3   OH225510   5.436   5.928   2.290  0.5342 -0.4737  0.1949
 1316TIP3    H125511   5.452   5.834   2.277  0.6548 -0.3401 -0.7208
 1316TIP3    H225512   5.522   5.965   2.309  0.2029 -0.8526  2.8699
 1317TIP3   OH225513   3.212   2.889   7.426  0.5655 -0.2743  0.3654
 1317TIP3    H125514   3.221   2.803   7.466 -1.0648 -0.6857 -0.0564
 1317TIP3    H225515   3.219   2.873   7.332  0.3266  0.0636  0.2852
 1318TIP3   OH225516   2.482   4.203   7.142  0.3443 -0.2987  0.2647
 1318TIP3    H125517   2.546   4.261   7.101  0.8326 -1.0693 -0.0764
 1318TIP3    H225518   2.397   4.234   7.109  0.6194  0.0654 -0.1071
 1319TIP3   OH225519   2.344   6.068   0.126  0.5298 -0.4084  0.1886
 1319TIP3    H125520   2.285   6.127   0.174  0.1548  0.3875 -1.1787
 1319TIP3    H225521   2.428   6.113   0.125  0.6612 -0.6446  0.4948
 1320TIP3   OH225522   4.537   5.669   8.248  0.8632 -0.2487 -0.1703
 1320TIP3    H125523   4.474   5.666   8.320  1.0815  0.7654  0.0838
 1320TIP3    H225524   4.493   5.623   8.176 -0.5069  1.0973 -0.2453
 1321TIP3   OH225525   5.428   4.000   0.555  0.2927 -0.7568 -0.2650
 1321TIP3    H125526   5.515   3.965   0.571  0.0583 -0.0417  3.2518
 1321TIP3    H225527   5.442   4.080   0.506  2.3097  2.1419  4.4107
 1322TIP3   OH225528   5.360   2.082   1.848 -0.4924  0.1526  0.7173
 1322TIP3    H125529   5.302   2.157   1.833  2.1873  2.5432  1.3660
 1322TIP3    H225530   5.445   2.111   1.817  1.1108 -1.8306  2.8907
 1323TIP3   OH225531   2.395   5.900   1.193  0.4353 -0.3515 -0.5976
 1323TIP3    H125532   2.375   5.823   1.246  1.6474 -0.2116  0.1085
 1323TIP3    H225533   2.344   5.888   1.113 -1.9363 -0.2549  0.8127
 1324TIP3   OH225534   6.792   5.906   1.197  0.0241  0.2463 -0.1358
 1324TIP3    H125535   6.794   5.948   1.283 -2.1970 -0.7462  0.4765
 1324TIP3    H225536   6.819   5.975   1.136 -0.2328  1.5421  1.1524
 1325TIP3   OH225537   5.923   4.828   6.898 -0.3089  0.1439  0.6102
 1325TIP3    H125538   6.008   4.794   6.926 -0.0428 -0.3223 -0.7013
 1325TIP3    H225539   5.913   4.796   6.808 -1.4407  0.9917  0.4189
 1326TIP3   OH225540   2.972   1.988   7.965  0.4246  0.2881  0.6526
 1326TIP3    H125541   2.920   1.908   7.965 -0.3008  0.7256  2.0314
 1326TIP3    H225542   3.038   1.973   7.898 -0.0194 -1.2456  0.5062
 1327TIP3   OH225543   4.867   4.160   6.801 -0.5797  0.3656 -0.3760
 1327TIP3    H125544   4.900   4.245   6.771  1.1538 -0.2886 -0.4348
 1327TIP3    H225545   4.932   4.130   6.864 -1.2619 -0.8498 -0.2210
 1328TIP3   OH225546   0.152   6.203   7.372 -0.2910 -0.0476  0.0802
 1328TIP3    H125547   0.082   6.142   7.349  0.9204 -1.3333 -0.2738
 1328TIP3    H225548   0.199   6.161   7.443 -0.3912  1.2194  0.9248
 1329TIP3   OH225549   3.343   1.284   5.664  0.1939 -0.1392 -0.4615
 1329TIP3    H125550   3.428   1.301   5.704  0.2405  0.8600 -0.9355
 1329TIP3    H225551   3.350   1.196   5.627  1.2451  0.1678 -1.0242
 1330TIP3   OH225552   3.499   1.684   6.691 -0.6788  0.2063  0.4315
 1330TIP3    H125553   3.438   1.718   6.626 -1.6271 -0.8345  0.7241
 1330TIP3    H225554   3.507   1.754   6.756 -2.9671 -0.2138  1.2863
 1331TIP3   OH225555   1.955   3.735   1.333  0.1514 -0.6787 -0.4919
 1331TIP3    H125556   1.881   3.696   1.380  0.6724  0.2590  1.1739
 1331TIP3    H225557   2.024   3.742   1.398  1.1503  0.0605 -1.5818
 1332TIP3   OH225558   5.805   0.714   1.841  0.3625 -0.7171 -0.7610
 1332TIP3    H125559   5.882   0.733   1.788 -0.1228  0.7676 -0.9682
 1332TIP3    H225560   5.821   0.626   1.876  0.6317 -1.8633 -3.5028
 1333TIP3   OH225561   4.787   2.833   0.691  0.1729 -0.2668 -0.0657
 1333TIP3    H125562   4.855   2.769   0.712  0.1122  0.1617  1.5332
 1333TIP3    H225563   4.832   2.900   0.640  1.4736  0.9756  2.5296
 1334TIP3   OH225564   2.071   3.482   2.349  0.1850 -0.4388  0.1310
 1334TIP3    H125565   2.137   3.426   2.390  1.5732  0.2819 -1.0595
 1334TIP3    H225566   2.003   3.421   2.320 -0.1115 -1.1106  2.0674
 1335TIP3   OH225567   3.318   6.528   1.377  0.0959 -0.1048 -0.3034
 1335TIP3    H125568   3.249   6.464   1.361 -0.3163  0.4670 -0.8403
 1335TIP3    H225569   3.386   6.506   1.313  0.1513 -0.2850 -0.1839
 1336TIP3   OH225570   1.186   2.201   1.121  0.5394  0.6291  0.2434
 1336TIP3    H125571   1.166   2.233   1.033  0.4441  1.5609  0.5867
 1336TIP3    H225572   1.167   2.107   1.118  0.2289  0.7120 -0.6354
 1337TIP3   OH225573   0.413   1.752   6.986 -0.2561 -0.0814  0.5693
 1337TIP3    H125574   0.372   1.695   6.920  0.2095  1.0644 -0.7630
 1337TIP3    H225575   0.342   1.770   7.048 -0.9882 -0.4341 -0.1323
 1338TIP3   OH225576   3.680   5.222   0.787 -0.0495  0.2888  0.0504
 1338TIP3    H125577   3.729   5.277   0.727 -0.2588  0.9507  0.4838
 1338TIP3    H225578   3.630   5.283   0.841 -0.9836 -0.3590 -0.0698
 1339TIP3   OH225579   2.220   2.703   6.604 -0.5734 -0.0326  0.6501
 1339TIP3    H125580   2.256   2.786   6.636 -1.0062 -0.3299  1.9512
 1339TIP3    H225581   2.283   2.674   6.537 -1.2282  2.1096 -1.0281
 1340TIP3   OH225582   2.510   3.841   7.599 -0.1802 -0.7367  1.1344
 1340TIP3    H125583   2.605   3.834   7.602 -0.2311 -1.9115  0.7968
 1340TIP3    H225584   2.490   3.853   7.506 -0.2857  1.4939  1.3944
 1341TIP3   OH225585   0.624   0.050   0.735  0.2468 -0.4258 -0.6608
 1341TIP3    H125586   0.650   0.074   0.824  1.4532 -0.6606 -0.9324
 1341TIP3    H225587   0.563  -0.023   0.747  1.0854 -1.0463 -0.0467
 1342TIP3   OH225588   4.572   0.425   0.771 -0.3333  0.0184  0.1862
 1342TIP3    H125589   4.591   0.485   0.843 -2.7586  0.5140  0.5230
 1342TIP3    H225590   4.652   0.422   0.719  0.9760  0.8306  2.0599
 1343TIP3   OH225591   0.386   3.112   1.062 -0.4762 -0.0526  0.0711
 1343TIP3    H125592   0.339   3.123   0.980 -2.2718  0.0278  1.0728
 1343TIP3    H225593   0.418   3.021   1.060 -0.6419 -0.0968 -0.6337
 1344TIP3   OH225594   1.723   2.866   1.110  0.3600  0.0602 -0.4357
 1344TIP3    H125595   1.671   2.946   1.119  0.7496  0.2111  0.7145
 1344TIP3    H225596   1.806   2.896   1.071  0.0966  0.0381 -1.0157
 1345TIP3   OH225597   2.703   6.400   6.980  0.1759 -0.4189 -0.0883
 1345TIP3    H125598   2.703   6.487   6.940 -1.9741 -0.3867 -0.1698
 1345TIP3    H225599   2.617   6.394   7.023  1.1692 -1.6660  1.8322
 1346TIP3   OH225600   2.007   3.582   7.181 -0.0285 -0.3434  0.4124
 1346TIP3    H125601   2.067   3.651   7.155  2.1655 -1.9794  0.8841
 1346TIP3    H225602   1.927   3.600   7.132  1.0198  1.5795 -0.6899
 1347TIP3   OH225603   1.834   2.161   2.371 -0.4179  0.0390  0.2347
 1347TIP3    H125604   1.765   2.188   2.310  0.5797 -3.2043 -2.6773
 1347TIP3    H225605   1.788   2.111   2.439 -1.1420 -3.0704 -2.2692
 1348TIP3   OH225606   4.108   3.544   0.929  0.2271 -0.6166 -0.2709
 1348TIP3    H125607   4.181   3.606   0.925 -0.4515  0.2080 -0.2392
 1348TIP3    H225608   4.119   3.489   0.852  1.0335 -0.6862 -0.1190
 1349TIP3   OH225609   5.644   2.920   7.942  0.5646 -0.6038  0.4171
 1349TIP3    H125610   5.664   2.994   7.999  0.9269 -0.7596  0.4922
 1349TIP3    H225611   5.619   2.961   7.858  2.4536 -0.4208 -0.0960
 1350TIP3   OH225612   1.395   3.274   0.771 -0.2891 -0.3616 -0.9171
 1350TIP3    H125613   1.387   3.230   0.856 -0.2145  1.9042  0.3378
 1350TIP3    H225614   1.490   3.282   0.757 -0.2751  1.1647 -0.1231
 1351TIP3   OH225615   1.373   6.458   1.685  0.3114  0.1306  0.0835
 1351TIP3    H125616   1.366   6.435   1.778 -1.3502  0.2127  0.0137
 1351TIP3    H225617   1.463   6.436   1.662  0.8667  0.4121  1.7867
 1352TIP3   OH225618   4.357   0.073   1.324 -1.0341 -0.2948 -0.4565
 1352TIP3    H125619   4.360  -0.021   1.341 -2.0907 -0.3515 -0.5340
 1352TIP3    H225620   4.342   0.080   1.230 -0.2100 -0.0339 -0.5769
 1353TIP3   OH225621   0.227   0.006   7.720 -0.1572  0.2459  0.0650
 1353TIP3    H125622   0.258  -0.068   7.669 -2.6693 -2.4663  2.1587
 1353TIP3    H225623   0.258  -0.011   7.809  0.1227  2.3221  0.4210
 1354TIP3   OH225624   4.379   6.547   1.045  0.0508  0.2382  0.0677
 1354TIP3    H125625   4.443   6.515   1.110  0.8794  1.0423 -0.3263
 1354TIP3    H225626   4.405   6.637   1.028  0.8552 -0.3885 -2.5439
 1355TIP3   OH225627   6.527   1.543   7.206 -0.4491  0.0369 -0.4765
 1355TIP3    H125628   6.514   1.448   7.207 -2.2853  0.2401  0.9366
 1355TIP3    H225629   6.525   1.567   7.114 -1.6058 -1.1370 -0.7923
 1356TIP3   OH225630   4.340   1.283   1.773  0.4052 -0.3005  0.1687
 1356TIP3    H125631   4.408   1.262   1.838 -0.8134  2.1530  2.4182
 1356TIP3    H225632   4.271   1.218   1.788 -0.1013  0.5717  1.7708
 1357TIP3   OH225633   4.611   6.525   1.679  0.3158  0.1662  0.3482
 1357TIP3    H125634   4.559   6.543   1.757 -0.6152 -1.0132  0.0326
 1357TIP3    H225635   4.584   6.437   1.652 -0.0632  0.8953 -1.8183
 1358TIP3   OH225636   6.010   6.856   8.100 -0.2260  0.3317  0.4658
 1358TIP3    H125637   5.956   6.825   8.028  0.4121  0.4370 -0.0672
 1358TIP3    H225638   5.976   6.811   8.177 -0.6429 -0.1046  0.0301
 1359TIP3   OH225639   0.322   5.895   7.163 -0.4051  0.2624  0.2719
 1359TIP3    H125640   0.238   5.878   7.120 -0.0283 -1.1762  0.0409
 1359TIP3    H225641   0.317   5.847   7.245 -0.2317  1.1050  0.7797
 1360TIP3   OH225642   2.693   1.810   6.851  0.1873  0.2548  1.1911
 1360TIP3    H125643   2.635   1.873   6.809  0.7450  1.3160  1.9483
 1360TIP3    H225644   2.769   1.804   6.792  0.4163  0.7973  1.4187
 1361TIP3   OH225645   3.933   4.595   0.026 -0.4090 -0.5902  0.5278
 1361TIP3    H125646   3.890   4.605  -0.059 -1.8281 -0.2736  1.2554
 1361TIP3    H225647   3.963   4.683   0.048 -1.1236 -0.4296  0.8921
 1362TIP3   OH225648   2.833   1.971   0.308 -0.7960 -0.1531  0.6909
 1362TIP3    H125649   2.781   1.936   0.380 -0.0945 -1.8953  0.3781
 1362TIP3    H225650   2.769   1.995   0.242 -1.3646  0.3547  1.4043
 1363TIP3   OH225651   0.851   3.861   7.201  0.7235  0.1675 -0.1765
 1363TIP3    H125652   0.775   3.820   7.160  1.5306  0.3372 -1.9186
 1363TIP3    H225653   0.814   3.926   7.261 -0.5068 -0.6459 -0.0261
 1364TIP3   OH225654   4.989   5.212   0.030  0.0170 -0.1934  0.1499
 1364TIP3    H125655   5.018   5.297  -0.002  1.9797 -0.8867 -0.0319
 1364TIP3    H225656   5.030   5.203   0.116 -0.1625 -0.9447  0.1663
 1365TIP3   OH225657   4.996   3.119   2.256  0.6332  0.0404  0.0628
 1365TIP3    H125658   4.951   3.204   2.264 -0.1308 -0.1869 -1.4145
 1365TIP3    H225659   4.957   3.065   2.325 -0.4871  0.2424 -0.3850
 1366TIP3   OH225660   5.285   3.655   7.132  0.6710  0.1776  0.1287
 1366TIP3    H125661   5.343   3.586   7.098 -1.0395 -0.6240 -1.3069
 1366TIP3    H225662   5.235   3.612   7.201 -0.4838 -0.0941 -0.8488
 1367TIP3   OH225663   6.499   4.968   2.150 -0.2229 -0.2654 -0.2632
 1367TIP3    H125664   6.593   4.958   2.166 -0.3317  0.3718  0.9252
 1367TIP3    H225665   6.481   4.911   2.075  0.6180 -2.6091  1.1834
 1368TIP3   OH225666   1.832   4.168   6.404 -0.3016  0.1659 -0.1515
 1368TIP3    H125667   1.745   4.131   6.388 -2.1542  3.2306  1.8496
 1368TIP3    H225668   1.823   4.261   6.382  1.4907  1.2555  3.0981
 1369TIP3   OH225669   4.765   1.097   1.509  0.0609 -0.2552 -0.5290
 1369TIP3    H125670   4.748   1.062   1.422 -1.7528 -0.4329 -0.1267
 1369TIP3    H225671   4.861   1.094   1.517  0.5123  1.8234 -3.3693
 1370TIP3   OH225672   4.786   0.043   8.338  0.8250 -0.0904  0.0772
 1370TIP3    H125673   4.723   0.009   8.274 -0.7209 -3.1626  2.8862
 1370TIP3    H225674   4.746   0.124   8.370 -0.5758 -0.7623  0.1272
 1371TIP3   OH225675   2.463   4.294   8.303  0.1172  0.2898 -0.0140
 1371TIP3    H125676   2.409   4.218   8.326  1.1849 -0.4298  0.1885
 1371TIP3    H225677   2.482   4.336   8.387 -0.5138  0.8143 -0.1311
 1372TIP3   OH225678   6.115   0.207   7.156  0.2508 -0.3721 -0.2021
 1372TIP3    H125679   6.131   0.241   7.068 -1.0695 -1.2850 -0.8237
 1372TIP3    H225680   6.194   0.230   7.205  2.6107 -2.7578 -2.5203
 1373TIP3   OH225681   6.023   6.497   7.393 -0.3825  0.1597  0.6284
 1373TIP3    H125682   6.079   6.518   7.467  0.7425 -0.9884  0.1436
 1373TIP3    H225683   6.037   6.568   7.331 -1.1632  1.0102  1.4021
 1374TIP3   OH225684   5.395   5.180   1.261 -0.4481 -0.3293 -0.0493
 1374TIP3    H125685   5.464   5.115   1.249  0.4345  0.4776  0.4868
 1374TIP3    H225686   5.399   5.235   1.183  1.0276  1.0518  0.9399
 1375TIP3   OH225687   4.200   0.795   6.692 -0.0711 -0.0561 -0.3360
 1375TIP3    H125688   4.284   0.750   6.701 -0.7582 -1.4205 -0.3565
 1375TIP3    H225689   4.223   0.886   6.674  1.4158  0.3328  2.7340
 1376TIP3   OH225690   4.735   2.074   1.091  0.0033 -0.0719 -0.3740
 1376TIP3    H125691   4.808   2.077   1.153 -1.3823  1.1603  1.2921
 1376TIP3    H225692   4.730   1.983   1.065  1.3168 -0.4247  0.4963
 1377TIP3   OH225693   0.801   4.447   7.393  0.1880 -0.4772  0.6876
 1377TIP3    H125694   0.890   4.478   7.377  0.1799 -0.9020 -0.2686
 1377TIP3    H225695   0.776   4.486   7.476  0.8212  0.6211  0.3731
 1378TIP3   OH225696   4.526   1.125   7.921 -0.0265 -1.1509 -0.6037
 1378TIP3    H125697   4.577   1.103   7.843 -1.0220 -0.0957 -1.5890
 1378TIP3    H225698   4.515   1.220   7.918 -0.1184 -1.0878  0.8139
 1379TIP3   OH225699   4.716   5.894   8.030  0.6937 -0.6273 -0.0535
 1379TIP3    H125700   4.733   5.904   7.937  0.9756 -0.3819  0.0205
 1379TIP3    H225701   4.655   5.821   8.036  2.0489 -1.8385 -0.3232
 1380TIP3   OH225702   5.223   4.120   1.057  0.4469  0.0622 -0.0154
 1380TIP3    H125703   5.248   4.098   0.967 -0.1829  1.1916 -0.4902
 1380TIP3    H225704   5.292   4.084   1.111  1.4867  0.4484 -1.0522
 1381TIP3   OH225705   3.147   0.076   6.127 -0.0010 -0.1482  0.6009
 1381TIP3    H125706   3.142   0.147   6.190 -1.6045  0.0660  0.2880
 1381TIP3    H225707   3.231   0.088   6.083  0.7256  0.2244  2.0555
 1382TIP3   OH225708   0.416   3.423   0.952  0.0489  0.2876 -0.0235
 1382TIP3    H125709   0.355   3.422   0.879 -0.3921  0.6499  0.3304
 1382TIP3    H225710   0.498   3.456   0.915 -0.7208  2.4695  0.0454
 1383TIP3   OH225711   0.133   4.630   1.435 -0.1935 -0.1235 -0.4036
 1383TIP3    H125712   0.215   4.640   1.484 -1.6401 -0.0607  2.1620
 1383TIP3    H225713   0.082   4.567   1.486 -2.5900  1.4431 -0.7311
 1384TIP3   OH225714   4.033   3.498   7.358 -0.1456 -0.5197  0.2385
 1384TIP3    H125715   4.039   3.504   7.453  0.3076 -0.5118  0.2110
 1384TIP3    H225716   4.061   3.584   7.326 -0.7800 -0.3519  0.1126
 1385TIP3   OH225717   5.428   1.913   0.701  0.3969  0.4319 -0.0546
 1385TIP3    H125718   5.366   1.940   0.634  0.3789  2.0415  0.5704
 1385TIP3    H225719   5.479   1.992   0.720  1.5485 -0.4341  0.6096
 1386TIP3   OH225720   3.055   4.653   0.861 -0.6402 -0.1019  0.1426
 1386TIP3    H125721   2.964   4.628   0.844 -0.0405 -1.1010 -1.9949
 1386TIP3    H225722   3.106   4.575   0.837  0.9495  1.3430 -1.4286
 1387TIP3   OH225723   0.198   4.345   7.542 -0.1521 -0.0502 -0.1284
 1387TIP3    H125724   0.181   4.367   7.450  3.0478  0.1697 -0.7951
 1387TIP3    H225725   0.293   4.346   7.549 -0.2806  1.6788  3.6474
 1388TIP3   OH225726   1.871   5.774   0.297 -0.4128 -0.1134 -0.7829
 1388TIP3    H125727   1.960   5.740   0.290 -1.0054 -1.3959 -3.1204
 1388TIP3    H225728   1.882   5.866   0.323  1.5458 -0.3668 -0.5891
 1389TIP3   OH225729   1.415   2.580   1.191 -0.7770  0.3573  0.1341
 1389TIP3    H125730   1.353   2.581   1.119 -2.2658  1.8292  1.3793
 1389TIP3    H225731   1.488   2.634   1.160  0.1485 -1.6250 -1.4482
 1390TIP3   OH225732   5.611   5.916   7.573 -0.2381 -0.2887  0.9954
 1390TIP3    H125733   5.547   5.912   7.502  0.4910 -1.9341  0.3830
 1390TIP3    H225734   5.594   6.000   7.615 -2.8301 -0.6614  0.8917
 1391TIP3   OH225735   6.185   4.673   6.854 -0.1551 -0.2655 -0.0903
 1391TIP3    H125736   6.133   4.597   6.880 -0.7534  0.8835  2.2295
 1391TIP3    H225737   6.269   4.660   6.898 -0.5504  0.8060  1.0192
 1392TIP3   OH225738   6.183   2.617   2.532  0.3903 -0.6318 -0.2151
 1392TIP3    H125739   6.148   2.558   2.466 -0.7875 -0.5454  0.3165
 1392TIP3    H225740   6.132   2.697   2.523 -1.5115 -1.4279  2.3658
 1393TIP3   OH225741   0.805   5.877   6.209  0.6669 -0.0844  0.2618
 1393TIP3    H125742   0.896   5.879   6.238  0.7916 -0.5975 -0.0764
 1393TIP3    H225743   0.759   5.828   6.278  0.1183  2.3996  1.7940
 1394TIP3   OH225744   3.803   2.503   0.917 -0.2543 -0.4084  0.0432
 1394TIP3    H125745   3.762   2.470   0.997 -0.1012 -1.0037 -0.1171
 1394TIP3    H225746   3.887   2.539   0.946 -0.2295 -0.5580  0.1590
 1395TIP3   OH225747   2.696   2.957   6.888  0.5650  0.9005  0.5031
 1395TIP3    H125748   2.614   2.968   6.935 -0.3950 -0.0224 -0.9068
 1395TIP3    H225749   2.704   3.035   6.833 -1.3244 -0.6107 -2.1551
 1396TIP3   OH225750   4.584   4.673   0.844 -0.4782  0.0581 -0.4719
 1396TIP3    H125751   4.529   4.729   0.898 -0.2778 -0.0368 -0.1718
 1396TIP3    H225752   4.528   4.650   0.769 -1.4906 -1.4930  0.6888
 1397TIP3   OH225753   3.006   2.931   7.993 -0.3384 -0.2838 -0.9802
 1397TIP3    H125754   2.911   2.922   7.995 -0.4701  0.8711  1.1165
 1397TIP3    H225755   3.032   2.897   7.907 -2.7835  0.8992 -2.2719
 1398TIP3   OH225756   2.848   5.842   8.294 -0.0571 -0.4992 -0.4392
 1398TIP3    H125757   2.900   5.779   8.345  1.4996  1.3227  0.3386
 1398TIP3    H225758   2.896   5.924   8.301 -1.8638  0.7390 -1.6763
 1399TIP3   OH225759   3.291   0.492   6.149  0.5248 -0.3389  0.0775
 1399TIP3    H125760   3.380   0.493   6.185  0.4872  0.3457  0.1704
 1399TIP3    H225761   3.289   0.567   6.088  0.2765 -0.8664 -0.5820
 1400TIP3   OH225762   2.581   5.613   6.447 -0.4960  0.3179 -0.0688
 1400TIP3    H125763   2.588   5.621   6.352 -0.2962  0.2387 -0.0603
 1400TIP3    H225764   2.556   5.522   6.462  0.4014  0.0717  0.0004
 1401TIP3   OH225765   0.770   1.432   1.217 -0.0539  0.0849  0.6093
 1401TIP3    H125766   0.855   1.472   1.235  0.1382 -1.1035  2.6882
 1401TIP3    H225767   0.715   1.459   1.291 -0.4479 -1.8823  1.0841
 1402TIP3   OH225768   2.007   2.055   6.295 -0.2338 -0.2931  0.8244
 1402TIP3    H125769   2.096   2.026   6.316  0.0295  0.7309  1.2136
 1402TIP3    H225770   2.001   2.048   6.200  0.5680  0.4023  0.7100
 1403TIP3   OH225771   6.287   5.583   0.882  0.3318 -0.1870 -0.1362
 1403TIP3    H125772   6.259   5.631   0.960  3.0260 -0.6578  1.2450
 1403TIP3    H225773   6.327   5.649   0.826  1.3624 -0.3163  0.4203
 1404TIP3   OH225774   1.179   2.594   5.963  0.6947  0.4731 -0.3495
 1404TIP3    H125775   1.173   2.690   5.964  0.9070  0.4968 -0.7753
 1404TIP3    H225776   1.263   2.575   6.005  0.1746  0.4137  0.6998
 1405TIP3   OH225777   5.050   6.668   6.257  0.4448  0.2610  0.0624
 1405TIP3    H125778   5.134   6.684   6.214  0.5731  1.4068  0.7074
 1405TIP3    H225779   5.006   6.753   6.258 -0.2874 -0.1064  0.6582
 1406TIP3   OH225780   3.364   5.508   8.129  0.1523 -0.7762 -0.3432
 1406TIP3    H125781   3.340   5.595   8.161  1.7709  0.4794 -2.3101
 1406TIP3    H225782   3.288   5.453   8.148 -1.6814  1.4946 -0.7391
 1407TIP3   OH225783   3.155   3.086   0.834 -0.1506 -0.1889 -0.7495
 1407TIP3    H125784   3.099   3.008   0.830 -1.7720  0.7742  1.3479
 1407TIP3    H225785   3.108   3.152   0.782 -1.1841  0.6794  1.1676
 1408TIP3   OH225786   5.179   4.369   7.287 -0.1845 -0.0753 -0.5869
 1408TIP3    H125787   5.168   4.277   7.312  1.1002  0.1391  0.8598
 1408TIP3    H225788   5.211   4.412   7.366 -2.0158  1.9164 -0.8259
 1409TIP3   OH225789   0.668   0.490   0.133  0.2038 -0.6717 -0.1750
 1409TIP3    H125790   0.699   0.509   0.044  1.5600 -4.2008 -0.6401
 1409TIP3    H225791   0.710   0.557   0.187  2.1583 -0.4591 -1.8060
 1410TIP3   OH225792   2.744   1.452   1.242 -0.0572  0.8599  0.0065
 1410TIP3    H125793   2.832   1.418   1.227 -0.0439  1.2379 -0.7893
 1410TIP3    H225794   2.748   1.492   1.329  0.7032  1.3437 -0.2493
 1411TIP3   OH225795   0.023   4.794   6.574  0.6873  0.0088 -0.0899
 1411TIP3    H125796  -0.054   4.852   6.577  0.6761  0.0142 -0.5173
 1411TIP3    H225797   0.038   4.779   6.481  0.9606 -0.3205  0.0079
 1412TIP3   OH225798   0.640   1.677   6.879 -0.1995  0.2046 -0.2863
 1412TIP3    H125799   0.642   1.744   6.811  0.0039  1.4046  0.8749
 1412TIP3    H225800   0.560   1.693   6.928  0.8543  0.9448  1.2832
 1413TIP3   OH225801   5.464   5.471   6.528  0.2814  0.1924 -0.2367
 1413TIP3    H125802   5.518   5.400   6.565  1.2596  0.0455 -1.8551
 1413TIP3    H225803   5.380   5.462   6.572  1.2094 -0.2972  1.5377
 1414TIP3   OH225804   5.652   3.844   6.487 -0.3256 -0.4570 -0.2685
 1414TIP3    H125805   5.651   3.834   6.392  0.8774 -0.4500 -0.2941
 1414TIP3    H225806   5.723   3.906   6.503 -0.5635 -0.4141  0.6355
 1415TIP3   OH225807   4.618   0.668   0.523  0.0514 -0.3550 -0.3119
 1415TIP3    H125808   4.706   0.664   0.562 -0.1280  0.2729  0.1804
 1415TIP3    H225809   4.559   0.657   0.597 -0.2903 -1.4326 -0.7347
 1416TIP3   OH225810   3.896   3.155   7.672  0.3577 -0.2275  0.7710
 1416TIP3    H125811   3.887   3.113   7.758 -0.7172 -1.7406 -0.0362
 1416TIP3    H225812   3.896   3.249   7.691  0.7362 -0.5392  2.4675
 1417TIP3   OH225813   5.217   1.390   6.617 -0.3082  0.0738 -0.1332
 1417TIP3    H125814   5.311   1.398   6.599 -0.2175  0.5400  0.5106
 1417TIP3    H225815   5.184   1.331   6.548  0.7392 -1.4170  0.5878
 1418TIP3   OH225816   0.053   1.875   1.874 -0.2060  0.2117 -0.1711
 1418TIP3    H125817   0.106   1.953   1.891  0.1768 -0.0059 -0.3314
 1418TIP3    H225818   0.085   1.811   1.937 -2.4652  1.0199  1.9225
 1419TIP3   OH225819   5.486   4.099   2.250 -0.1779  0.4801 -0.0041
 1419TIP3    H125820   5.404   4.083   2.298 -0.5175 -0.5422 -0.8874
 1419TIP3    H225821   5.553   4.053   2.301 -0.2572  0.7230  0.3290
 1420TIP3   OH225822   0.085   2.301   0.331  0.2453 -0.2724 -0.3363
 1420TIP3    H125823   0.066   2.387   0.293  0.4885 -0.3970 -0.7452
 1420TIP3    H225824  -0.001   2.267   0.355  0.1305  0.0110 -0.3369
 1421TIP3   OH225825   0.512   4.922   6.666 -0.6270  0.4895 -0.3915
 1421TIP3    H125826   0.556   4.922   6.581 -0.4615 -0.3504 -0.3099
 1421TIP3    H225827   0.526   5.011   6.699  1.3345  0.1544 -0.2069
 1422TIP3   OH225828   0.988   6.992   6.225 -0.2071  0.3274 -0.4609
 1422TIP3    H125829   0.947   6.951   6.149 -1.0120  1.0192 -0.4171
 1422TIP3    H225830   0.925   7.059   6.253  0.5835  0.8472  0.1253
 1423TIP3   OH225831   4.210   5.149   0.557  0.4964 -0.0768  0.2162
 1423TIP3    H125832   4.251   5.101   0.629  1.1042 -1.8392 -1.2402
 1423TIP3    H225833   4.269   5.224   0.543  0.5646  0.0890  1.2912
 1424TIP3   OH225834   4.017   2.776   1.564  0.0181  0.0498  0.1756
 1424TIP3    H125835   4.039   2.683   1.566  0.2066  0.0439 -1.1350
 1424TIP3    H225836   4.069   2.815   1.633 -0.6460 -0.9300  1.2646
 1425TIP3   OH225837   3.288   3.881   7.967 -0.1209 -0.3490  0.0668
 1425TIP3    H125838   3.302   3.969   7.933  1.9048 -0.7499 -0.2550
 1425TIP3    H225839   3.359   3.829   7.929 -1.2022 -2.1007  0.3419
 1426TIP3   OH225840   2.189   4.113   2.267 -0.3007 -0.5155  0.2930
 1426TIP3    H125841   2.193   4.193   2.216  1.6559 -0.3439  0.6141
 1426TIP3    H225842   2.279   4.079   2.265 -0.7211 -1.8133  1.5233
 1427TIP3   OH225843   3.192   5.456   7.055  0.0262  0.1623  0.3196
 1427TIP3    H125844   3.119   5.400   7.031 -0.0431  1.0596 -1.7386
 1427TIP3    H225845   3.267   5.421   7.006  0.3228  0.9627  0.1842
 1428TIP3   OH225846   6.670   6.631   7.709 -0.1858 -0.5893  0.0251
 1428TIP3    H125847   6.575   6.646   7.714 -0.2696 -0.8555 -0.6820
 1428TIP3    H225848   6.685   6.602   7.619  0.4657 -1.2636  0.3380
 1429TIP3   OH225849   2.636   3.658   1.675 -0.0844 -0.1808 -0.4793
 1429TIP3    H125850   2.679   3.744   1.671  3.5602 -1.8320 -0.6737
 1429TIP3    H225851   2.615   3.638   1.584  2.4851 -0.9341 -0.9972
 1430TIP3   OH225852   0.876   1.535   6.723 -0.1773 -0.1062  0.2477
 1430TIP3    H125853   0.841   1.531   6.634  0.6650  0.1371 -0.1047
 1430TIP3    H225854   0.809   1.583   6.773 -1.1829 -1.2304  0.0248
 1431TIP3   OH225855   0.155   5.263   1.176  0.4774 -0.6179 -0.4333
 1431TIP3    H125856   0.215   5.333   1.202  1.1536 -1.2163 -0.3522
 1431TIP3    H225857   0.072   5.307   1.160  0.7475  0.1291  0.1666
 1432TIP3   OH225858   0.037   1.249   6.101 -0.4724  0.1080  0.4405
 1432TIP3    H125859  -0.038   1.214   6.054 -0.8538  0.2098  0.9672
 1432TIP3    H225860   0.106   1.254   6.035 -0.6325 -0.9128  0.1811
 1433TIP3   OH225861   0.683   5.647   1.479  0.1221 -0.5338  0.6226
 1433TIP3    H125862   0.610   5.629   1.421  0.8944 -0.6539 -0.3319
 1433TIP3    H225863   0.758   5.605   1.437  1.2356  1.6695  0.2754
 1434TIP3   OH225864   1.991   6.618   0.249  0.0794  0.1219 -0.3328
 1434TIP3    H125865   2.045   6.616   0.328  0.6192  1.1204 -0.6639
 1434TIP3    H225866   2.030   6.687   0.195  0.8844 -1.7339 -2.2979
 1435TIP3   OH225867   1.144   1.611   7.711 -0.1502  0.1501 -0.3381
 1435TIP3    H125868   1.175   1.524   7.685 -2.3636 -0.1306 -2.3346
 1435TIP3    H225869   1.049   1.606   7.704 -0.5433  2.0073  2.0778
 1436TIP3   OH225870   2.775   5.080   8.197  0.1432 -0.1667  0.2963
 1436TIP3    H125871   2.804   5.137   8.267 -0.0885  0.9910 -0.5181
 1436TIP3    H225872   2.821   5.111   8.119  0.4688 -1.4792 -0.0625
 1437TIP3   OH225873   5.235   2.981   7.576 -0.1857 -0.2914 -0.7349
 1437TIP3    H125874   5.140   2.981   7.564 -0.3306 -0.0344  0.3219
 1437TIP3    H225875   5.269   2.941   7.496 -1.2818 -1.8346 -0.4764
 1438TIP3   OH225876   3.943   3.685   0.541 -0.2119 -0.1174  0.2079
 1438TIP3    H125877   4.025   3.638   0.549 -0.9555 -1.7466 -1.1971
 1438TIP3    H225878   3.946   3.725   0.454 -0.4253  0.8259  0.6158
 1439TIP3   OH225879   2.797   6.680   7.431 -0.6301  0.1071 -0.4747
 1439TIP3    H125880   2.750   6.600   7.455  0.7796 -0.8712 -0.8061
 1439TIP3    H225881   2.744   6.751   7.467 -1.3763 -1.0263  0.7686
 1440TIP3   OH225882   0.435   3.426   7.226  0.4158  0.2844  0.0675
 1440TIP3    H125883   0.408   3.461   7.140 -1.3852 -0.2328  0.3740
 1440TIP3    H225884   0.400   3.489   7.289 -1.5794 -1.2134  0.5531
 1441TIP3   OH225885   4.916   6.901   6.262  0.5368  0.4800 -0.3259
 1441TIP3    H125886   4.926   6.991   6.231 -0.0784 -0.2961 -3.0676
 1441TIP3    H225887   4.833   6.901   6.308  0.1593  1.1876 -0.9726
 1442TIP3   OH225888   6.026   6.508   1.528  0.6168  0.0321  0.0042
 1442TIP3    H125889   6.081   6.568   1.577  0.3686 -0.8409  1.4129
 1442TIP3    H225890   6.049   6.421   1.562 -1.3936 -0.3878  0.4384
 1443TIP3   OH225891   1.471   2.998   0.577 -0.4177  0.0166  0.8631
 1443TIP3    H125892   1.379   2.990   0.550 -0.2926  0.0835  0.4062
 1443TIP3    H225893   1.513   3.041   0.503 -0.2303  0.9967  1.5240
 1444TIP3   OH225894   1.842   2.367   0.188  0.5673 -0.0002  0.3470
 1444TIP3    H125895   1.773   2.352   0.123  0.7351 -1.1487  0.4177
 1444TIP3    H225896   1.840   2.461   0.203 -1.5650 -0.0907  0.9757
 1445TIP3   OH225897   6.475   0.854   1.698  0.2046 -0.0759  0.1325
 1445TIP3    H125898   6.445   0.771   1.733 -1.3431 -0.9220 -2.8870
 1445TIP3    H225899   6.458   0.917   1.768 -3.1607 -1.5367  0.8116
 1446TIP3   OH225900   5.183   1.926   0.901 -0.1044 -0.2505 -0.1836
 1446TIP3    H125901   5.211   1.838   0.874 -2.4318 -0.7835 -1.0341
 1446TIP3    H225902   5.191   1.979   0.822  1.7454  0.4934  0.4401
 1447TIP3   OH225903   0.339   1.882   7.452  0.3920 -0.9686  0.3659
 1447TIP3    H125904   0.351   1.935   7.531 -1.1870  1.2726 -0.7905
 1447TIP3    H225905   0.249   1.849   7.458  0.6456 -1.7536  0.0198
 1448TIP3   OH225906   3.810   1.329   2.172  0.1039  0.1116  0.0865
 1448TIP3    H125907   3.759   1.387   2.115 -0.8877  0.3665  1.1906
 1448TIP3    H225908   3.839   1.258   2.114 -0.0105  0.8777 -0.9449
 1449TIP3   OH225909   6.041   2.168   1.075  0.2076  0.6907  0.1287
 1449TIP3    H125910   6.075   2.190   1.162  1.0350  2.4936 -0.5967
 1449TIP3    H225911   5.948   2.151   1.089  0.7215 -1.1300  1.6636
 1450TIP3   OH225912   2.948   2.443   0.631 -0.5141 -0.2574 -0.1567
 1450TIP3    H125913   2.910   2.475   0.550 -0.4718 -0.9255 -0.4463
 1450TIP3    H225914   2.894   2.483   0.700 -1.2272 -0.5424 -0.5411
 1451TIP3   OH225915   1.114   3.589   7.652  0.1826 -0.0644 -0.6114
 1451TIP3    H125916   1.170   3.564   7.579  0.1744  0.1876 -0.7042
 1451TIP3    H225917   1.137   3.528   7.722  0.5612  0.0245 -0.6557
 1452TIP3   OH225918   3.638   6.930   1.217  0.1013 -0.0529 -0.1552
 1452TIP3    H125919   3.616   6.914   1.125 -2.4643 -0.8227  0.5039
 1452TIP3    H225920   3.586   7.007   1.240  1.2453  0.5409  0.4992
 1453TIP3   OH225921   3.322   1.207   7.002  0.2126 -0.2095 -0.0033
 1453TIP3    H125922   3.272   1.285   7.023 -1.4645 -1.4274  0.7332
 1453TIP3    H225923   3.288   1.177   6.918 -0.5192 -1.1731  0.6095
 1454TIP3   OH225924   0.406   6.503   6.292 -0.4645 -0.2954  0.0323
 1454TIP3    H125925   0.333   6.474   6.237 -0.1715  0.0242 -0.5390
 1454TIP3    H225926   0.475   6.438   6.276 -1.4205 -2.0713  2.4942
 1455TIP3   OH225927   0.917   5.969   1.430 -0.2579  0.0420 -0.0909
 1455TIP3    H125928   0.832   5.993   1.466 -1.2935 -0.8427 -1.8104
 1455TIP3    H225929   0.952   5.905   1.491 -1.1451 -0.1112  0.2777
 1456TIP3   OH225930   0.836   0.044   7.278  0.5845  0.0242 -0.2207
 1456TIP3    H125931   0.916   0.068   7.231  1.1097 -0.7844  0.2499
 1456TIP3    H225932   0.765   0.073   7.220  1.1963  1.2321 -0.4026
 1457TIP3   OH225933   1.291   2.535   7.313  0.2939 -0.0633  0.1932
 1457TIP3    H125934   1.373   2.487   7.299  0.1258 -0.1232 -0.6121
 1457TIP3    H225935   1.233   2.471   7.356  0.8915  0.1980  1.4362
 1458TIP3   OH225936   6.501   4.995   0.532 -0.0039 -0.5224  0.5563
 1458TIP3    H125937   6.490   4.904   0.559 -2.7471 -0.4834 -0.0721
 1458TIP3    H225938   6.413   5.022   0.506  0.9450  1.9914 -0.3038
 1459TIP3   OH225939   2.983   6.622   0.066  0.2475 -0.7637  0.0009
 1459TIP3    H125940   3.072   6.657   0.079 -0.0720  0.6452 -1.2965
 1459TIP3    H225941   2.994   6.551   0.003  0.5170 -0.9318  0.2366
 1460TIP3   OH225942   4.976   2.076   1.280 -0.0984  0.3560  0.0133
 1460TIP3    H125943   4.940   2.130   1.351  0.3412  0.1034  0.4317
 1460TIP3    H225944   4.982   1.988   1.317 -0.4217  0.0957 -0.5316
 1461TIP3   OH225945   6.565   4.414   6.741 -0.1398  0.0097 -0.3321
 1461TIP3    H125946   6.596   4.324   6.733 -0.4955 -0.3328  1.6257
 1461TIP3    H225947   6.631   4.466   6.695  0.9988 -1.0882  0.0092
 1462TIP3   OH225948   5.760   2.671   0.529 -0.0781  0.3663 -0.2589
 1462TIP3    H125949   5.714   2.748   0.562 -0.3690 -0.0552  0.3584
 1462TIP3    H225950   5.836   2.662   0.586 -0.7596 -0.5588  0.5489
 1463TIP3   OH225951   1.037   6.209   6.194 -0.2371  0.0180  0.4244
 1463TIP3    H125952   1.116   6.237   6.240  0.1324  0.1600 -0.2762
 1463TIP3    H225953   0.965   6.226   6.255  0.3796 -1.2454  1.5460
 1464TIP3   OH225954   3.298   4.088   8.208 -0.2456  0.4215  0.2588
 1464TIP3    H125955   3.225   4.046   8.162 -1.0248  1.1596  0.8028
 1464TIP3    H225956   3.298   4.178   8.175 -1.8815  1.4703  2.8327
 1465TIP3   OH225957   6.863   1.168   6.751  0.2972  0.4562  0.0334
 1465TIP3    H125958   6.943   1.219   6.768 -0.0604  1.3856 -0.9071
 1465TIP3    H225959   6.795   1.213   6.801  0.4038 -0.5302  1.0990
 1466TIP3   OH225960   4.433   0.704   7.354  0.0195 -0.1569 -0.0781
 1466TIP3    H125961   4.427   0.793   7.319 -2.9251  0.3658  1.4729
 1466TIP3    H225962   4.527   0.692   7.372  0.5352  2.5612 -0.4705
 1467TIP3   OH225963   5.896   5.276   0.177  0.0570  0.0853  0.0731
 1467TIP3    H125964   5.915   5.337   0.106 -2.2439  0.0636 -0.6363
 1467TIP3    H225965   5.842   5.208   0.137  1.3497 -1.6700  1.1751
 1468TIP3   OH225966   2.057   0.495   1.115 -0.2683 -0.0620 -0.0849
 1468TIP3    H125967   2.132   0.435   1.120  0.3876  0.6537 -1.0534
 1468TIP3    H225968   1.981   0.438   1.129  0.2081 -1.4867 -2.5744
 1469TIP3   OH225969   4.528   5.748   0.749 -0.0663  0.0316  0.1542
 1469TIP3    H125970   4.608   5.784   0.710  0.5966 -0.8315  0.6822
 1469TIP3    H225971   4.525   5.657   0.718 -0.8266  0.0425  0.1746
 1470TIP3   OH225972   6.396   6.516   0.507 -1.0338 -0.3597 -0.1389
 1470TIP3    H125973   6.382   6.482   0.596  1.2137  0.4178  0.5953
 1470TIP3    H225974   6.390   6.611   0.516  0.2234 -0.2125 -0.5620
 1471TIP3   OH225975   6.393   0.308   2.295 -0.2041  0.8491 -0.3944
 1471TIP3    H125976   6.300   0.330   2.292 -0.2207  0.7471 -2.5069
 1471TIP3    H225977   6.395   0.214   2.315 -0.6896  0.4719 -1.9322
 1472TIP3   OH225978   2.508   1.938   6.708  0.3664  0.2044  0.0550
 1472TIP3    H125979   2.504   1.904   6.619 -1.6125 -1.5763  0.7441
 1472TIP3    H225980   2.501   2.033   6.698  0.7993  0.0743 -1.7062
 1473TIP3   OH225981   5.238   6.464   8.350  0.3812 -0.3527  0.2290
 1473TIP3    H125982   5.289   6.529   8.300  0.1512  1.6710  2.4437
 1473TIP3    H225983   5.236   6.499   8.439 -0.5414 -3.0243  1.3421
 1474TIP3   OH225984   2.616   2.023   7.970 -0.0254  0.5680  0.1091
 1474TIP3    H125985   2.646   1.973   8.046 -0.7815 -1.3824 -0.7995
 1474TIP3    H225986   2.677   1.999   7.900 -0.4764  0.8390 -0.3830
 1475TIP3   OH225987   4.176   1.051   1.758 -0.0254  0.2182 -0.1328
 1475TIP3    H125988   4.182   0.977   1.698  0.9515 -1.7722  2.2835
 1475TIP3    H225989   4.132   1.017   1.836  2.9315  1.2911  2.1963
 1476TIP3   OH225990   6.879   4.623   6.880  0.3551 -0.1355  0.2708
 1476TIP3    H125991   6.835   4.691   6.931  2.3052  0.9635  0.5815
 1476TIP3    H225992   6.853   4.640   6.790 -1.1418 -0.5558  0.5957
 1477TIP3   OH225993   4.935   1.049   2.298  0.0486 -0.5580 -0.3465
 1477TIP3    H125994   4.856   1.007   2.263  0.9491 -2.3309 -0.3595
 1477TIP3    H225995   4.904   1.099   2.374 -1.3824  0.5121 -1.5715
 1478TIP3   OH225996   3.508   5.254   1.694  0.1509 -0.8138  0.5604
 1478TIP3    H125997   3.529   5.164   1.670  0.9366 -0.1553 -1.4313
 1478TIP3    H225998   3.512   5.255   1.790 -0.0040 -2.9066  0.6273
 1479TIP3   OH225999   1.547   3.179   1.949 -0.6455 -0.4373 -0.0106
 1479TIP3    H126000   1.605   3.165   2.024 -2.0261 -0.2885  1.1219
 1479TIP3    H226001   1.461   3.195   1.988 -1.9313 -2.7769 -1.6675
 1480TIP3   OH226002   1.585   6.726   6.939  0.7853 -0.4785 -0.1260
 1480TIP3    H126003   1.537   6.645   6.921 -1.1163  0.1695  1.6156
 1480TIP3    H226004   1.599   6.725   7.033 -0.4700  1.7812  0.1589
 1481TIP3   OH226005   6.724   1.075   7.418  0.1362 -0.6763 -0.5666
 1481TIP3    H126006   6.731   1.130   7.340 -0.3284  0.2943  0.0416
 1481TIP3    H226007   6.650   1.017   7.401 -2.4564  2.0224  0.5304
 1482TIP3   OH226008   0.078   0.124   0.436 -0.4150  0.5606  0.5213
 1482TIP3    H126009   0.163   0.162   0.414 -0.0983  0.1978  1.0761
 1482TIP3    H226010   0.014   0.188   0.406  0.0618  0.8777  0.1737
 1483TIP3   OH226011   2.086   2.727   7.847 -0.3602  0.0283  0.6234
 1483TIP3    H126012   2.138   2.757   7.773 -1.5180  1.9587  0.5195
 1483TIP3    H226013   2.146   2.730   7.922  0.3669 -0.3404  0.0622
 1484TIP3   OH226014   2.099   3.020   7.689  0.8904 -0.5787 -0.1246
 1484TIP3    H126015   2.065   2.930   7.690  0.0076 -0.2730 -1.2767
 1484TIP3    H226016   2.032   3.071   7.644  0.5340  1.0260  2.0214
 1485TIP3   OH226017   3.499   5.682   6.892 -0.2284 -0.4628 -0.0249
 1485TIP3    H126018   3.562   5.642   6.952 -0.7693 -0.9648  0.2184
 1485TIP3    H226019   3.493   5.621   6.819  0.7905  0.3780 -0.8374
 1486TIP3   OH226020   1.129   4.717   7.532 -0.4371  0.5604 -0.6264
 1486TIP3    H126021   1.182   4.792   7.502 -1.7407  1.7078 -0.1596
 1486TIP3    H226022   1.061   4.756   7.586 -1.7696 -0.8775 -1.1922
 1487TIP3   OH226023   1.566   4.705   7.031 -0.1184  0.1739 -0.1979
 1487TIP3    H126024   1.509   4.746   6.966  2.0702 -0.0233 -2.4194
 1487TIP3    H226025   1.563   4.612   7.011  1.3367  0.2135 -0.7445
 1488TIP3   OH226026   0.468   4.805   6.027 -0.5223 -0.0506  0.2454
 1488TIP3    H126027   0.375   4.789   6.041 -0.2494 -2.6760 -0.3836
 1488TIP3    H226028   0.508   4.719   6.033  1.8605  0.9743  0.2251
 1489TIP3   OH226029   5.540   4.493   1.519  0.3660 -0.3191  0.0510
 1489TIP3    H126030   5.485   4.442   1.459  0.9886 -2.0650  0.9148
 1489TIP3    H226031   5.570   4.430   1.584  0.7203  1.2749  1.5122
 1490TIP3   OH226032   6.853   0.225   8.380 -0.1268 -0.1598  0.4853
 1490TIP3    H126033   6.849   0.135   8.412  1.7006  0.0596  1.4582
 1490TIP3    H226034   6.878   0.217   8.288  1.0902 -0.6361  0.8422
 1491TIP3   OH226035   2.446   0.050   0.629 -0.6533 -0.2872  0.1390
 1491TIP3    H126036   2.503   0.061   0.553 -0.5623 -1.2884  0.0559
 1491TIP3    H226037   2.495  -0.006   0.689 -0.5480  0.8263  1.1422
 1492TIP3   OH226038   5.115   4.918   1.412  0.4044 -0.2945 -0.1098
 1492TIP3    H126039   5.109   5.013   1.400  1.2487 -0.3995 -1.6487
 1492TIP3    H226040   5.114   4.906   1.507 -0.1519  1.2176  0.1037
 1493TIP3   OH226041   3.484   2.377   0.008 -0.0748  0.2691 -0.0131
 1493TIP3    H126042   3.427   2.339  -0.059  1.1109  0.4944 -1.2023
 1493TIP3    H226043   3.458   2.469   0.013  0.7548  0.6104 -1.2546
 1494TIP3   OH226044   4.243   2.603   6.227  0.8982  0.6151  0.5658
 1494TIP3    H126045   4.149   2.589   6.230  0.8437  0.7627 -0.1704
 1494TIP3    H226046   4.253   2.698   6.220  1.0885  0.5858  0.4165
 1495TIP3   OH226047   3.067   6.727   7.406 -0.2019 -0.1265  0.0760
 1495TIP3    H126048   3.089   6.787   7.477 -0.4915  1.3433 -0.9974
 1495TIP3    H226049   2.971   6.720   7.409 -0.1060 -1.3650  0.8036
 1496TIP3   OH226050   5.171   5.583   8.357  0.2550  0.1348 -0.2914
 1496TIP3    H126051   5.252   5.613   8.315 -0.5418  1.6512 -0.8080
 1496TIP3    H226052   5.136   5.518   8.296  0.6481  0.0875 -0.4724
 1497TIP3   OH226053   0.113   4.394   6.936 -0.1998  0.7040  0.0720
 1497TIP3    H126054   0.094   4.328   7.002  1.1291 -0.3093 -0.5072
 1497TIP3    H226055   0.159   4.464   6.983  0.4316  0.1477  0.2903
 1498TIP3   OH226056   2.224   4.822   1.376  0.0562  0.1950 -0.2683
 1498TIP3    H126057   2.235   4.806   1.282  2.0115 -2.7561  0.3483
 1498TIP3    H226058   2.313   4.830   1.410 -0.6037  3.7076  1.1075
 1499TIP3   OH226059   2.593   6.809   7.207 -0.7428  0.1759  0.2060
 1499TIP3    H126060   2.499   6.812   7.194 -0.4925  0.6986 -1.8726
 1499TIP3    H226061   2.622   6.900   7.199  0.0684 -0.1339 -0.6425
 1500TIP3   OH226062   1.912   3.902   7.134  0.5893 -0.0951 -0.2773
 1500TIP3    H126063   1.909   3.841   7.060 -0.2054  0.2788 -0.5671
 1500TIP3    H226064   1.820   3.925   7.150  0.7061 -0.4527  1.0729
 1501TIP3   OH226065   2.975   5.737   7.239 -0.4625 -0.0580 -0.3666
 1501TIP3    H126066   2.966   5.666   7.302 -0.2628  0.5664  0.3755
 1501TIP3    H226067   2.892   5.784   7.243  0.7478  2.1441  2.1321
 1502TIP3   OH226068   0.322   5.188   0.964  0.1369 -0.0248  0.0620
 1502TIP3    H126069   0.283   5.178   1.051  1.5946  0.2911  0.7874
 1502TIP3    H226070   0.257   5.236   0.914 -2.7725 -4.0450 -0.5089
 1503TIP3   OH226071   6.692   1.091   0.090 -0.0828 -0.7694 -0.0001
 1503TIP3    H126072   6.601   1.116   0.076 -0.4720 -0.5262  2.5590
 1503TIP3    H226073   6.730   1.164   0.139  1.0269 -1.5861  0.3964
 1504TIP3   OH226074   3.818   2.289   6.659  0.1468 -0.3087  0.1887
 1504TIP3    H126075   3.839   2.274   6.566  1.9808  1.2836  0.2796
 1504TIP3    H226076   3.781   2.377   6.661  2.4765  0.7252  1.2003
 1505TIP3   OH226077   1.244   0.197   0.104  0.0841 -0.0930 -0.4521
 1505TIP3    H126078   1.290   0.222   0.184  0.8990 -1.1765 -0.5589
 1505TIP3    H226079   1.183   0.269   0.087  0.9075  0.8076  0.3558
 1506TIP3   OH226080   1.213   2.620   1.011  0.1248  0.0308 -0.1209
 1506TIP3    H126081   1.251   2.703   0.981  0.0714  0.1037  0.0152
 1506TIP3    H226082   1.119   2.628   0.994  0.2066 -0.2703 -0.7457
 1507TIP3   OH226083   6.226   3.313   7.913  0.2631 -0.3756  0.2376
 1507TIP3    H126084   6.296   3.349   7.967 -0.8444 -1.6944  2.6931
 1507TIP3    H226085   6.271   3.249   7.857  1.5790  1.7180 -1.2410
 1508TIP3   OH226086   0.062   4.206   1.670  0.1981  0.5356  0.4249
 1508TIP3    H126087   0.128   4.222   1.603  0.6629  0.2966  0.8222
 1508TIP3    H226088   0.112   4.186   1.749 -0.3518 -0.8304  0.4476
 1509TIP3   OH226089   2.760   5.654   0.474 -0.1583 -0.1775 -0.5274
 1509TIP3    H126090   2.674   5.618   0.494  0.6631 -1.8235  0.2202
 1509TIP3    H226091   2.812   5.579   0.447  1.4373  0.5347  0.4233
 1510TIP3   OH226092   5.984   4.148   7.342 -0.0893  0.1952 -0.6925
 1510TIP3    H126093   6.072   4.127   7.371  0.3106  2.6605  0.1436
 1510TIP3    H226094   5.932   4.149   7.422 -0.4624  0.5106 -0.9335
 1511TIP3   OH226095   0.305   5.420   0.073 -0.3985  0.2377  0.2814
 1511TIP3    H126096   0.308   5.453   0.162  0.9314  1.2319 -0.1000
 1511TIP3    H226097   0.242   5.477   0.028  2.8687  3.4601 -0.7291
 1512TIP3   OH226098   6.627   0.559   7.471 -0.6398  0.0227  0.1311
 1512TIP3    H126099   6.671   0.601   7.545  0.6139 -2.0917  0.6624
 1512TIP3    H226100   6.673   0.592   7.394  0.7142 -0.7615  0.5756
 1513TIP3   OH226101   1.872   5.107   6.954 -0.1837  0.4549 -0.0178
 1513TIP3    H126102   1.834   5.186   6.992 -0.6070  1.7028 -2.7743
 1513TIP3    H226103   1.806   5.078   6.890 -0.5657 -2.8613  1.6668
 1514TIP3   OH226104   3.543   1.979   6.707 -0.3420  0.1935 -0.0603
 1514TIP3    H126105   3.594   2.036   6.764  0.8129 -1.2194  0.3649
 1514TIP3    H226106   3.457   1.974   6.748 -0.3471  1.2882  0.1032
 1515TIP3   OH226107   1.074   4.660   6.960  0.0985 -0.3492 -0.2742
 1515TIP3    H126108   1.112   4.656   7.048  1.5377 -0.9113 -0.8966
 1515TIP3    H226109   1.142   4.699   6.906 -1.6520  2.2982 -0.7322
 1516TIP3   OH226110   1.955   4.154   0.879 -0.1172  0.0074 -0.6564
 1516TIP3    H126111   2.041   4.127   0.847 -0.1655 -1.3243  0.2618
 1516TIP3    H226112   1.946   4.111   0.964 -1.0953  1.3025 -0.0683
 1517TIP3   OH226113   5.682   0.456   0.520  0.5109  0.6347 -0.4157
 1517TIP3    H126114   5.683   0.394   0.447  1.7359  0.4380 -0.2534
 1517TIP3    H226115   5.722   0.409   0.592 -1.6389  0.4613  0.7268
 1518TIP3   OH226116   6.409   6.767   6.453 -0.2075 -0.2596  0.4536
 1518TIP3    H126117   6.322   6.781   6.492  0.4881  0.9834  1.6210
 1518TIP3    H226118   6.435   6.853   6.421  0.7676 -0.5327  0.4816
 1519TIP3   OH226119   0.285   2.653   8.316 -0.4841 -0.5542 -0.2530
 1519TIP3    H126120   0.294   2.563   8.284 -2.7012 -1.8159  2.2055
 1519TIP3    H226121   0.196   2.679   8.290 -0.3290  0.4296  0.1655
 1520TIP3   OH226122   5.639   0.465   8.018 -0.1740  0.1980 -0.2293
 1520TIP3    H126123   5.640   0.561   8.009  1.2208  0.3711  1.2867
 1520TIP3    H226124   5.730   0.439   8.004 -0.1921 -0.6872  1.1539
 1521TIP3   OH226125   1.679   3.381   1.812  0.0346  0.2276  0.1428
 1521TIP3    H126126   1.643   3.312   1.868  0.8131  0.3987  0.8706
 1521TIP3    H226127   1.741   3.428   1.868  2.9190 -1.2437 -1.5647
 1522TIP3   OH226128   6.605   4.326   6.354 -0.4145  0.1637 -0.2181
 1522TIP3    H126129   6.701   4.328   6.356 -0.4289  0.3899  0.5293
 1522TIP3    H226130   6.584   4.285   6.270  0.3199  1.0623 -0.8552
 1523TIP3   OH226131   1.199   5.185   1.014 -0.0772  0.1620  0.1880
 1523TIP3    H126132   1.285   5.218   1.043  0.5855  0.2135 -1.7017
 1523TIP3    H226133   1.146   5.184   1.094  0.6381  3.3912  0.8520
 1524TIP3   OH226134   4.422   3.855   6.137  0.3019 -0.0196 -0.2339
 1524TIP3    H126135   4.408   3.945   6.109 -0.5136  0.3246  1.1991
 1524TIP3    H226136   4.348   3.836   6.194  0.3633 -1.6688 -0.6577
 1525TIP3   OH226137   1.343   6.850   6.855  0.1737 -0.8250 -0.3023
 1525TIP3    H126138   1.423   6.803   6.880  0.5684 -0.5783 -1.0669
 1525TIP3    H226139   1.358   6.875   6.764 -0.7060 -0.6155 -0.3951
 1526TIP3   OH226140   4.641   3.055   6.567  0.1954  0.2841 -0.6342
 1526TIP3    H126141   4.652   3.132   6.512 -0.9656  0.3642 -0.7758
 1526TIP3    H226142   4.642   2.981   6.506  2.0958  0.0900 -0.4247
 1527TIP3   OH226143   6.368   0.741   0.141  0.5135 -0.2433  0.1015
 1527TIP3    H126144   6.339   0.831   0.153  0.2292 -0.1854 -0.9694
 1527TIP3    H226145   6.288   0.689   0.148  0.6027 -0.3703  0.1954
 1528TIP3   OH226146   6.943   6.750   1.735 -0.0919 -0.0454 -0.1097
 1528TIP3    H126147   6.883   6.744   1.809 -1.4480  1.2883 -1.0255
 1528TIP3    H226148   7.012   6.687   1.754  0.3763  1.2437  2.9701
 1529TIP3   OH226149   3.550   3.758   7.061 -0.8447 -0.2668  0.4740
 1529TIP3    H126150   3.633   3.720   7.091 -0.2781  0.6055  0.0399
 1529TIP3    H226151   3.483   3.706   7.106 -0.0742 -1.0048  0.8121
 1530TIP3   OH226152   2.045   4.758   0.480 -0.1091  0.4749 -0.2288
 1530TIP3    H126153   2.073   4.749   0.571  0.1766  0.3271 -0.3281
 1530TIP3    H226154   2.122   4.731   0.429 -0.2779  0.5263 -0.5122
 1531TIP3   OH226155   2.118   1.049   6.677  0.1349 -0.1368 -0.0593
 1531TIP3    H126156   2.141   1.071   6.587 -2.9537 -0.9530 -1.1749
 1531TIP3    H226157   2.055   1.116   6.703 -0.3824 -0.9325  0.8160
 1532TIP3   OH226158   0.286   6.828   7.499  0.1301 -0.0239 -0.0100
 1532TIP3    H126159   0.364   6.807   7.550  0.1155  1.2305  0.5667
 1532TIP3    H226160   0.307   6.800   7.410  0.7253 -0.8951  0.3933
 1533TIP3   OH226161   6.806   2.142   7.834 -0.2209 -0.5436  0.3029
 1533TIP3    H126162   6.735   2.198   7.867 -1.5892 -0.7072 -2.1146
 1533TIP3    H226163   6.760   2.072   7.786  1.5602 -1.3991 -0.2159
 1534TIP3   OH226164   0.798   3.611   8.174  0.0547 -0.1856 -0.5650
 1534TIP3    H126165   0.776   3.623   8.267  1.6678 -0.2634 -0.1362
 1534TIP3    H226166   0.773   3.694   8.133 -2.3474 -0.7770 -0.4583
 1535TIP3   OH226167   1.351   3.468   1.222  0.5856 -0.2423 -1.0663
 1535TIP3    H126168   1.404   3.510   1.289 -0.0587 -0.8014 -0.1776
 1535TIP3    H226169   1.327   3.383   1.260 -1.6759  0.3421 -1.0223
 1536TIP3   OH226170   6.322   5.148   1.287 -0.8888 -0.1307  0.0190
 1536TIP3    H126171   6.369   5.179   1.365 -0.2377  0.1339 -0.4727
 1536TIP3    H226172   6.230   5.167   1.306 -0.8867 -1.2107  1.2528
 1537TIP3   OH226173   1.172   2.771   7.465 -0.3273 -0.3948 -0.1665
 1537TIP3    H126174   1.145   2.778   7.557  0.3267  0.2242 -0.0112
 1537TIP3    H226175   1.233   2.697   7.464 -1.7483 -1.6126 -0.4662
 1538TIP3   OH226176   4.559   4.232   0.690 -0.2605 -0.1424  0.3992
 1538TIP3    H126177   4.545   4.273   0.776 -0.7171 -0.8718  0.6835
 1538TIP3    H226178   4.650   4.203   0.692  0.8449  2.9078 -0.7146
 1539TIP3   OH226179   0.725   0.147   7.027 -0.7334  0.9763 -0.7150
 1539TIP3    H126180   0.759   0.237   7.035 -1.1570  1.2159 -1.5287
 1539TIP3    H226181   0.756   0.117   6.942 -2.0197  0.9720 -1.2028
 1540TIP3   OH226182   6.583   5.422   1.067  0.0519  0.2428  0.0155
 1540TIP3    H126183   6.612   5.341   1.110 -0.0976  0.5246  0.6574
 1540TIP3    H226184   6.579   5.399   0.975  0.2808 -0.4076  0.1571
 1541TIP3   OH226185   2.213   4.184   1.472 -0.3257 -0.4463 -0.2603
 1541TIP3    H126186   2.220   4.277   1.453 -2.2980 -0.3550 -0.7794
 1541TIP3    H226187   2.293   4.145   1.437  0.9769  1.1394  0.7959
 1542TIP3   OH226188   1.275   6.093   1.050  0.0408  0.4601 -0.4366
 1542TIP3    H126189   1.184   6.121   1.064  0.6566  3.2255 -1.3327
 1542TIP3    H226190   1.326   6.145   1.112  1.0075 -2.0400  1.0383
 1543TIP3   OH226191   6.006   0.766   1.673  0.3448 -0.3910  0.4983
 1543TIP3    H126192   6.028   0.675   1.696  1.2236 -0.2542  0.2381
 1543TIP3    H226193   6.070   0.790   1.607 -0.8128 -0.0570 -0.5442
 1544TIP3   OH226194   6.550   0.591   0.959  0.4531  0.1386  0.0187
 1544TIP3    H126195   6.514   0.640   1.032 -0.2009 -1.0232  0.5142
 1544TIP3    H226196   6.638   0.567   0.986 -0.4555 -2.0117  1.3601
 1545TIP3   OH226197   4.474   1.876   1.076 -0.1581  0.2023 -0.1339
 1545TIP3    H126198   4.550   1.840   1.123  1.1568  0.9197 -1.6216
 1545TIP3    H226199   4.508   1.899   0.990 -2.0400  0.7569 -0.7684
 1546TIP3   OH226200   4.943   1.219   8.272  0.6633  0.2267  0.1426
 1546TIP3    H126201   5.034   1.197   8.292  0.1534 -0.7411  1.5644
 1546TIP3    H226202   4.937   1.212   8.176  2.0663  0.2947  0.0339
 1547TIP3   OH226203   5.880   0.272   1.316  0.3468  0.3134  0.1627
 1547TIP3    H126204   5.905   0.297   1.404  2.9902 -0.5727 -0.2292
 1547TIP3    H226205   5.881   0.176   1.317 -1.9865  0.2291 -0.2671
 1548TIP3   OH226206   4.668   1.977   7.650  0.1865 -0.4537  0.1822
 1548TIP3    H126207   4.699   1.919   7.580  1.9079 -0.7839  1.1476
 1548TIP3    H226208   4.696   2.064   7.623 -0.8667 -0.2985 -0.4435
 1549TIP3   OH226209   4.352   3.711   8.213 -0.4969  0.0569 -0.0840
 1549TIP3    H126210   4.301   3.667   8.145 -0.3538 -0.6962  0.2855
 1549TIP3    H226211   4.373   3.642   8.276 -1.7612  1.0065  1.4306
 1550TIP3   OH226212   4.678   3.463   1.901 -0.6579 -0.5746 -0.3408
 1550TIP3    H126213   4.744   3.532   1.905 -0.2622 -0.9889  0.5192
 1550TIP3    H226214   4.596   3.508   1.882 -0.1782 -0.0242 -1.1517
 1551TIP3   OH226215   2.768   4.873   2.284  0.0571 -0.1061  0.5460
 1551TIP3    H126216   2.819   4.952   2.300 -1.9380  1.8361 -1.7894
 1551TIP3    H226217   2.809   4.834   2.207  0.5148 -0.9196  1.1868
 1552TIP3   OH226218   3.423   5.351   6.933 -0.2604  0.4844 -0.1303
 1552TIP3    H126219   3.352   5.304   6.892  0.2809 -0.7549  0.3106
 1552TIP3    H226220   3.497   5.343   6.872  0.2469 -0.4860  0.5891
 1553TIP3   OH226221   5.777   2.898   7.247 -0.5158 -0.3967  0.4345
 1553TIP3    H126222   5.755   2.985   7.214 -0.3258 -0.5409 -0.0929
 1553TIP3    H226223   5.844   2.866   7.186  1.2180  0.0524  2.0069
 1554TIP3   OH226224   6.236   2.904   1.643 -0.2958 -0.1541 -0.2558
 1554TIP3    H126225   6.201   2.819   1.619 -0.7779 -1.2124  3.4565
 1554TIP3    H226226   6.330   2.898   1.624  0.0541 -2.3842  1.7104
 1555TIP3   OH226227   6.794   2.774   6.816  0.2908  0.0949  0.1540
 1555TIP3    H126228   6.796   2.772   6.720  2.6375  1.1046  0.1076
 1555TIP3    H226229   6.815   2.864   6.839 -2.1240  0.3439  1.6693
 1556TIP3   OH226230   1.664   2.480   6.138  0.3251 -0.4351 -0.4917
 1556TIP3    H126231   1.725   2.546   6.170 -0.2372  0.1332 -0.5639
 1556TIP3    H226232   1.702   2.397   6.165  1.7429 -0.1733 -1.5709
 1557TIP3   OH226233   5.695   2.957   6.876  0.8444 -0.6341  0.0317
 1557TIP3    H126234   5.708   2.961   6.971  0.0162  1.5269  0.1293
 1557TIP3    H226235   5.772   3.000   6.839  0.5457 -0.2746 -0.1844
 1558TIP3   OH226236   6.956   1.840   1.631 -0.5309 -0.3755  0.1909
 1558TIP3    H126237   6.881   1.780   1.635 -0.2666 -0.6502  1.6654
 1558TIP3    H226238   7.002   1.826   1.714 -1.2440  2.8648  1.2546
 1559TIP3   OH226239   3.493   3.888   1.118 -0.1509 -0.2884  0.3092
 1559TIP3    H126240   3.542   3.857   1.193  0.1697  0.2574  0.3296
 1559TIP3    H226241   3.534   3.846   1.042  0.6384  0.5046  0.2849
 1560TIP3   OH226242   5.285   1.699   7.667 -0.0106  0.0740  1.1862
 1560TIP3    H126243   5.229   1.777   7.665  1.5301  1.2982 -1.8455
 1560TIP3    H226244   5.372   1.732   7.646  0.5652 -2.5216 -1.0931
 1561TIP3   OH226245   3.061   5.065   0.012  0.4058  0.2583  0.6271
 1561TIP3    H126246   3.089   5.004   0.080  1.3532  1.0496  0.9604
 1561TIP3    H226247   3.128   5.058  -0.055  0.3819  0.7526  0.5533
 1562TIP3   OH226248   6.661   5.711   0.627  0.6039 -0.1278  0.2305
 1562TIP3    H126249   6.679   5.626   0.588  1.6789 -1.1373  2.7661
 1562TIP3    H226250   6.725   5.721   0.697 -0.0329  2.4126  0.5782
 1563TIP3   OH226251   4.997   5.326   7.034  0.5112  0.8863  0.3544
 1563TIP3    H126252   5.073   5.350   7.088 -0.3031  0.1566  1.8896
 1563TIP3    H226253   4.995   5.230   7.036 -0.4087  0.8955  0.2943
 1564TIP3   OH226254   3.774   4.744   1.119  0.0533 -0.2432  0.0628
 1564TIP3    H126255   3.777   4.650   1.103  0.0983 -0.0404 -1.2514
 1564TIP3    H226256   3.707   4.777   1.059 -1.9234  0.2462  2.3935
 1565TIP3   OH226257   3.990   0.774   1.311  0.4895  0.1005 -0.3642
 1565TIP3    H126258   3.973   0.682   1.290  1.8227 -0.4973  1.0025
 1565TIP3    H226259   4.077   0.774   1.350  0.9842  2.1238 -1.3688
 1566TIP3   OH226260   0.280   3.951   0.718  0.0896  0.1973 -0.1293
 1566TIP3    H126261   0.249   3.950   0.627  0.1372 -0.3107 -0.1412
 1566TIP3    H226262   0.223   4.015   0.762 -0.1536  0.1943 -0.4355
 1567TIP3   OH226263   3.916   2.443   7.182 -0.2290  0.6101  0.6711
 1567TIP3    H126264   3.849   2.379   7.209  0.4969 -0.4873 -0.0361
 1567TIP3    H226265   3.884   2.479   7.100  0.7105 -1.0465 -0.4841
 1568TIP3   OH226266   5.900   2.889   1.864 -0.8177  0.5061 -0.6858
 1568TIP3    H126267   5.958   2.950   1.910  0.6559 -0.4269 -1.2210
 1568TIP3    H226268   5.959   2.826   1.823 -2.2381 -0.6179 -1.1057
 1569TIP3   OH226269   3.788   1.581   6.556  0.2356 -0.6013 -0.0368
 1569TIP3    H126270   3.753   1.669   6.542  0.4581 -0.5052 -0.0043
 1569TIP3    H226271   3.723   1.538   6.612 -0.5946 -0.9530 -1.2374
 1570TIP3   OH226272   4.411   5.664   7.163  0.1295  0.3151 -0.4079
 1570TIP3    H126273   4.495   5.627   7.136  0.1356 -1.4942  1.8095
 1570TIP3    H226274   4.347   5.625   7.104  0.6163  0.0380 -0.7573
 1571TIP3   OH226275   1.720   0.015   6.243 -0.0750 -0.0672  0.4591
 1571TIP3    H126276   1.689   0.044   6.328 -2.0384  1.2267 -0.6197
 1571TIP3    H226277   1.724  -0.080   6.249 -2.3044 -0.1482  1.3586
 1572TIP3   OH226278   0.912   3.721   1.033  0.0991 -0.0729  0.2442
 1572TIP3    H126279   0.957   3.788   0.981  1.0616 -0.6084  0.3757
 1572TIP3    H226280   0.979   3.656   1.052 -0.8049 -1.0258  0.2232
 1573TIP3   OH226281   6.416   2.433   6.710  0.0333  0.3196 -0.1437
 1573TIP3    H126282   6.468   2.485   6.649 -0.1772  1.8943  0.9749
 1573TIP3    H226283   6.477   2.407   6.778 -0.0640 -0.1305 -0.2244
 1574TIP3   OH226284   5.120   2.168   1.091 -0.0182 -0.1581 -0.0558
 1574TIP3    H126285   5.057   2.123   1.148 -0.3573 -1.1285 -1.1413
 1574TIP3    H226286   5.145   2.101   1.027  1.1395  0.6002 -0.4193
 1575TIP3   OH226287   4.069   2.931   6.650 -0.5507 -0.1175 -0.3454
 1575TIP3    H126288   4.066   2.880   6.569  0.2761  0.9766 -1.0886
 1575TIP3    H226289   4.086   3.020   6.622 -0.1311  0.2690  1.0560
 1576TIP3   OH226290   5.395   4.751   6.930 -0.3864  0.3240 -0.3014
 1576TIP3    H126291   5.334   4.718   6.996  2.7283 -0.6945  2.2806
 1576TIP3    H226292   5.412   4.675   6.874  0.2413 -0.0495  0.3853
 1577TIP3   OH226293   2.076   6.906   0.314 -0.3515 -0.0602  0.5111
 1577TIP3    H126294   2.089   7.000   0.320  0.6078 -0.2162  1.0750
 1577TIP3    H226295   2.110   6.882   0.227 -0.3194  0.0678  0.4892
 1578TIP3   OH226296   6.916   6.082   0.573  0.1135  0.2929  0.1042
 1578TIP3    H126297   6.999   6.103   0.530  0.3504 -2.1121 -0.7935
 1578TIP3    H226298   6.925   5.990   0.598 -2.2898 -0.0509 -0.0442
 1579TIP3   OH226299   5.108   2.235   7.565 -0.3032 -0.3021  0.1861
 1579TIP3    H126300   5.107   2.307   7.628  1.9489 -0.0063 -0.0432
 1579TIP3    H226301   5.119   2.278   7.480 -2.6019 -0.7407 -0.4165
 1580TIP3   OH226302   4.058   0.358   1.864 -0.2794 -0.0456 -0.2993
 1580TIP3    H126303   4.075   0.381   1.773 -0.2947  0.6570 -0.1364
 1580TIP3    H226304   4.144   0.339   1.901 -0.3491 -1.0580 -0.6420
 1581TIP3   OH226305   6.519   4.504   0.747 -0.2571  0.4147  0.0245
 1581TIP3    H126306   6.531   4.454   0.667 -0.7238  0.1700  0.1083
 1581TIP3    H226307   6.562   4.451   0.815 -1.9852 -0.6053  0.3766
 1582TIP3   OH226308   3.710   4.184   8.187 -0.0523 -0.2256  0.3495
 1582TIP3    H126309   3.665   4.099   8.189 -0.4366 -0.1005 -1.2735
 1582TIP3    H226310   3.640   4.249   8.194  0.1340 -0.0322  0.4475
 1583TIP3   OH226311   2.689   4.152   0.599 -0.0703  0.2239 -0.1612
 1583TIP3    H126312   2.724   4.064   0.588  0.8260  0.6454 -0.8355
 1583TIP3    H226313   2.687   4.165   0.694  2.8272  0.6048 -0.0583
 1584TIP3   OH226314   4.533   6.828   7.707 -0.2103 -0.0205 -0.1566
 1584TIP3    H126315   4.586   6.801   7.782  0.1464 -0.3780 -0.5304
 1584TIP3    H226316   4.539   6.924   7.707 -3.4420  0.3635  2.6179
 1585TIP3   OH226317   6.143   6.384   0.994 -0.0538  0.1974 -0.1659
 1585TIP3    H126318   6.217   6.353   1.046  0.6556  1.1128 -0.6170
 1585TIP3    H226319   6.076   6.407   1.059  0.7243  1.0815  0.3441
 1586TIP3   OH226320   1.960   1.845   1.078 -0.0756 -0.7374 -0.0077
 1586TIP3    H126321   1.984   1.909   1.145 -0.0649  1.5337 -2.0557
 1586TIP3    H226322   2.031   1.781   1.080  0.1288 -0.5258  1.8145
 1587TIP3   OH226323   4.244   2.034   7.408  0.5697 -0.6090 -0.2572
 1587TIP3    H126324   4.196   1.970   7.354  1.7570 -0.3957 -1.6276
 1587TIP3    H226325   4.189   2.045   7.486 -3.1520  1.6311 -2.8161
 1588TIP3   OH226326   3.673   0.209   1.963 -0.4042 -0.5344 -0.4117
 1588TIP3    H126327   3.663   0.186   2.055 -2.6065  1.2552 -0.1230
 1588TIP3    H226328   3.649   0.128   1.916 -1.3455 -0.8530  0.5747
 1589TIP3   OH226329   6.783   3.589   0.409  0.2482 -0.6454  0.2091
 1589TIP3    H126330   6.800   3.675   0.370  0.7831 -0.6962  0.3151
 1589TIP3    H226331   6.712   3.605   0.472  1.0569 -0.0492  1.0025
 1590TIP3   OH226332   3.924   3.730   0.040 -0.3750 -0.9217  0.2264
 1590TIP3    H126333   4.009   3.717  -0.001 -1.2512 -0.9304 -1.7038
 1590TIP3    H226334   3.870   3.770  -0.029 -0.9867  2.4480  2.4168
 1591TIP3   OH226335   2.207   5.642   0.288  0.1557 -0.1677  0.1728
 1591TIP3    H126336   2.195   5.715   0.348 -2.2869  0.6912 -1.2312
 1591TIP3    H226337   2.166   5.568   0.332  1.2187 -0.3274  0.9140
 1592TIP3   OH226338   3.779   6.370   1.218 -0.0931 -0.9237  0.1563
 1592TIP3    H126339   3.804   6.410   1.134 -0.9539  0.3671  0.4874
 1592TIP3    H226340   3.849   6.306   1.236  1.8437  1.0335  0.0291
 1593TIP3   OH226341   5.504   2.444   1.400 -0.1169  0.1413 -0.0734
 1593TIP3    H126342   5.445   2.471   1.470  0.0686  1.0784 -0.2629
 1593TIP3    H226343   5.592   2.461   1.435 -0.0345  1.0553 -0.6960
 1594TIP3   OH226344   0.881   6.416   7.294  0.4147  0.4463  0.1080
 1594TIP3    H126345   0.795   6.416   7.251 -1.1135  1.8392  2.8554
 1594TIP3    H226346   0.885   6.333   7.341  0.4274  0.5009  0.2046
 1595TIP3   OH226347   2.494   4.872   0.374  0.4975 -0.5296 -0.1205
 1595TIP3    H126348   2.562   4.886   0.308 -1.1810  1.0584 -1.6164
 1595TIP3    H226349   2.435   4.947   0.365 -1.7836 -2.1152  0.7062
 1596TIP3   OH226350   2.216   4.066   0.769  0.1752  0.4478 -0.2265
 1596TIP3    H126351   2.246   4.156   0.761 -1.3481  0.9893 -0.2722
 1596TIP3    H226352   2.296   4.013   0.770  1.1475  1.8692  0.9857
 1597TIP3   OH226353   5.685   6.235   6.813 -0.5078  0.5532 -0.5766
 1597TIP3    H126354   5.619   6.304   6.821 -1.9932 -0.4579 -3.1071
 1597TIP3    H226355   5.668   6.194   6.729  1.3754 -1.8627  0.0871
 1598TIP3   OH226356   5.459   6.894   1.373  0.0822  0.2432  0.2424
 1598TIP3    H126357   5.366   6.903   1.392 -0.2366  0.3454 -1.2287
 1598TIP3    H226358   5.467   6.914   1.280  1.8068  1.7249  0.6443
 1599TIP3   OH226359   3.642   6.944   6.022 -0.4682 -0.7104  0.6119
 1599TIP3    H126360   3.690   6.865   5.996  2.0616  0.5149  1.2255
 1599TIP3    H226361   3.612   6.927   6.111  1.6301 -0.4162  1.4405
 1600TIP3   OH226362   2.139   0.144   7.682 -0.3738 -0.8575 -0.2363
 1600TIP3    H126363   2.131   0.216   7.619  1.6356 -0.3414  0.0173
 1600TIP3    H226364   2.228   0.110   7.668 -0.4938 -1.8427  1.1725
 1601TIP3   OH226365   4.728   2.967   6.797 -0.0294 -0.2049  0.1127
 1601TIP3    H126366   4.671   2.897   6.829  0.4857 -0.1992  1.0758
 1601TIP3    H226367   4.711   2.969   6.703 -1.0703 -0.6956  0.2623
 1602TIP3   OH226368   2.157   5.728   0.006 -0.5231 -0.4401  0.4608
 1602TIP3    H126369   2.230   5.790   0.006  0.2738 -1.1819 -2.8554
 1602TIP3    H226370   2.167   5.679   0.087  2.7570 -0.5611  0.0988
 1603TIP3   OH226371   4.634   6.335   5.924 -0.2874 -0.1858  0.2141
 1603TIP3    H126372   4.681   6.418   5.925  0.3395 -0.5449  1.1411
 1603TIP3    H226373   4.552   6.354   5.969  0.2558 -0.2900  1.2681
 1604TIP3   OH226374   3.874   2.067   1.052  0.1664 -0.0069 -0.5201
 1604TIP3    H126375   3.804   2.010   1.020  0.2394 -0.4807  0.1436
 1604TIP3    H226376   3.894   2.033   1.139  1.7057 -0.2957 -0.9697
 1605TIP3   OH226377   3.424   0.082   1.272 -0.0459  0.2717  0.0498
 1605TIP3    H126378   3.407   0.052   1.361 -1.3947 -0.1988 -0.3550
 1605TIP3    H226379   3.340   0.115   1.241  0.2114 -0.3028 -1.3260
 1606TIP3   OH226380   1.847   0.431   6.165 -0.8646 -0.6699  0.5236
 1606TIP3    H126381   1.804   0.419   6.249 -2.4075  0.2243 -0.0999
 1606TIP3    H226382   1.791   0.385   6.102 -0.6000 -0.0029 -0.2231
 1607TIP3   OH226383   3.103   3.665   6.410 -0.6517  0.4533 -0.1174
 1607TIP3    H126384   3.127   3.573   6.418  2.5543  0.7073 -4.0115
 1607TIP3    H226385   3.029   3.666   6.350 -1.2271  0.4607  0.5674
 1608TIP3   OH226386   2.460   1.555   1.079 -0.0345  0.3595  0.0516
 1608TIP3    H126387   2.547   1.576   1.044  1.3091 -0.1084  2.8402
 1608TIP3    H226388   2.441   1.468   1.045  1.3215 -0.1865  0.6195
 1609TIP3   OH226389   1.443   5.565   7.898  0.1555  0.1268  0.0070
 1609TIP3    H126390   1.454   5.546   7.991 -1.0975 -0.1748  0.1121
 1609TIP3    H226391   1.369   5.627   7.895 -1.8920 -2.1944 -0.9406
 1610TIP3   OH226392   6.315   0.735   7.680 -0.1099  0.3594  1.0616
 1610TIP3    H126393   6.357   0.668   7.735 -1.4787  1.2660  3.3297
 1610TIP3    H226394   6.368   0.813   7.693  0.1869  0.3213  0.1722
 1611TIP3   OH226395   5.803   5.691   7.929  0.4531 -0.2840 -0.4383
 1611TIP3    H126396   5.854   5.716   7.852  0.3247 -0.8229 -0.7036
 1611TIP3    H226397   5.726   5.647   7.894 -0.5980  1.1818 -0.0611
 1612TIP3   OH226398   0.360   2.662   7.895 -0.6500 -0.0083  0.2040
 1612TIP3    H126399   0.302   2.586   7.887 -0.0095 -0.3589 -1.4203
 1612TIP3    H226400   0.443   2.633   7.857 -0.0097  1.1332  0.6750
 1613TIP3   OH226401   5.144   3.103   2.030 -0.2596 -0.1272  0.0549
 1613TIP3    H126402   5.211   3.041   2.061 -0.4976 -0.4096  0.0060
 1613TIP3    H226403   5.081   3.108   2.101 -0.8171 -0.7914 -0.3850
 1614TIP3   OH226404   0.826   1.566   7.026  0.5814 -0.3731  0.3245
 1614TIP3    H126405   0.852   1.479   6.995  0.9726  0.2684 -1.2390
 1614TIP3    H226406   0.767   1.599   6.958  2.8876  1.8250 -0.7807
 1615TIP3   OH226407   3.215   6.751   7.778  0.4198 -0.1011 -0.0964
 1615TIP3    H126408   3.195   6.832   7.731  0.9449  1.2083  1.8472
 1615TIP3    H226409   3.303   6.727   7.749  0.7198  0.6616  0.1817
 1616TIP3   OH226410   3.009   6.054   8.335 -0.3165  0.5519 -0.0449
 1616TIP3    H126411   3.101   6.029   8.334 -0.5100 -0.1868 -0.3708
 1616TIP3    H226412   3.009   6.146   8.360  0.4413  0.2631  1.1212
 1617TIP3   OH226413   4.795   6.707   1.646  0.0685  0.3073  0.5470
 1617TIP3    H126414   4.884   6.673   1.658 -0.3237 -0.7481  0.5940
 1617TIP3    H226415   4.738   6.632   1.663 -0.9130  1.3054  1.9021
 1618TIP3   OH226416   2.300   0.950   7.992  0.1355  0.0267  0.8004
 1618TIP3    H126417   2.266   1.036   7.968 -1.3913 -0.6189  0.5650
 1618TIP3    H226418   2.231   0.911   8.045  0.7415 -1.1218  0.7696
 1619TIP3   OH226419   0.869   1.110   6.903 -0.0740 -0.1572 -0.2234
 1619TIP3    H126420   0.849   1.129   6.812 -0.5307  1.4016  0.1627
 1619TIP3    H226421   0.785   1.118   6.949 -0.2182 -2.7854  0.1023
 1620TIP3   OH226422   4.674   2.711   0.344 -0.5179  0.0925 -0.2789
 1620TIP3    H126423   4.758   2.688   0.382 -0.0136 -0.8011 -1.8704
 1620TIP3    H226424   4.609   2.670   0.402  0.1657 -0.1287  0.3387
 1621TIP3   OH226425   1.137   0.385   6.598  0.0552 -0.3043 -0.2813
 1621TIP3    H126426   1.192   0.307   6.596  0.7456  0.1179  1.0471
 1621TIP3    H226427   1.114   0.400   6.507  0.8648 -1.3870 -0.6914
 1622TIP3   OH226428   3.646   4.709   6.345  0.5792  0.8615  0.6384
 1622TIP3    H126429   3.728   4.672   6.313  0.6717  1.4905  0.1496
 1622TIP3    H226430   3.620   4.773   6.279 -0.2150  0.7974  0.8766
 1623TIP3   OH226431   2.332   6.177   1.248  0.1335 -0.4061  0.2375
 1623TIP3    H126432   2.240   6.178   1.272 -0.8097 -1.5985 -2.8600
 1623TIP3    H226433   2.351   6.085   1.228  1.6881 -0.0174 -0.2509
 1624TIP3   OH226434   3.092   1.172   6.126  0.4684  0.1600  0.4504
 1624TIP3    H126435   3.037   1.102   6.162  1.3513 -0.2570  1.0163
 1624TIP3    H226436   3.037   1.214   6.060 -0.3609 -0.5510  0.6736
 1625TIP3   OH226437   6.315   5.196   0.076  0.0485 -0.3039  0.2398
 1625TIP3    H126438   6.265   5.188  -0.006  0.6941 -1.5330 -0.0421
 1625TIP3    H226439   6.255   5.163   0.143 -0.0193 -0.4842  0.0923
 1626TIP3   OH226440   5.453   1.977   8.383  0.9163 -0.6909  0.2596
 1626TIP3    H126441   5.445   2.070   8.404  1.3149 -0.4958 -0.4171
 1626TIP3    H226442   5.447   1.933   8.467  1.2379 -0.0183  0.6460
 1627TIP3   OH226443   1.755   2.233   1.039 -0.5086 -0.3795  0.1105
 1627TIP3    H126444   1.665   2.236   1.005 -0.0701  1.3032 -0.9867
 1627TIP3    H226445   1.805   2.186   0.972 -0.4377 -0.8080  0.4543
 1628TIP3   OH226446   6.520   6.475   7.949  0.4947 -0.2597  0.4108
 1628TIP3    H126447   6.466   6.539   7.994 -0.9314 -1.6782  0.8159
 1628TIP3    H226448   6.599   6.523   7.924  0.0928  1.2719  1.9157
 1629TIP3   OH226449   6.868   4.069   7.415 -0.1708  0.5939 -0.0451
 1629TIP3    H126450   6.917   4.085   7.496  1.0225  0.8626 -0.8038
 1629TIP3    H226451   6.846   4.156   7.382 -0.5402  0.4869 -0.0908
 1630TIP3   OH226452   2.059   3.882   2.049 -0.6478  0.4559  0.2029
 1630TIP3    H126453   2.075   3.807   2.105 -0.6660  1.2043  1.2402
 1630TIP3    H226454   2.012   3.944   2.105  1.0598  2.0302 -0.0210
 1631TIP3   OH226455   1.891   6.595   7.336 -0.2758 -0.1098 -0.1026
 1631TIP3    H126456   1.932   6.513   7.363  0.3604 -0.2026 -1.2915
 1631TIP3    H226457   1.916   6.658   7.403  0.9448 -0.4127 -0.2495
 1632TIP3   OH226458   4.526   5.973   5.909  0.2343  0.1300  0.3287
 1632TIP3    H126459   4.602   6.022   5.876 -0.8240  1.1814 -0.6506
 1632TIP3    H226460   4.466   6.041   5.940 -0.5943 -0.6409  0.4309
 1633TIP3   OH226461   1.611   1.627   7.884  0.1827  0.5814  0.1497
 1633TIP3    H126462   1.681   1.562   7.874 -1.2227 -0.6936 -2.3308
 1633TIP3    H226463   1.562   1.598   7.960  1.2204  0.4230  0.7839
 1634TIP3   OH226464   4.731   1.359   1.209 -0.3400  0.4087 -0.5294
 1634TIP3    H126465   4.758   1.292   1.145 -0.6361 -0.2884  0.0708
 1634TIP3    H226466   4.814   1.394   1.242 -0.1638  1.2904 -1.7944
 1635TIP3   OH226467   1.478   1.877   8.075  0.3589  0.4577 -0.0175
 1635TIP3    H126468   1.413   1.826   8.028 -0.1840  0.0379  1.1475
 1635TIP3    H226469   1.446   1.967   8.072  0.0890  0.3591 -0.0530
 1636TIP3   OH226470   6.802   5.636   6.446  0.1821  0.3256 -0.5795
 1636TIP3    H126471   6.721   5.611   6.402  0.1246  1.2122 -0.9996
 1636TIP3    H226472   6.777   5.652   6.536  0.8605 -4.8650  0.8393
 1637TIP3   OH226473   1.437   2.528   5.990  0.0107  0.0122  0.0092
 1637TIP3    H126474   1.506   2.496   6.048  0.0967  0.0012 -0.0994
 1637TIP3    H226475   1.460   2.619   5.972 -0.6355  0.3828  0.9279
 1638TIP3   OH226476   4.280   4.179   1.288 -0.2455 -0.2333 -0.1401
 1638TIP3    H126477   4.375   4.167   1.291  0.0655  1.7262 -1.0465
 1638TIP3    H226478   4.250   4.114   1.225  0.8320  0.7576 -1.7440
 1639TIP3   OH226479   0.690   1.929   0.330  0.0584 -0.0110 -0.0510
 1639TIP3    H126480   0.673   1.844   0.370  0.7684 -0.7522 -1.2816
 1639TIP3    H226481   0.776   1.955   0.361  0.2006 -0.1374 -0.3366
 1640TIP3   OH226482   3.374   1.112   6.458  0.7611 -0.4558  0.2069
 1640TIP3    H126483   3.437   1.152   6.397  1.0530 -0.8523  0.2424
 1640TIP3    H226484   3.291   1.157   6.440  1.1755  0.4987  0.5728
 1641TIP3   OH226485   1.094   2.236   0.874 -0.3038  0.5311 -0.1937
 1641TIP3    H126486   1.040   2.186   0.813 -0.5223 -0.1909  0.5679
 1641TIP3    H226487   1.122   2.313   0.824 -0.2659 -0.1598 -1.2753
 1642TIP3   OH226488   6.431   6.814   0.513  0.3456 -0.5581 -0.5279
 1642TIP3    H126489   6.486   6.854   0.446 -0.6698  0.7965 -0.5998
 1642TIP3    H226490   6.359   6.876   0.525  0.5442 -0.6964  1.9096
 1643TIP3   OH226491   4.778   0.098   0.478  0.2058  0.2024  0.0722
 1643TIP3    H126492   4.832   0.058   0.410 -0.5746  1.7843 -1.5717
 1643TIP3    H226493   4.832   0.168   0.514 -0.7455  2.0353 -1.8361
 1644TIP3   OH226494   4.042   5.813   7.391 -0.8329  0.2887 -0.5129
 1644TIP3    H126495   4.020   5.765   7.312 -3.9892  1.7133 -0.6298
 1644TIP3    H226496   3.958   5.827   7.436  0.0420  4.1493  0.3342
 1645TIP3   OH226497   0.405   6.250   1.717  0.4590 -0.5966 -0.4452
 1645TIP3    H126498   0.426   6.293   1.634  0.2354 -0.8952 -0.6597
 1645TIP3    H226499   0.336   6.303   1.756 -1.0742 -1.6935 -1.5304
 1646TIP3   OH226500   1.274   6.228   8.384 -0.2819 -0.4232 -0.1302
 1646TIP3    H126501   1.245   6.211   8.474 -0.9356 -1.8145 -0.5765
 1646TIP3    H226502   1.358   6.273   8.394 -0.5263 -0.2225  1.1745
 1647TIP3   OH226503   2.217   5.375   7.479 -0.2685 -0.8797  0.3066
 1647TIP3    H126504   2.176   5.297   7.440 -0.5420 -0.7538  0.3447
 1647TIP3    H226505   2.310   5.353   7.482 -0.1528 -0.6521 -0.9829
 1648TIP3   OH226506   6.442   4.165   7.188 -0.3972  0.1736 -0.6954
 1648TIP3    H126507   6.488   4.144   7.107  3.1520 -1.6544  1.5410
 1648TIP3    H226508   6.509   4.205   7.243 -2.2378 -0.1011  1.9071
 1649TIP3   OH226509   1.297   2.686   0.665 -0.5463  0.2238  0.4528
 1649TIP3    H126510   1.273   2.756   0.726 -2.4308  1.0632 -1.1524
 1649TIP3    H226511   1.264   2.716   0.580 -2.1991 -2.9741 -0.1749
 1650TIP3   OH226512   1.905   3.807   1.845 -0.6325 -0.0291 -0.0168
 1650TIP3    H126513   1.953   3.840   1.922  1.1315  2.3548 -1.9520
 1650TIP3    H226514   1.819   3.782   1.879 -0.1861  1.5934  2.6335
 1651TIP3   OH226515   4.019   0.037   6.735  0.4817  0.1055  0.1474
 1651TIP3    H126516   4.049  -0.054   6.728  3.5499  1.0485 -0.5712
 1651TIP3    H226517   3.934   0.037   6.690  1.1549 -2.1119 -1.3338
 1652TIP3   OH226518   2.790   4.312   0.148 -0.5118 -0.8077 -0.0257
 1652TIP3    H126519   2.700   4.340   0.164  0.0263  0.1772  1.5271
 1652TIP3    H226520   2.827   4.379   0.091  0.0815  0.5093  1.7952
 1653TIP3   OH226521   4.743   5.732   7.155 -0.6818  0.1373 -0.1148
 1653TIP3    H126522   4.700   5.647   7.147 -1.1738  0.3683  0.0141
 1653TIP3    H226523   4.729   5.774   7.070  1.0193 -0.5602 -0.7881
 1654TIP3   OH226524   2.675   1.210   1.578  0.5294  0.0619 -0.3543
 1654TIP3    H126525   2.724   1.196   1.659  1.5761 -1.1188 -1.1607
 1654TIP3    H226526   2.615   1.136   1.573 -0.2650  0.6687 -0.1846
 1655TIP3   OH226527   6.542   1.846   7.647  0.8604 -0.0939  0.0552
 1655TIP3    H126528   6.509   1.771   7.597  1.0553 -1.1855  1.4984
 1655TIP3    H226529   6.636   1.846   7.630  0.9573 -0.5905  0.5637
 1656TIP3   OH226530   1.379   0.499   1.091 -0.4208 -0.2632  0.4011
 1656TIP3    H126531   1.339   0.587   1.090 -1.5337 -0.7480  0.4700
 1656TIP3    H226532   1.469   0.514   1.063 -0.2352  1.0697  1.5945
 1657TIP3   OH226533   3.312   3.412   6.931 -0.4174  0.1932 -0.3393
 1657TIP3    H126534   3.242   3.404   6.995  0.8094  0.9431  1.1856
 1657TIP3    H226535   3.302   3.500   6.894 -0.4227  0.2169 -0.2809
 1658TIP3   OH226536   3.666   2.567   6.728  0.4336 -0.9422 -0.0354
 1658TIP3    H126537   3.573   2.553   6.741  0.0355  0.4862 -1.1057
 1658TIP3    H226538   3.672   2.627   6.654  2.1677 -0.3167  0.5478
 1659TIP3   OH226539   1.963   4.192   7.734  0.1061 -0.2364  0.4498
 1659TIP3    H126540   1.914   4.273   7.749  0.9136  0.2897  0.2968
 1659TIP3    H226541   2.041   4.200   7.788  0.1237 -0.9836  0.5453
 1660TIP3   OH226542   4.909   2.652   0.448  0.3309 -0.5878  0.2711
 1660TIP3    H126543   4.929   2.721   0.386 -0.9780 -1.6528 -1.4384
 1660TIP3    H226544   4.969   2.667   0.521  2.1009  0.5958 -1.3297
 1661TIP3   OH226545   1.765   0.258   6.996  0.0748 -0.4096  0.3669
 1661TIP3    H126546   1.674   0.230   6.983 -0.4761  0.3620  2.3342
 1661TIP3    H226547   1.816   0.177   6.989 -0.9695 -1.1461  1.0606
 1662TIP3   OH226548   0.026   2.909   0.818  0.0843 -0.4668 -0.4345
 1662TIP3    H126549   0.082   2.987   0.820 -0.1451 -0.2912  1.6810
 1662TIP3    H226550  -0.063   2.943   0.825 -0.1080 -0.8668 -0.9066
 1663TIP3   OH226551   4.068   5.993   7.844 -0.1664 -0.0757  0.1677
 1663TIP3    H126552   4.148   6.003   7.897  2.3811  2.2267 -3.5828
 1663TIP3    H226553   4.050   5.899   7.845  2.9120 -0.7738  0.8612
 1664TIP3   OH226554   1.741   3.323   7.884 -0.0672 -0.4647  0.2908
 1664TIP3    H126555   1.743   3.286   7.973  0.0168 -0.0324  0.4690
 1664TIP3    H226556   1.682   3.398   7.891  2.8618  1.9660  0.9140
 1665TIP3   OH226557   5.664   4.730   7.015  0.4370  0.2177  0.0825
 1665TIP3    H126558   5.589   4.771   6.972  0.9356  1.4588  0.3405
 1665TIP3    H226559   5.740   4.771   6.973  0.9620 -0.5503  0.2728
 1666TIP3   OH226560   5.594   1.809   8.218 -0.0212 -0.0235  0.1225
 1666TIP3    H126561   5.530   1.833   8.285  0.9184  0.6482  0.8023
 1666TIP3    H226562   5.656   1.882   8.217  0.8170 -0.7266 -0.4171
 1667TIP3   OH226563   5.493   5.775   1.026  0.2930 -0.5075 -0.2043
 1667TIP3    H126564   5.555   5.778   0.953  2.3592  0.8918  1.5028
 1667TIP3    H226565   5.506   5.689   1.065 -0.3461 -1.0065 -1.0665
 1668TIP3   OH226566   4.209   2.917   2.654 -0.1297  0.4830 -0.1239
 1668TIP3    H126567   4.128   2.866   2.649  0.6731 -0.7336 -1.3767
 1668TIP3    H226568   4.243   2.919   2.565  0.4596  2.2855  0.1046
 1669TIP3   OH226569   3.245   0.649   8.057  0.6494 -0.0966  0.3904
 1669TIP3    H126570   3.290   0.614   7.980 -0.4530 -0.5383 -0.0863
 1669TIP3    H226571   3.278   0.597   8.130 -1.5498 -2.9123 -0.3872
 1670TIP3   OH226572   3.031   2.041   0.469 -0.2900 -0.1852  0.9387
 1670TIP3    H126573   2.954   2.032   0.413  0.7709  2.9593 -1.3050
 1670TIP3    H226574   2.997   2.034   0.558 -2.6445 -1.7644  0.0198
 1671TIP3   OH226575   3.140   3.934   6.493 -0.1687 -0.4612  0.6018
 1671TIP3    H126576   3.059   3.982   6.474  1.6579  2.0151 -1.5096
 1671TIP3    H226577   3.119   3.843   6.471 -1.7710  0.4674 -2.2088
 1672TIP3   OH226578   5.581   4.762   0.969  0.0441 -0.7058  0.1902
 1672TIP3    H126579   5.656   4.761   0.909  0.0540  1.3870  0.0979
 1672TIP3    H226580   5.505   4.769   0.912  0.0736  1.6903  0.3562
 1673TIP3   OH226581   2.208   3.059   7.998 -0.4437 -0.4215  0.1248
 1673TIP3    H126582   2.121   3.023   7.982 -0.7307 -0.1849  1.0345
 1673TIP3    H226583   2.231   3.105   7.917 -0.7754 -1.2368 -0.4420
 1674TIP3   OH226584   0.485   1.116   1.898  0.4245  0.1011 -0.2212
 1674TIP3    H126585   0.398   1.110   1.937  0.3961  1.1549 -0.1012
 1674TIP3    H226586   0.518   1.026   1.900  0.2676  0.0435  1.8511
 1675TIP3   OH226587   0.808   0.687   0.291  0.2513  0.2881 -0.0488
 1675TIP3    H126588   0.877   0.630   0.326 -0.0787 -1.1983 -1.6536
 1675TIP3    H226589   0.834   0.775   0.318  1.4837 -0.4667  1.4311
 1676TIP3   OH226590   2.738   6.416   8.385 -0.0665  0.0157 -0.8941
 1676TIP3    H126591   2.736   6.501   8.342 -1.1541  0.4153 -0.0665
 1676TIP3    H226592   2.815   6.373   8.347 -0.5260  0.6498 -2.6565
 1677TIP3   OH226593   2.062   2.829   7.007  0.1290 -0.1247 -0.7260
 1677TIP3    H126594   2.033   2.899   6.949 -1.4511  0.7711  1.0420
 1677TIP3    H226595   2.089   2.874   7.087 -3.0624 -1.5388  1.3372
 1678TIP3   OH226596   0.720   6.460   8.134 -0.3182  0.1965  0.3513
 1678TIP3    H126597   0.785   6.485   8.068 -0.4865 -1.3035 -0.4091
 1678TIP3    H226598   0.636   6.463   8.088 -0.6262  0.6060  0.9184
 1679TIP3   OH226599   4.447   5.679   7.460  0.0647  0.1781 -0.1932
 1679TIP3    H126600   4.378   5.736   7.493  1.4884  2.5520 -1.0882
 1679TIP3    H226601   4.434   5.680   7.365  1.2013  0.5280 -0.3584
 1680TIP3   OH226602   0.260   1.785   8.334 -0.3665  0.2376  0.2122
 1680TIP3    H126603   0.307   1.743   8.262 -0.7385  0.3699 -0.1128
 1680TIP3    H226604   0.169   1.760   8.321 -0.4643  0.4312  0.5193
 1681TIP3   OH226605   1.002   6.025   6.417  0.4472 -0.2747 -0.1112
 1681TIP3    H126606   1.052   5.962   6.366 -0.8066 -0.6200 -0.9505
 1681TIP3    H226607   0.918   5.982   6.435 -0.0161  0.7255  0.2454
 1682TIP3   OH226608   1.248   2.141   7.638  0.0571 -0.4759  0.0705
 1682TIP3    H126609   1.338   2.140   7.605  0.5860  2.5678  1.0408
 1682TIP3    H226610   1.199   2.190   7.573  0.0263  1.2332  1.2990
 1683TIP3   OH226611   4.089   6.141   6.370 -0.1618 -0.8621 -0.3579
 1683TIP3    H126612   4.026   6.109   6.305 -0.3295  0.6497 -0.9983
 1683TIP3    H226613   4.150   6.194   6.319  1.3074 -1.8215  0.3507
 1684TIP3   OH226614   3.562   6.925   0.300 -0.3617 -0.3950 -0.2544
 1684TIP3    H126615   3.587   7.003   0.251 -2.4420  0.4685 -0.0314
 1684TIP3    H226616   3.589   6.852   0.245  1.3018  0.4687 -0.6272
 1685TIP3   OH226617   2.849   2.609   1.387 -0.2377 -0.0021  0.3551
 1685TIP3    H126618   2.846   2.609   1.482  2.0817  0.2031  0.5031
 1685TIP3    H226619   2.760   2.587   1.359 -0.9477 -0.1093  2.5476
 1686TIP3   OH226620   2.514   5.189   0.514 -0.4878  0.3380 -0.8115
 1686TIP3    H126621   2.578   5.235   0.460  0.1117  2.2937  1.3981
 1686TIP3    H226622   2.564   5.163   0.592 -1.8909 -0.0529 -0.0131
 1687TIP3   OH226623   6.098   3.794   6.476 -0.0197  0.0025 -0.1123
 1687TIP3    H126624   6.054   3.749   6.548  1.8152 -1.0571  0.4135
 1687TIP3    H226625   6.080   3.740   6.399  1.1521 -1.0235  0.2938
 1688TIP3   OH226626   0.756   3.798   7.792  0.2759 -0.0824  0.5385
 1688TIP3    H126627   0.777   3.874   7.846 -1.1355  1.5661 -1.1003
 1688TIP3    H226628   0.664   3.780   7.812  1.0388 -2.6225  2.2800
 1689TIP3   OH226629   2.773   1.140   0.003 -0.5784 -0.0774 -0.1629
 1689TIP3    H126630   2.690   1.183   0.022 -1.8163 -3.4929  3.7708
 1689TIP3    H226631   2.752   1.077  -0.066 -0.7090  0.3677 -0.5373
 1690TIP3   OH226632   0.081   5.314   6.609 -0.3885 -0.0889  0.3249
 1690TIP3    H126633   0.162   5.294   6.656 -0.9775  0.3418  1.5779
 1690TIP3    H226634   0.018   5.250   6.642 -0.4865 -0.6498 -0.9052
 1691TIP3   OH226635   0.981   2.030   7.213 -0.4157 -0.4072 -0.6288
 1691TIP3    H126636   0.916   1.963   7.195 -0.0638 -0.5060 -1.5715
 1691TIP3    H226637   1.064   1.983   7.219  0.1942  0.1235 -3.5179
 1692TIP3   OH226638   1.752   5.758   0.040  0.6008 -0.4781 -0.7594
 1692TIP3    H126639   1.802   5.773   0.121 -1.5941 -2.0516  1.0190
 1692TIP3    H226640   1.765   5.665   0.022 -0.6629 -0.6224 -0.9710
 1693TIP3   OH226641   4.626   2.303   7.594 -0.6452  0.0096  0.1142
 1693TIP3    H126642   4.705   2.263   7.557 -0.2563  1.3908 -0.6173
 1693TIP3    H226643   4.554   2.263   7.545 -0.4587 -1.5082  1.0115
 1694TIP3   OH226644   4.571   1.401   0.671  0.3230 -0.3030  0.0137
 1694TIP3    H126645   4.583   1.420   0.764  0.5405  1.0388 -0.2581
 1694TIP3    H226646   4.645   1.345   0.648  0.1466 -0.8245  0.6905
 1695TIP3   OH226647   0.801   0.538   7.768 -0.2250  0.3389 -0.5418
 1695TIP3    H126648   0.865   0.531   7.697  0.1002 -0.3811 -0.1933
 1695TIP3    H226649   0.843   0.594   7.833  0.3081 -0.5922 -0.0617
 1696TIP3   OH226650   6.220   2.168   7.644  0.0412  0.0087 -0.1653
 1696TIP3    H126651   6.268   2.250   7.655 -2.2355  1.4594 -0.2075
 1696TIP3    H226652   6.258   2.128   7.566  2.0183  0.3886  0.5612
 1697TIP3   OH226653   2.664   5.279   7.827 -0.4885  0.2928  0.2437
 1697TIP3    H126654   2.667   5.348   7.893 -0.7622 -0.2853  0.8660
 1697TIP3    H226655   2.616   5.208   7.868 -0.8849  0.0175 -0.6694
 1698TIP3   OH226656   1.618   0.350   7.326  0.4030  0.4771  0.2644
 1698TIP3    H126657   1.584   0.320   7.410 -0.5713  0.7596 -0.0191
 1698TIP3    H226658   1.590   0.283   7.264  1.1753  0.2346  0.1653
 1699TIP3   OH226659   1.227   6.119   2.512 -0.2629  0.2031 -0.0217
 1699TIP3    H126660   1.218   6.035   2.467 -0.6493  0.3914 -0.2959
 1699TIP3    H226661   1.252   6.095   2.601  2.1192 -0.1411 -0.6981
 1700TIP3   OH226662   1.243   4.452   7.167 -0.6318 -0.3292 -0.0643
 1700TIP3    H126663   1.221   4.359   7.159  0.6764 -0.8122  1.3245
 1700TIP3    H226664   1.185   4.485   7.235  0.7914 -0.8818  1.4934
 1701TIP3   OH226665   6.806   1.061   0.796 -0.2533 -0.2082 -0.0739
 1701TIP3    H126666   6.828   1.037   0.707  1.0931 -1.4367  0.5532
 1701TIP3    H226667   6.736   1.126   0.787  0.1662  0.0292 -2.0105
 1702TIP3   OH226668   6.210   4.354   7.144 -0.3010 -0.3274  0.0083
 1702TIP3    H126669   6.139   4.346   7.208 -2.4991 -3.2498 -2.5135
 1702TIP3    H226670   6.276   4.291   7.172 -0.3990 -0.2685  0.3712
 1703TIP3   OH226671   0.378   2.306   1.861  0.2951 -0.1218 -0.5594
 1703TIP3    H126672   0.301   2.353   1.830  0.4200 -1.1639 -2.6002
 1703TIP3    H226673   0.427   2.371   1.911 -1.1165  0.9892 -0.5503
 1704TIP3   OH226674   4.941   3.385   1.015 -0.6074  0.2197 -0.1760
 1704TIP3    H126675   4.943   3.337   0.932 -0.4036  0.0946 -0.0977
 1704TIP3    H226676   5.012   3.347   1.067  1.7535  2.7709 -1.3141
 1705TIP3   OH226677   4.076   1.131   7.615  0.5152  0.3941  0.1014
 1705TIP3    H126678   4.018   1.055   7.613  1.3224 -0.2178 -0.7552
 1705TIP3    H226679   4.066   1.171   7.529  2.1655 -0.3752 -0.5044
 1706TIP3   OH226680   4.048   3.998   6.264 -0.0683 -0.2324 -0.1090
 1706TIP3    H126681   4.055   4.051   6.184  0.7853  2.2545  1.4871
 1706TIP3    H226682   4.086   3.913   6.240  1.6661  0.9558 -1.9390
 1707TIP3   OH226683   4.787   5.887   1.094 -0.0444 -0.4843  0.2610
 1707TIP3    H126684   4.827   5.844   1.018 -1.9384 -1.5246 -0.2201
 1707TIP3    H226685   4.794   5.822   1.164  0.8925  0.1161  0.7213
 1708TIP3   OH226686   1.477   2.867   7.227 -0.3903 -0.5420  0.7323
 1708TIP3    H126687   1.387   2.897   7.213 -0.3942 -0.3032  1.2506
 1708TIP3    H226688   1.517   2.869   7.140 -0.6907 -0.0093  0.6015
 1709TIP3   OH226689   5.828   0.668   7.015  0.2310  0.0712  0.2969
 1709TIP3    H126690   5.842   0.598   6.951 -3.8309  0.9678 -1.9461
 1709TIP3    H226691   5.778   0.626   7.086  0.9776  0.0006  0.7973
 1710TIP3   OH226692   2.821   0.060   0.273  0.1476  0.4475  0.2299
 1710TIP3    H126693   2.830   0.070   0.178  2.0697 -0.0148  0.3045
 1710TIP3    H226694   2.906   0.088   0.308 -1.1440  2.4671  2.0123
 1711TIP3   OH226695   3.758   0.650   0.676 -0.0179 -0.1769  0.6363
 1711TIP3    H126696   3.722   0.682   0.593  0.2253 -3.0348 -0.6904
 1711TIP3    H226697   3.853   0.661   0.667  0.2613 -2.8875 -0.7117
 1712TIP3   OH226698   0.978   3.827   7.617 -0.3052 -0.3645 -0.0674
 1712TIP3    H126699   1.006   3.739   7.641 -1.4456 -0.2283  1.9698
 1712TIP3    H226700   0.890   3.835   7.654  0.0344  1.8425  0.3909
 1713TIP3   OH226701   3.597   6.383   0.889  0.0518 -0.6529 -0.8772
 1713TIP3    H126702   3.599   6.292   0.918  0.0240 -0.2957  0.2695
 1713TIP3    H226703   3.661   6.427   0.944 -0.0312  0.0544 -1.3372
 1714TIP3   OH226704   4.285   4.026   0.587 -0.3666  0.0263  0.3424
 1714TIP3    H126705   4.369   3.983   0.603 -0.9941 -1.5007 -0.3071
 1714TIP3    H226706   4.269   4.014   0.494 -0.7629  1.3617  0.2190
 1715TIP3   OH226707   5.456   3.522   7.402  0.1283 -0.1677  0.5293
 1715TIP3    H126708   5.380   3.475   7.367  1.4190 -0.0664 -2.8034
 1715TIP3    H226709   5.531   3.468   7.378  1.3431  1.5116  0.3329
 1716TIP3   OH226710   6.965   1.794   7.860  0.4721 -0.9001  0.1521
 1716TIP3    H126711   7.018   1.870   7.837 -0.4559 -0.2729  0.0315
 1716TIP3    H226712   6.896   1.828   7.918  1.0217 -1.9435  1.4862
 1717TIP3   OH226713   0.475   1.381   2.010  0.2282  0.3378 -0.3008
 1717TIP3    H126714   0.570   1.394   2.008  0.1905  0.5803 -2.3261
 1717TIP3    H226715   0.462   1.291   1.978 -0.2556  0.6851 -1.1233
 1718TIP3   OH226716   1.535   2.081   2.441  0.1955 -0.4926  0.3540
 1718TIP3    H126717   1.471   2.141   2.402  1.9336  0.8657 -0.4970
 1718TIP3    H226718   1.496   1.994   2.428 -2.0799  0.3511  1.0502
 1719TIP3   OH226719   5.317   6.931   7.937  0.1165 -0.6537  0.4570
 1719TIP3    H126720   5.246   6.886   7.983  0.1519 -0.6327  0.5327
 1719TIP3    H226721   5.356   6.863   7.882  0.0100 -0.6548  0.3822
 1720TIP3   OH226722   1.355   6.943   6.001 -0.3028  0.3198 -0.2459
 1720TIP3    H126723   1.429   6.886   5.980  0.4580  0.6097  1.5411
 1720TIP3    H226724   1.279   6.885   6.000  0.0550 -0.1570 -1.2135
 1721TIP3   OH226725   5.581   4.537   7.196  0.1906 -0.1086  0.5838
 1721TIP3    H126726   5.533   4.583   7.265 -2.0827  0.2238 -1.0828
 1721TIP3    H226727   5.619   4.607   7.142  0.4630 -0.3141  0.5054
 1722TIP3   OH226728   4.431   1.616   6.692  0.3152  0.4245 -0.0971
 1722TIP3    H126729   4.339   1.630   6.714  0.0911 -1.4333  0.2958
 1722TIP3    H226730   4.445   1.670   6.615 -1.2598  0.3287 -0.4972
 1723TIP3   OH226731   3.156   5.104   1.483 -0.5445 -0.1898  1.0609
 1723TIP3    H126732   3.232   5.156   1.457  0.8621 -2.3297  0.6106
 1723TIP3    H226733   3.151   5.114   1.578  0.6211 -0.3942  1.1594
 1724TIP3   OH226734   1.378   0.693   7.566  0.2977  0.0060 -0.2707
 1724TIP3    H126735   1.389   0.788   7.562  0.8345 -0.0785 -0.8957
 1724TIP3    H226736   1.431   0.659   7.493  0.9205 -0.8379  0.5501
 1725TIP3   OH226737   4.295   2.202   1.174  0.3399  0.5129 -0.5316
 1725TIP3    H126738   4.316   2.295   1.186 -1.1618  0.6741  1.0866
 1725TIP3    H226739   4.264   2.172   1.259  0.8769 -1.5283 -0.9951
 1726TIP3   OH226740   5.423   2.872   0.087  0.0251 -0.9086 -0.1202
 1726TIP3    H126741   5.491   2.891   0.022 -0.3433 -2.1852 -0.9105
 1726TIP3    H226742   5.388   2.957   0.111 -0.1948 -0.4275 -2.0062
 1727TIP3   OH226743   5.216   4.638   0.138  0.0622 -0.5861 -0.1550
 1727TIP3    H126744   5.276   4.703   0.175  1.5224 -1.2210 -1.3132
 1727TIP3    H226745   5.273   4.577   0.090 -1.5072 -1.2290 -1.2878
 1728TIP3   OH226746   6.188   0.908   1.520 -0.8042 -0.2061 -0.1278
 1728TIP3    H126747   6.246   0.957   1.462 -1.8141  1.3873  0.1450
 1728TIP3    H226748   6.232   0.908   1.604 -1.9861  2.7397  0.6074
 1729TIP3   OH226749   5.846   6.788   7.510  0.3096  1.2245 -0.2386
 1729TIP3    H126750   5.812   6.841   7.583  0.0674 -1.7362  1.9971
 1729TIP3    H226751   5.938   6.774   7.532  0.1690  0.0787 -0.3314
 1730TIP3   OH226752   2.194   0.247   1.161  0.1629  0.0159  0.5371
 1730TIP3    H126753   2.224   0.162   1.192  0.6612 -0.2864 -0.6892
 1730TIP3    H226754   2.246   0.263   1.081 -0.8222  0.8784  0.0409
 1731TIP3   OH226755   5.077   1.374   1.597 -0.7511 -0.3138  0.4050
 1731TIP3    H126756   4.992   1.407   1.628 -0.6612 -0.6086  0.9957
 1731TIP3    H226757   5.111   1.443   1.541 -0.1415  1.0168  2.3323
 1732TIP3   OH226758   1.216   5.618   7.438 -0.0613 -0.1279  0.0123
 1732TIP3    H126759   1.157   5.671   7.385  0.1712 -0.5984 -0.7335
 1732TIP3    H226760   1.266   5.681   7.489 -1.6248  0.2585  1.1275
 1733TIP3   OH226761   2.630   4.270   6.200  0.6199  0.4959  0.1577
 1733TIP3    H126762   2.556   4.283   6.140 -0.2863 -0.1622  1.1145
 1733TIP3    H226763   2.605   4.316   6.280  0.3232 -1.4120  1.2075
 1734TIP3   OH226764   2.818   5.150   6.432  0.1345 -0.0885 -0.4950
 1734TIP3    H126765   2.873   5.210   6.381 -0.2525  0.5455 -0.1816
 1734TIP3    H226766   2.771   5.207   6.494 -1.6044 -0.4641 -1.3941
 1735TIP3   OH226767   4.848   5.531   7.912  0.0318 -0.6604  0.0545
 1735TIP3    H126768   4.859   5.562   8.002  0.1200 -0.7155  0.0633
 1735TIP3    H226769   4.798   5.600   7.868  1.5158  0.2193 -0.3288
 1736TIP3   OH226770   1.129   0.862   1.637  0.8199 -0.0378  0.0927
 1736TIP3    H126771   1.069   0.846   1.564  2.2523  0.0153 -1.1406
 1736TIP3    H226772   1.138   0.777   1.679  0.7461 -0.2969 -0.3986
 1737TIP3   OH226773   3.767   4.095   0.405  0.2506 -0.0939  0.3506
 1737TIP3    H126774   3.709   4.172   0.405  2.4136  1.6455  0.6864
 1737TIP3    H226775   3.783   4.077   0.313 -0.8053 -0.6230  0.2523
 1738TIP3   OH226776   5.886   4.085   8.072 -0.1900  0.2018 -0.4796
 1738TIP3    H126777   5.838   4.018   8.120 -3.0615  0.3020 -2.9373
 1738TIP3    H226778   5.831   4.164   8.079  0.0368  0.6008 -2.6228
 1739TIP3   OH226779   6.229   4.255   2.365 -0.1844 -0.1424 -0.3001
 1739TIP3    H126780   6.278   4.212   2.295  1.7213 -1.4915  1.7102
 1739TIP3    H226781   6.266   4.343   2.370  0.4922 -0.4213 -0.2710
 1740TIP3   OH226782   0.484   5.228   6.519 -0.1779 -0.8293  0.1164
 1740TIP3    H126783   0.490   5.310   6.471 -0.4135 -0.5885  0.4936
 1740TIP3    H226784   0.419   5.176   6.471 -0.0264 -0.7946 -0.1228
 1741TIP3   OH226785   1.053   1.901   2.099 -0.0934 -0.0487 -0.4567
 1741TIP3    H126786   0.966   1.869   2.076  0.0226 -0.8576  0.2161
 1741TIP3    H226787   1.103   1.823   2.122  1.2194  0.2601 -2.0963
 1742TIP3   OH226788   1.724   1.896   6.304  0.3631  0.2949 -0.5751
 1742TIP3    H126789   1.730   1.941   6.220 -0.8927  0.6533 -0.4931
 1742TIP3    H226790   1.809   1.911   6.345  0.3650  1.6714 -1.0194
 1743TIP3   OH226791   5.778   6.490   1.190 -0.1592 -0.3198 -0.0040
 1743TIP3    H126792   5.724   6.538   1.128  1.4065 -0.4100 -1.5491
 1743TIP3    H226793   5.730   6.409   1.207  0.3331 -1.3850 -3.0130
 1744TIP3   OH226794   2.564   6.232   8.118 -0.6043  0.4019  0.0273
 1744TIP3    H126795   2.558   6.137   8.108  2.0770  0.1750  0.0573
 1744TIP3    H226796   2.608   6.262   8.039  0.7612  1.3014  1.0916
 1745TIP3   OH226797   4.038   2.974   2.217 -0.1866 -0.7064  0.0337
 1745TIP3    H126798   4.072   2.929   2.140  0.0889  1.9000 -1.5004
 1745TIP3    H226799   4.113   2.978   2.277  0.1406 -1.1398 -0.3372
 1746TIP3   OH226800   6.528   6.343   0.816  0.1704  0.1467  0.2324
 1746TIP3    H126801   6.508   6.254   0.844  0.9208 -0.5890 -1.3982
 1746TIP3    H226802   6.572   6.383   0.891  1.2988 -1.4057  0.4322
 1747TIP3   OH226803   0.611   6.309   1.888 -0.1296 -0.1255  0.0785
 1747TIP3    H126804   0.521   6.277   1.876 -0.1457 -0.4834  1.0560
 1747TIP3    H226805   0.634   6.347   1.803 -1.1040 -0.2741 -0.2708
 1748TIP3   OH226806   4.928   4.605   7.040 -0.2347  0.5992  0.0698
 1748TIP3    H126807   4.867   4.665   7.083 -0.2078  0.7520 -0.1028
 1748TIP3    H226808   4.915   4.521   7.085  0.0003  0.8267  0.5719
 1749TIP3   OH226809   1.884   2.037   7.045  0.2255  0.3645  0.5745
 1749TIP3    H126810   1.931   2.038   6.961 -1.7154  1.4625 -0.5493
 1749TIP3    H226811   1.857   1.946   7.055  0.6674  0.1758  0.1248
 1750TIP3   OH226812   2.664   0.623   8.035  0.4458  0.0486  0.0095
 1750TIP3    H126813   2.602   0.696   8.033 -0.8769 -1.0474  0.1382
 1750TIP3    H226814   2.613   0.547   8.006  1.3391 -1.1686  1.5192
 1751TIP3   OH226815   5.204   4.359   0.395 -0.6951  0.2976 -0.0848
 1751TIP3    H126816   5.134   4.320   0.342 -1.6446  1.5794  0.1747
 1751TIP3    H226817   5.181   4.452   0.400 -1.0464  0.1317  3.2064
 1752TIP3   OH226818   2.998   4.237   1.075  0.7010 -0.3373 -0.0163
 1752TIP3    H126819   2.927   4.292   1.108  0.3117 -1.1419  0.5283
 1752TIP3    H226820   2.975   4.221   0.984 -0.1752 -1.0985  0.3099
 1753TIP3   OH226821   0.967   4.753   0.663  0.3226 -0.1566 -0.8623
 1753TIP3    H126822   0.883   4.709   0.678 -0.1707  0.9430 -0.2976
 1753TIP3    H226823   0.949   4.816   0.594  0.2851  1.1201  0.2747
 1754TIP3   OH226824   1.123   3.422   1.659  0.0417 -0.6454  0.0561
 1754TIP3    H126825   1.208   3.466   1.662 -0.5636  0.5162  1.2229
 1754TIP3    H226826   1.133   3.348   1.720  0.3633 -0.8126 -0.1936
 1755TIP3   OH226827   4.854   2.141   7.498  1.0125 -0.2660  0.1668
 1755TIP3    H126828   4.928   2.150   7.558  0.0388 -1.7200  1.6560
 1755TIP3    H226829   4.892   2.104   7.419  2.0505  0.0026  0.5236
 1756TIP3   OH226830   5.585   0.673   1.195 -0.0771 -0.2691  0.3008
 1756TIP3    H126831   5.671   0.685   1.157  0.2506 -0.1061  1.0769
 1756TIP3    H226832   5.566   0.755   1.240 -1.9710  0.8821 -2.3871
 1757TIP3   OH226833   5.093   4.645   0.810  0.0354  0.3776 -0.1069
 1757TIP3    H126834   5.044   4.617   0.887 -0.1102  2.7337  0.7525
 1757TIP3    H226835   5.148   4.570   0.788 -0.2986 -0.5516  1.9703
 1758TIP3   OH226836   4.280   5.167   7.413 -0.2309  0.0653 -0.1769
 1758TIP3    H126837   4.278   5.074   7.393 -0.9886  0.0484 -0.0555
 1758TIP3    H226838   4.207   5.204   7.363  1.0889  0.8918 -1.6013
 1759TIP3   OH226839   1.100   5.863   6.192  0.3081 -0.4253 -0.2164
 1759TIP3    H126840   1.161   5.795   6.164  1.6107  0.2243  0.9342
 1759TIP3    H226841   1.085   5.916   6.115  1.2992 -0.5262 -0.4833
 1760TIP3   OH226842   1.565   4.433   7.872 -0.0827 -0.3692 -0.9815
 1760TIP3    H126843   1.572   4.528   7.877  1.7044 -0.5416  1.9963
 1760TIP3    H226844   1.480   4.413   7.912  0.3185 -0.0611  0.0671
 1761TIP3   OH226845   5.549   0.149   2.095 -0.0519 -0.2193 -0.1559
 1761TIP3    H126846   5.500   0.068   2.110 -1.2559  0.8337  1.9243
 1761TIP3    H226847   5.496   0.218   2.134  1.4857  1.4549 -0.8586
 1762TIP3   OH226848   2.757   2.018   6.108 -0.1104 -0.2503 -0.1224
 1762TIP3    H126849   2.781   1.925   6.110  0.7079 -0.0466 -0.4795
 1762TIP3    H226850   2.661   2.017   6.102 -0.0295 -1.0938 -2.0654
 1763TIP3   OH226851   3.326   3.980   0.069 -0.1805 -0.0239 -0.2027
 1763TIP3    H126852   3.331   4.002  -0.024 -1.7433 -3.0503 -1.1563
 1763TIP3    H226853   3.411   4.004   0.105 -0.1550  2.8760 -1.9448
 1764TIP3   OH226854   6.811   0.012   7.870 -0.6653 -0.2094 -0.5374
 1764TIP3    H126855   6.795   0.101   7.837 -1.0890 -0.5161 -1.1741
 1764TIP3    H226856   6.728  -0.013   7.912  0.5573  1.1072  3.0721
 1765TIP3   OH226857   4.378   4.126   6.071 -0.2145  1.2294 -0.3297
 1765TIP3    H126858   4.371   4.154   6.163  1.7151  0.2817  0.1502
 1765TIP3    H226859   4.439   4.189   6.031  0.0954  0.7700 -0.5810
 1766TIP3   OH226860   6.848   2.232   0.512  0.2765 -0.2005  0.5696
 1766TIP3    H126861   6.815   2.314   0.549 -0.8529  0.1238 -1.0387
 1766TIP3    H226862   6.799   2.164   0.558 -0.1359  0.1181  0.6047
 1767TIP3   OH226863   0.220   2.446   0.703 -0.2191  0.7922  0.1587
 1767TIP3    H126864   0.174   2.368   0.734  0.7819  0.1644  0.0834
 1767TIP3    H226865   0.156   2.516   0.713 -1.6747 -0.2609 -1.1898
 1768TIP3   OH226866   6.537   1.291   7.552  0.0188  0.0322  0.3362
 1768TIP3    H126867   6.601   1.220   7.549 -0.2869 -0.2114 -1.2054
 1768TIP3    H226868   6.467   1.263   7.493 -0.8678  0.9021  0.9427
 1769TIP3   OH226869   0.988   4.804   6.310  0.3216 -0.0461  0.0743
 1769TIP3    H126870   1.072   4.759   6.303 -0.2294 -0.9048 -1.6239
 1769TIP3    H226871   0.927   4.736   6.339  0.2076  0.6119  1.4801
 1770TIP3   OH226872   2.898   4.616   1.868 -0.3232 -0.3143 -0.1892
 1770TIP3    H126873   2.846   4.536   1.878  1.3662 -1.3010  1.3921
 1770TIP3    H226874   2.842   4.675   1.819 -2.5868 -1.6106  0.6678
 1771TIP3   OH226875   1.231   4.539   0.076  0.0367  0.4118 -0.1108
 1771TIP3    H126876   1.269   4.546  -0.011  1.1622 -1.2268  0.2024
 1771TIP3    H226877   1.157   4.480   0.066 -0.1481  0.6339 -0.0527
 1772TIP3   OH226878   6.866   4.298   2.533 -0.1120 -0.0788 -0.6749
 1772TIP3    H126879   6.897   4.212   2.504  0.3838 -0.6603  1.3935
 1772TIP3    H226880   6.782   4.280   2.575 -1.5267  0.9528 -2.9282
 1773TIP3   OH226881   6.563   5.461   7.051  0.3190  0.0070 -0.1679
 1773TIP3    H126882   6.580   5.421   6.965  1.6266 -0.8705  0.4706
 1773TIP3    H226883   6.501   5.532   7.032  1.8077  0.9070 -2.1057
 1774TIP3   OH226884   5.621   0.445   7.620 -0.4939  0.3312  0.3316
 1774TIP3    H126885   5.707   0.461   7.659 -0.1122  0.6005 -0.5968
 1774TIP3    H226886   5.560   0.458   7.692  0.1150  1.8726  0.6224
 1775TIP3   OH226887   3.575   0.611   1.946 -0.8473 -0.2522 -0.0040
 1775TIP3    H126888   3.557   0.612   2.040 -2.8612  0.0229 -0.3341
 1775TIP3    H226889   3.662   0.573   1.938  0.3032  1.7167  2.0875
 1776TIP3   OH226890   2.427   0.487   1.253  0.3250  0.0044 -0.4718
 1776TIP3    H126891   2.381   0.571   1.261 -0.0167 -0.1764 -0.4882
 1776TIP3    H226892   2.406   0.458   1.164 -0.0896 -0.3998 -0.2494
 1777TIP3   OH226893   6.817   1.723   7.614  0.3424 -0.5507 -0.0745
 1777TIP3    H126894   6.767   1.644   7.632  1.3360 -1.2351 -0.2866
 1777TIP3    H226895   6.866   1.740   7.695 -0.4652  0.3077  0.2503
 1778TIP3   OH226896   4.595   2.160   1.699  0.5969  0.0278 -0.2983
 1778TIP3    H126897   4.567   2.211   1.623  0.3933 -0.9119 -0.8736
 1778TIP3    H226898   4.520   2.160   1.758 -0.4969 -2.0183 -1.5918
 1779TIP3   OH226899   2.463   2.995   7.028  0.1004 -0.4398  0.3460
 1779TIP3    H126900   2.455   3.064   7.094  0.5100 -1.5662  1.6272
 1779TIP3    H226901   2.439   2.914   7.075 -0.7210 -1.1306 -1.1999
 1780TIP3   OH226902   3.475   1.875   8.131  0.1354  0.1120  0.5972
 1780TIP3    H126903   3.398   1.880   8.187 -1.4042  0.9588 -1.4725
 1780TIP3    H226904   3.477   1.784   8.101  0.6686 -0.2126  1.5787
 1781TIP3   OH226905   1.842   5.298   1.894  0.0593  0.3940  0.2902
 1781TIP3    H126906   1.909   5.354   1.854  0.9775 -0.4570  0.5662
 1781TIP3    H226907   1.886   5.260   1.971  0.5560 -2.9281 -1.4230
 1782TIP3   OH226908   6.283   4.709   0.009 -0.6938 -0.1073 -0.0230
 1782TIP3    H126909   6.301   4.717  -0.085 -0.4797 -0.8031 -0.0459
 1782TIP3    H226910   6.258   4.617   0.021  2.2309 -0.8896  1.0620
 1783TIP3   OH226911   5.334   3.849   1.394  0.1268  0.1681  0.2566
 1783TIP3    H126912   5.374   3.798   1.464  0.7892  0.3772  0.0423
 1783TIP3    H226913   5.353   3.940   1.417 -0.9048  0.3200  0.5519
 1784TIP3   OH226914   1.923   2.024   2.017  0.5781 -0.3260  0.4753
 1784TIP3    H126915   1.887   1.935   2.020  0.2278 -0.2343 -0.5085
 1784TIP3    H226916   1.856   2.075   1.970  1.6945 -0.0093 -0.8209
 1785TIP3   OH226917   5.222   0.988   0.125  0.8793 -0.2715  0.0489
 1785TIP3    H126918   5.243   1.031   0.208  3.3387 -1.0456 -0.1026
 1785TIP3    H226919   5.257   0.900   0.134 -0.1549 -0.8600 -1.2936
 1786TIP3   OH226920   3.201   6.224   0.392  0.1203 -0.0548  0.2047
 1786TIP3    H126921   3.175   6.286   0.324  0.0029 -0.3896 -0.0584
 1786TIP3    H226922   3.121   6.210   0.443 -0.1557 -0.8605 -0.4278
 1787TIP3   OH226923   3.808   0.624   7.988  0.3233  0.7495  0.0783
 1787TIP3    H126924   3.800   0.720   7.987 -0.8553  0.6714  0.4240
 1787TIP3    H226925   3.758   0.596   8.064 -1.2232 -0.2673 -1.2429
 1788TIP3   OH226926   0.553   4.924   1.465  0.0245  0.1518  0.2536
 1788TIP3    H126927   0.483   4.989   1.462  0.6863  0.9817  1.7768
 1788TIP3    H226928   0.523   4.854   1.407 -2.4454  0.1226  1.4272
 1789TIP3   OH226929   0.158   5.580   7.143 -0.1612  0.1685  0.1210
 1789TIP3    H126930   0.205   5.575   7.226  0.0966  0.9548  0.0273
 1789TIP3    H226931   0.081   5.525   7.156  0.5258 -0.7437  0.4437
 1790TIP3   OH226932   3.515   0.005   1.524 -0.7185  0.0593  0.6615
 1790TIP3    H126933   3.510   0.011   1.620 -3.7144  1.0676  0.5686
 1790TIP3    H226934   3.499  -0.087   1.505  0.2709 -0.2177  1.1193
 1791TIP3   OH226935   0.108   4.783   0.618 -0.2157 -0.1471 -0.5078
 1791TIP3    H126936   0.155   4.848   0.670 -1.5275 -0.8553  1.7212
 1791TIP3    H226937   0.078   4.719   0.682 -1.2810 -1.5177 -2.2814
 1792TIP3   OH226938   6.816   4.251   1.830  0.1192  0.3229  0.2055
 1792TIP3    H126939   6.891   4.299   1.866  0.5196 -0.4667  0.4518
 1792TIP3    H226940   6.856   4.177   1.783 -0.5240 -0.6090  1.0871
 1793TIP3   OH226941   3.646   2.641   7.822 -0.7580  0.0768  0.0338
 1793TIP3    H126942   3.552   2.638   7.842 -0.6345 -0.2562  0.5768
 1793TIP3    H226943   3.681   2.706   7.882 -0.3128 -1.2440  1.2515
 1794TIP3   OH226944   3.762   1.611   0.506 -0.8224 -0.0810 -0.0393
 1794TIP3    H126945   3.777   1.582   0.416 -2.9536 -0.5161 -0.3091
 1794TIP3    H226946   3.843   1.589   0.552 -0.0996 -0.8552 -1.5994
 1795TIP3   OH226947   5.057   6.570   1.433 -0.3595 -0.2830  0.4515
 1795TIP3    H126948   4.984   6.520   1.469  0.5208 -0.4057  2.1847
 1795TIP3    H226949   5.079   6.632   1.502  1.1673 -0.2653 -0.0204
 1796TIP3   OH226950   5.933   2.441   0.253 -0.2032 -0.2760  0.2762
 1796TIP3    H126951   5.898   2.424   0.340  1.6778 -0.9200  0.9386
 1796TIP3    H226952   5.978   2.360   0.228  1.3145  0.7047 -0.2789
 1797TIP3   OH226953   1.165   3.583   8.289  0.0641  0.2707  0.1512
 1797TIP3    H126954   1.137   3.674   8.283  0.6209  0.4996  0.9366
 1797TIP3    H226955   1.247   3.579   8.241  0.8233  0.5378  1.3635
 1798TIP3   OH226956   2.020   2.173   7.736  0.2696 -0.0388 -0.5391
 1798TIP3    H126957   2.095   2.227   7.760 -1.4426  1.8575  0.8668
 1798TIP3    H226958   1.944   2.225   7.761 -1.5309 -2.1709 -1.2611
 1799TIP3   OH226959   1.308   4.056   0.661 -0.4062 -0.4425 -0.1247
 1799TIP3    H126960   1.350   4.141   0.678 -1.2444 -0.1109  0.3795
 1799TIP3    H226961   1.381   3.994   0.655  0.1725  0.1472  0.5393
 1800TIP3   OH226962   6.917   5.152   7.224  0.0921 -0.2208  0.1991
 1800TIP3    H126963   6.916   5.098   7.303  0.1970  0.8603  0.9698
 1800TIP3    H226964   6.920   5.089   7.152 -2.0358 -1.2926  0.9539
 1801TIP3   OH226965   6.575   5.193   7.167 -0.0331 -0.0243 -0.3828
 1801TIP3    H126966   6.508   5.262   7.167  0.6705  0.6984  1.1824
 1801TIP3    H226967   6.657   5.240   7.181  0.7659 -0.9673 -1.6549
 1802TIP3   OH226968   2.672   0.350   6.839  0.1256 -0.3396  0.1019
 1802TIP3    H126969   2.745   0.410   6.830  0.6453 -0.8901  0.5613
 1802TIP3    H226970   2.656   0.318   6.750 -0.6264  0.9984 -0.2696
 1803TIP3   OH226971   6.909   5.928   7.903 -0.3067 -0.3214  0.5073
 1803TIP3    H126972   6.835   5.985   7.883 -0.4317 -0.8330 -0.5483
 1803TIP3    H226973   6.884   5.886   7.986 -0.9369 -0.0490  0.4656
 1804TIP3   OH226974   2.329   0.286   0.719 -0.2700 -0.3931 -0.4087
 1804TIP3    H126975   2.328   0.350   0.648  2.7929  1.2230  0.8287
 1804TIP3    H226976   2.368   0.208   0.681  0.8384  0.2736 -0.6700
 1805TIP3   OH226977   3.511   2.634   0.967 -0.5490 -0.2073 -0.1741
 1805TIP3    H126978   3.437   2.694   0.953 -0.0169 -0.0391 -2.9212
 1805TIP3    H226979   3.583   2.674   0.918  0.6400 -1.6709  0.3199
 1806TIP3   OH226980   2.704   6.880   6.914  0.9548 -1.2298  0.5034
 1806TIP3    H126981   2.716   6.812   6.980 -1.4412 -1.9429  0.2801
 1806TIP3    H226982   2.687   6.833   6.833 -0.6052 -0.4213  0.3174
 1807TIP3   OH226983   4.337   3.729   0.389  0.3300 -0.4931  0.3772
 1807TIP3    H126984   4.422   3.710   0.429  0.8129 -1.9140 -1.2339
 1807TIP3    H226985   4.277   3.667   0.431  0.8520 -2.0355 -1.0199
 1808TIP3   OH226986   0.925   2.676   8.229 -0.2685  0.4357 -0.1475
 1808TIP3    H126987   0.943   2.753   8.283  0.2966  0.7209 -0.7303
 1808TIP3    H226988   0.836   2.689   8.196 -0.0430  1.0204 -0.5342
 1809TIP3   OH226989   3.886   1.352   1.423 -0.2822 -0.2717 -0.0426
 1809TIP3    H126990   3.870   1.297   1.500 -0.0828  1.3369  1.2151
 1809TIP3    H226991   3.978   1.378   1.431  0.1404 -1.1500 -1.5918
 1810TIP3   OH226992   6.638   4.335   7.628 -0.3157  0.0115 -0.3266
 1810TIP3    H126993   6.659   4.274   7.699 -1.4222 -1.7881 -1.4709
 1810TIP3    H226994   6.556   4.377   7.654  0.7960  1.6248  0.7844
 1811TIP3   OH226995   0.704   2.257   6.171  0.2778 -0.5867 -0.3738
 1811TIP3    H126996   0.631   2.313   6.196 -0.0849 -0.9638 -0.5820
 1811TIP3    H226997   0.781   2.315   6.176  0.1432 -0.4691  0.9655
 1812TIP3   OH226998   0.597   4.096   7.566  0.7426  0.0638  0.0965
 1812TIP3    H126999   0.561   4.065   7.483  2.0221  0.8658 -0.8138
 1812TIP3    H227000   0.558   4.183   7.578 -0.0724 -0.3808  0.7828
 1813TIP3   OH227001   0.644   0.352   7.264 -0.0196  0.0623  0.4161
 1813TIP3    H127002   0.715   0.349   7.200  0.0388 -0.5551  0.5026
 1813TIP3    H227003   0.635   0.444   7.285 -0.9683  0.4562 -1.5136
 1814TIP3   OH227004   6.784   3.033   0.771 -0.2352  0.0374  0.1879
 1814TIP3    H127005   6.734   3.102   0.815 -0.3460  0.0053  0.1142
 1814TIP3    H227006   6.772   3.051   0.678  2.1486  1.6801  0.1093
 1815TIP3   OH227007   6.222   4.488   6.505  0.7981  0.1729  0.5937
 1815TIP3    H127008   6.252   4.413   6.556  0.0233 -1.0542 -0.6957
 1815TIP3    H227009   6.285   4.496   6.434  1.5171  1.4874  1.3365
 1816TIP3   OH227010   1.678   1.544   0.885 -0.1991 -0.0402 -0.2779
 1816TIP3    H127011   1.591   1.519   0.916 -0.3304  1.4634  0.7097
 1816TIP3    H227012   1.704   1.617   0.942  0.7630  1.0170 -1.9607
 1817TIP3   OH227013   4.617   0.603   1.361  0.1715  0.1849 -0.6606
 1817TIP3    H127014   4.664   0.655   1.427  0.2951 -0.6151 -0.1105
 1817TIP3    H227015   4.679   0.537   1.333 -0.6906 -1.0571  0.2696
 1818TIP3   OH227016   6.166   1.008   0.968  0.1972 -0.0123  0.4829
 1818TIP3    H127017   6.116   1.081   1.006 -0.9037 -1.4003  1.8197
 1818TIP3    H227018   6.102   0.962   0.914  1.2666  0.8191 -1.6080
 1819TIP3   OH227019   5.429   2.858   8.126 -0.1748 -0.3797 -0.1236
 1819TIP3    H127020   5.407   2.949   8.149 -0.7502 -0.7934  1.0678
 1819TIP3    H227021   5.513   2.865   8.082 -0.5247  0.8003 -0.6533
 1820TIP3   OH227022   6.434   0.444   6.871  0.0875  0.0466 -0.1811
 1820TIP3    H127023   6.385   0.484   6.799  1.0751 -0.0006 -0.9094
 1820TIP3    H227024   6.435   0.510   6.940 -0.1262  0.4411 -0.5544
 1821TIP3   OH227025   1.870   5.128   2.298  0.1979  0.5069  0.3805
 1821TIP3    H127026   1.919   5.190   2.244  0.3941  2.2990  2.4690
 1821TIP3    H227027   1.791   5.177   2.324  0.1691 -0.2279  1.7680
 1822TIP3   OH227028   1.487   5.566   5.752  0.3651 -0.3829  0.4175
 1822TIP3    H127029   1.518   5.656   5.748  2.7199 -1.1710 -1.5027
 1822TIP3    H227030   1.391   5.573   5.749  0.4699  2.0412  1.0386
 1823TIP3   OH227031   0.500   2.381   6.351 -0.4989 -0.3814  0.5098
 1823TIP3    H127032   0.518   2.366   6.444  2.6992  1.2862  0.2973
 1823TIP3    H227033   0.501   2.477   6.341 -3.4058 -0.3799 -0.8888
 1824TIP3   OH227034   3.678   6.134   8.080 -0.4260 -0.0051 -0.0699
 1824TIP3    H127035   3.591   6.095   8.068 -0.2957  0.1145 -1.5831
 1824TIP3    H227036   3.663   6.228   8.072 -0.0859 -0.0160 -0.9919
 1825TIP3   OH227037   5.138   6.463   1.950  0.1210  0.0156 -0.1912
 1825TIP3    H127038   5.184   6.393   1.996  1.4610  0.1759 -1.2478
 1825TIP3    H227039   5.082   6.502   2.017 -1.3370 -2.5836  0.2312
 1826TIP3   OH227040   4.365   4.487   7.603  0.5023 -0.1811 -0.6132
 1826TIP3    H127041   4.436   4.523   7.549  0.5181 -0.7657 -0.9953
 1826TIP3    H227042   4.366   4.540   7.682  1.6549 -0.4539 -0.4235
 1827TIP3   OH227043   3.615   1.184   7.518 -0.6561 -0.3734 -0.7157
 1827TIP3    H127044   3.559   1.115   7.552 -0.6638 -0.5302 -1.0447
 1827TIP3    H227045   3.622   1.247   7.590 -0.5527 -0.7730 -0.3727
 1828TIP3   OH227046   6.416   3.117   8.188 -0.3001  0.4435  0.2931
 1828TIP3    H127047   6.359   3.117   8.265  0.4833 -0.0072  0.8861
 1828TIP3    H227048   6.379   3.050   8.131  0.2666 -0.6406  1.1678
 1829TIP3   OH227049   4.817   5.035   7.688 -0.0750 -0.0714  0.1603
 1829TIP3    H127050   4.829   5.063   7.597  0.3755  0.5025  0.3906
 1829TIP3    H227051   4.856   4.948   7.692  0.0178 -0.0454 -0.1698
 1830TIP3   OH227052   4.585   3.412   6.147  0.4190  0.1627  0.2236
 1830TIP3    H127053   4.511   3.445   6.199 -0.6018  0.0558 -1.1114
 1830TIP3    H227054   4.546   3.351   6.085  1.7607 -0.5581  0.0412
 1831TIP3   OH227055   5.379   1.887   7.408  0.3623  0.1792  0.4868
 1831TIP3    H127056   5.284   1.883   7.401  0.2213  1.0420  1.6105
 1831TIP3    H227057   5.410   1.891   7.318 -0.7568  1.6034  0.1305
 1832TIP3   OH227058   5.096   3.148   0.419  0.7912 -0.2573  0.1381
 1832TIP3    H127059   5.137   3.150   0.332 -0.5362  0.9664 -0.4993
 1832TIP3    H227060   5.099   3.239   0.449  1.8465 -0.7673  1.7064
 1833TIP3   OH227061   6.867   5.537   7.627 -0.3960 -0.5011 -0.0079
 1833TIP3    H127062   6.805   5.603   7.594 -0.4996  0.0625  1.2502
 1833TIP3    H227063   6.839   5.522   7.717  0.8542 -0.7939  0.3409
 1834TIP3   OH227064   1.961   2.938   6.097 -0.0572 -0.7147 -0.7366
 1834TIP3    H127065   1.937   3.030   6.088 -4.4211 -1.6662 -1.1501
 1834TIP3    H227066   1.973   2.925   6.191  0.5462  0.2200 -0.6723
 1835TIP3   OH227067   2.932   6.209   1.273  0.3487 -0.2015 -0.2631
 1835TIP3    H127068   2.863   6.212   1.340  2.5341  0.4090  2.1334
 1835TIP3    H227069   2.909   6.277   1.211  0.5040  2.4893  2.4000
 1836TIP3   OH227070   5.530   6.176   0.136  0.4492 -0.5987 -0.4379
 1836TIP3    H127071   5.618   6.139   0.151 -0.6137 -2.7299  1.0908
 1836TIP3    H227072   5.476   6.138   0.205 -1.7008  0.6604 -1.3287
 1837TIP3   OH227073   6.883   5.564   6.918 -0.3958 -0.0316 -0.8560
 1837TIP3    H127074   6.974   5.585   6.896 -0.3574 -0.3804 -1.0327
 1837TIP3    H227075   6.884   5.551   7.013 -0.0528 -1.0391 -0.9801
 1838TIP3   OH227076   6.615   6.233   7.627 -0.1423  0.1968  0.4858
 1838TIP3    H127077   6.682   6.243   7.695 -0.5186 -0.3244  0.9440
 1838TIP3    H227078   6.605   6.139   7.617  0.1119  0.2674 -0.5131
 1839TIP3   OH227079   6.726   1.673   1.680  0.5544  0.8180  0.1138
 1839TIP3    H127080   6.644   1.646   1.720 -0.1551  0.6200 -1.4004
 1839TIP3    H227081   6.794   1.641   1.739 -0.3644 -1.4385  0.0303
 1840TIP3   OH227082   5.984   3.844   7.545  0.1454  0.3703 -0.1394
 1840TIP3    H127083   5.939   3.905   7.486 -1.4315 -0.4543  0.1545
 1840TIP3    H227084   5.978   3.886   7.631 -1.2528 -0.3209  0.1247
 1841TIP3   OH227085   2.719   3.620   8.068  0.6892  0.3891 -0.1017
 1841TIP3    H127086   2.799   3.653   8.028  0.1943  0.7873 -0.7673
 1841TIP3    H227087   2.680   3.696   8.111  0.5057  0.2611 -0.0410
 1842TIP3   OH227088   1.476   5.181   1.099 -0.2290  0.0995  0.2716
 1842TIP3    H127089   1.552   5.139   1.139  1.5262  0.0293 -2.8235
 1842TIP3    H227090   1.435   5.111   1.048 -2.5268  0.1221  1.8875
 1843TIP3   OH227091   4.153   5.185   0.977 -0.7582  0.1842 -0.1698
 1843TIP3    H127092   4.102   5.117   0.931 -0.7433 -1.4706  2.1087
 1843TIP3    H227093   4.090   5.256   0.991 -1.0276  0.3055 -1.7934
 1844TIP3   OH227094   2.139   0.133   0.877  0.3166 -0.5082 -0.2615
 1844TIP3    H127095   2.214   0.165   0.827 -0.3844  0.2128 -0.8813
 1844TIP3    H227096   2.063   0.166   0.829 -0.5125 -3.4985 -1.2424
 1845TIP3   OH227097   1.068   3.927   0.903  0.6337  0.0064 -0.2010
 1845TIP3    H127098   1.019   4.007   0.886 -0.2935 -0.4028  0.4435
 1845TIP3    H227099   1.099   3.899   0.817  0.0749  0.4894 -0.5643
 1846TIP3   OH227100   2.493   5.547   0.531  0.1645  0.3028  0.5700
 1846TIP3    H127101   2.423   5.524   0.471 -1.0348 -0.2650  2.1381
 1846TIP3    H227102   2.482   5.488   0.605  0.1936  2.4850  2.3888
 1847TIP3   OH227103   3.531   3.845   1.420 -0.0513 -0.4174 -0.4773
 1847TIP3    H127104   3.515   3.930   1.460 -0.5070  0.1131 -1.7170
 1847TIP3    H227105   3.625   3.831   1.429 -0.0998 -0.1610  0.4558
 1848TIP3   OH227106   2.198   1.840   7.027 -0.1783  0.1936  0.3969
 1848TIP3    H127107   2.208   1.919   7.080  2.6442 -1.1628  2.0731
 1848TIP3    H227108   2.169   1.773   7.088  1.4155 -0.9904 -0.0782
 1849TIP3   OH227109   0.746   6.034   0.312  0.1208  0.0617  0.2211
 1849TIP3    H127110   0.677   6.095   0.288  0.9037  0.0880 -2.2535
 1849TIP3    H227111   0.825   6.069   0.270  1.1403 -1.2243  0.9817
 1850TIP3   OH227112   3.107   3.397   6.501  0.0764  0.0383 -0.0350
 1850TIP3    H127113   3.159   3.346   6.563 -1.4468 -1.1367  0.3124
 1850TIP3    H227114   3.066   3.332   6.445  1.4667  1.0773 -2.3866
 1851TIP3   OH227115   1.906   3.541   1.950 -0.0167  0.1542 -0.3593
 1851TIP3    H127116   1.957   3.510   2.025  2.1914 -1.6745 -2.4335
 1851TIP3    H227117   1.913   3.636   1.953  0.7095  0.0803  1.2714
 1852TIP3   OH227118   3.809   3.672   8.184  0.0380  0.1422  0.2446
 1852TIP3    H127119   3.878   3.606   8.172  0.7568  0.9220 -0.0094
 1852TIP3    H227120   3.741   3.646   8.123  1.1977  0.7728 -1.4051
 1853TIP3   OH227121   1.154   6.756   6.053  0.6341 -0.4110 -0.0585
 1853TIP3    H127122   1.180   6.733   6.143 -0.3771 -0.1651  0.3090
 1853TIP3    H227123   1.076   6.703   6.037  0.7647 -0.3905 -0.7684
 1854TIP3   OH227124   2.131   6.979   6.608  0.4999  0.3251  0.3669
 1854TIP3    H127125   2.159   7.038   6.538  0.6627  1.8356  1.6635
 1854TIP3    H227126   2.132   6.892   6.567 -1.0119  1.3089 -2.0002
 1855TIP3   OH227127   2.842   6.880   6.577  0.6453  0.4768  0.3482
 1855TIP3    H127128   2.862   6.787   6.568  1.2678  0.5446  0.9617
 1855TIP3    H227129   2.747   6.883   6.591  0.2446  0.0928 -1.8711
 1856TIP3   OH227130   3.052   4.616   8.298  0.0281 -0.0734  0.0206
 1856TIP3    H127131   3.099   4.545   8.343  0.2082  0.3830  0.5559
 1856TIP3    H227132   3.118   4.684   8.286 -0.8512  1.2896  2.3162
 1857TIP3   OH227133   5.212   2.160   7.249 -0.4720  0.0868 -0.4613
 1857TIP3    H127134   5.295   2.169   7.202 -1.7541  2.2552 -2.5376
 1857TIP3    H227135   5.203   2.242   7.299 -0.4883 -0.9748  1.3650
 1858TIP3   OH227136   2.460   3.023   0.381  0.2302  0.3860 -0.3582
 1858TIP3    H127137   2.522   2.953   0.364  0.0668  0.2164 -0.2611
 1858TIP3    H227138   2.404   2.990   0.452  0.4973  0.8309  0.0683
 1859TIP3   OH227139   2.282   4.783   7.522  0.4048  0.0260 -0.0659
 1859TIP3    H127140   2.254   4.699   7.558 -0.3544 -0.1330 -0.9777
 1859TIP3    H227141   2.301   4.764   7.430  1.3721  0.6142  0.0084
 1860TIP3   OH227142   4.320   1.672   1.553  0.1290  0.1080 -0.2050
 1860TIP3    H127143   4.255   1.710   1.612 -1.8719 -4.6085  1.0628
 1860TIP3    H227144   4.290   1.697   1.465 -2.0994 -0.0173  0.4538
 1861TIP3   OH227145   4.918   6.911   0.299  0.0717 -0.0606 -0.0670
 1861TIP3    H127146   5.009   6.891   0.321 -0.8804 -2.8268  1.9636
 1861TIP3    H227147   4.919   6.931   0.205  2.6285 -0.8569 -0.2748
 1862TIP3   OH227148   1.202   0.210   7.083  0.6210 -0.3042 -0.0568
 1862TIP3    H127149   1.177   0.279   7.021 -1.7427 -0.3722  0.7215
 1862TIP3    H227150   1.164   0.238   7.166  0.3794 -2.0957  0.4751
 1863TIP3   OH227151   5.292   5.834   6.770 -0.0277 -0.8550 -0.3065
 1863TIP3    H127152   5.261   5.750   6.803 -1.2311 -0.7122 -1.0071
 1863TIP3    H227153   5.339   5.812   6.689 -0.7870 -0.8315 -0.7688
 1864TIP3   OH227154   6.619   4.762   0.056  0.0189  1.1508  0.1291
 1864TIP3    H127155   6.566   4.714   0.120  0.9760 -1.6254 -1.0086
 1864TIP3    H227156   6.557   4.794  -0.009 -0.4904 -0.3758 -0.1642
 1865TIP3   OH227157   3.825   2.909   2.384 -0.5141  0.5481  0.5870
 1865TIP3    H127158   3.893   2.932   2.320  0.4801 -2.1255  0.5698
 1865TIP3    H227159   3.745   2.951   2.350  0.4253  0.9420 -1.2660
 1866TIP3   OH227160   5.782   1.126   7.970  0.3449  0.1860 -0.0770
 1866TIP3    H127161   5.824   1.204   8.005  0.8655 -0.0890 -0.0716
 1866TIP3    H227162   5.751   1.079   8.047 -2.4090  1.6699 -0.1467
 1867TIP3   OH227163   3.494   1.900   7.528 -0.3853 -0.0589  0.1627
 1867TIP3    H127164   3.486   1.887   7.623 -0.5604 -0.2724  0.1207
 1867TIP3    H227165   3.522   1.814   7.495 -1.6324 -0.3677 -0.1357
 1868TIP3   OH227166   2.564   3.398   7.323 -0.1030 -0.0344 -0.1572
 1868TIP3    H127167   2.626   3.428   7.389  1.0264 -1.0999 -0.7138
 1868TIP3    H227168   2.554   3.473   7.264  0.5770  0.1865 -0.0017
 1869TIP3   OH227169   4.746   0.542   0.967  0.5159 -0.3666  0.4032
 1869TIP3    H127170   4.738   0.623   1.017  0.9060  1.3660 -2.1579
 1869TIP3    H227171   4.838   0.517   0.976  0.1634 -1.2159  2.0872
 1870TIP3   OH227172   1.873   5.396   1.524  0.4407  1.0156  0.0257
 1870TIP3    H127173   1.916   5.451   1.458  1.1798 -0.8891 -1.1647
 1870TIP3    H227174   1.871   5.450   1.602  1.2475  2.6832 -1.0420
 1871TIP3   OH227175   4.613   3.151   1.396 -0.5471 -0.1508 -0.2737
 1871TIP3    H127176   4.524   3.116   1.392 -1.1581  1.4061 -0.9283
 1871TIP3    H227177   4.615   3.203   1.476 -0.0373 -0.6287  0.0335
 1872TIP3   OH227178   0.248   0.925   6.884  0.1944  0.1566  0.2846
 1872TIP3    H127179   0.215   0.835   6.878  1.6226 -0.5403  2.0965
 1872TIP3    H227180   0.257   0.941   6.978  2.7638  1.0991 -0.0428
 1873TIP3   OH227181   3.506   1.370   1.464  0.4737  0.2508 -0.1022
 1873TIP3    H127182   3.486   1.434   1.533  2.4301  1.5035 -0.6099
 1873TIP3    H227183   3.552   1.300   1.510  0.8451  0.5768  0.0277
 1874TIP3   OH227184   3.080   1.465   2.261  0.0783 -0.7220 -0.1461
 1874TIP3    H127185   3.082   1.521   2.339 -0.3383 -3.7008  2.1934
 1874TIP3    H227186   2.987   1.449   2.245  0.2066 -1.4635 -0.1869
 1875TIP3   OH227187   2.185   6.392   8.047  0.2688 -0.3575 -0.2897
 1875TIP3    H127188   2.134   6.432   7.977  0.5397  1.3078  0.4174
 1875TIP3    H227189   2.123   6.387   8.121  0.6525  0.1134  0.0658
 1876TIP3   OH227190   0.272   1.130   1.027  0.5806  0.1366  0.2922
 1876TIP3    H127191   0.302   1.095   0.943 -0.7079 -1.0500  0.2984
 1876TIP3    H227192   0.213   1.202   1.004 -0.3328 -0.6448  0.1404
 1877TIP3   OH227193   5.807   2.664   7.668  0.5514 -0.5087  0.3772
 1877TIP3    H127194   5.809   2.681   7.574  1.4247 -0.2674  0.4256
 1877TIP3    H227195   5.785   2.571   7.675 -2.2747  0.0474  0.0446
 1878TIP3   OH227196   6.363   0.770   0.507  0.1172 -0.4145  0.3428
 1878TIP3    H127197   6.382   0.678   0.490 -0.2424 -0.1471 -1.8413
 1878TIP3    H227198   6.268   0.773   0.520  0.2885 -0.4964  1.8480
 1879TIP3   OH227199   1.953   1.411   5.871  0.2105  0.3588 -0.3765
 1879TIP3    H127200   2.009   1.452   5.937  1.2704 -1.2434 -0.2421
 1879TIP3    H227201   1.872   1.390   5.917 -0.1766  1.7936 -0.3308
 1880TIP3   OH227202   1.690   3.826   0.885  0.1262  0.0732  0.0797
 1880TIP3    H127203   1.774   3.870   0.873 -0.8904  2.6589  1.6709
 1880TIP3    H227204   1.691   3.796   0.976  0.6278 -3.1102 -0.8406
 1881TIP3   OH227205   6.561   0.567   0.218  0.0694 -0.3636 -1.0190
 1881TIP3    H127206   6.491   0.625   0.188  1.2734  1.7833  0.0934
 1881TIP3    H227207   6.606   0.541   0.138 -0.3381  0.4565 -1.5343
 1882TIP3   OH227208   0.844   0.394   1.494 -0.2354 -0.0978  0.0842
 1882TIP3    H127209   0.805   0.464   1.547 -2.4121  0.7492 -2.4012
 1882TIP3    H227210   0.806   0.314   1.527 -2.0200  0.4729 -0.5011
 1883TIP3   OH227211   4.095   3.151   6.977 -0.3095  0.4573  0.0758
 1883TIP3    H127212   4.166   3.101   7.018 -0.2797 -0.2854 -0.8632
 1883TIP3    H227213   4.064   3.210   7.047 -0.6343 -1.1501  1.3450
 1884TIP3   OH227214   4.740   4.181   7.560  0.5367 -0.6550  0.3030
 1884TIP3    H127215   4.726   4.266   7.602 -0.7280 -1.6091  1.9206
 1884TIP3    H227216   4.658   4.133   7.573  1.4591 -2.3873  0.0740
 1885TIP3   OH227217   3.777   4.058   0.681 -0.9183  0.0990  0.5202
 1885TIP3    H127218   3.739   4.075   0.594 -1.9918 -1.2615  0.6841
 1885TIP3    H227219   3.866   4.029   0.662 -1.1453 -0.1989 -0.1303
 1886TIP3   OH227220   1.238   2.404   0.723 -0.3580  0.0717 -0.0154
 1886TIP3    H127221   1.325   2.362   0.722 -0.0673  0.6605 -0.0814
 1886TIP3    H227222   1.257   2.496   0.742 -0.8171  0.5447 -1.7334
 1887TIP3   OH227223   5.450   6.053   1.345 -0.0189 -0.3455 -0.5605
 1887TIP3    H127224   5.399   6.003   1.282  1.4698  0.3382 -2.3918
 1887TIP3    H227225   5.538   6.055   1.309  1.0031 -0.2104  1.7418
 1888TIP3   OH227226   1.947   4.585   6.909  0.0993 -0.2470 -0.0174
 1888TIP3    H127227   1.936   4.639   6.988  1.4840  0.0926 -0.0263
 1888TIP3    H227228   1.996   4.641   6.849  0.8399 -1.2271 -0.3469
 1889TIP3   OH227229   6.259   5.787   7.875  0.0926  0.4838  0.1697
 1889TIP3    H127230   6.189   5.736   7.836  0.8341 -0.3227 -0.1193
 1889TIP3    H227231   6.232   5.798   7.967 -0.0674 -0.4399  0.2396
 1890TIP3   OH227232   6.050   5.591   6.632  0.4449 -0.5147 -0.5654
 1890TIP3    H127233   5.991   5.665   6.647 -0.2249 -1.1336 -0.0673
 1890TIP3    H227234   6.122   5.604   6.694  0.1022 -0.5038 -0.1610
 1891TIP3   OH227235   1.979   3.405   0.960 -0.1146  0.5156 -0.3024
 1891TIP3    H127236   1.897   3.435   0.923 -1.3813 -2.7604 -0.4988
 1891TIP3    H227237   1.973   3.425   1.053 -0.9627  0.6295 -0.3809
 1892TIP3   OH227238   5.350   0.776   7.077 -0.0270 -0.1122  0.7614
 1892TIP3    H127239   5.313   0.841   7.137 -1.0029 -0.9883  1.1364
 1892TIP3    H227240   5.316   0.692   7.108  0.6140 -0.7359 -0.1570
 1893TIP3   OH227241   3.222   6.524   6.677 -0.2326 -0.4538  0.4816
 1893TIP3    H127242   3.239   6.527   6.582  0.4131 -0.9103  0.5752
 1893TIP3    H227243   3.206   6.431   6.695 -1.0736 -0.2734  0.7120
 1894TIP3   OH227244   1.278   6.311   0.283 -0.4528 -0.2842  1.2691
 1894TIP3    H127245   1.340   6.379   0.256  0.2853 -1.3456  0.1886
 1894TIP3    H227246   1.259   6.331   0.374  0.0708  1.1212  1.0949
 1895TIP3   OH227247   1.863   4.239   1.717  0.2610  0.0563  0.1383
 1895TIP3    H127248   1.954   4.213   1.729  0.8284  2.2669  1.1329
 1895TIP3    H227249   1.812   4.167   1.753  1.6791 -0.3081  1.5239
 1896TIP3   OH227250   1.798   1.394   1.157  0.0116  0.0486 -0.5945
 1896TIP3    H127251   1.854   1.372   1.083  0.5138 -0.7250  0.0100
 1896TIP3    H227252   1.838   1.472   1.195  1.0211 -0.8161  0.1685
 1897TIP3   OH227253   5.650   1.561   0.473 -0.2079  0.3707  0.5652
 1897TIP3    H127254   5.741   1.571   0.444  0.1882  0.2192  1.6931
 1897TIP3    H227255   5.645   1.472   0.506 -0.6607  0.5034  0.8561
 1898TIP3   OH227256   6.318   5.247   1.919 -0.8404  0.0460 -0.0325
 1898TIP3    H127257   6.359   5.251   2.006  1.1714  0.5715 -0.9587
 1898TIP3    H227258   6.319   5.337   1.888 -1.9533 -0.0691 -0.4458
 1899TIP3   OH227259   5.697   0.927   0.382 -0.3166 -0.1064  0.1037
 1899TIP3    H127260   5.663   0.880   0.458  0.1465 -0.8634 -0.1429
 1899TIP3    H227261   5.654   0.885   0.307 -0.9079  0.7529 -0.0486
 1900TIP3   OH227262   6.748   1.452   6.427  0.4365  0.2397  0.1098
 1900TIP3    H127263   6.825   1.397   6.415  0.4478  0.6361 -1.9485
 1900TIP3    H227264   6.705   1.417   6.505  1.3075 -1.6082 -0.2020
 1901TIP3   OH227265   5.082   2.276   8.195 -0.0447  0.3171 -0.3421
 1901TIP3    H127266   4.998   2.307   8.228 -0.4369 -1.7030  0.7281
 1901TIP3    H227267   5.061   2.236   8.111 -0.1863 -0.2216 -0.0573
 1902TIP3   OH227268   5.657   4.200   7.126  0.1543  0.1022  0.5687
 1902TIP3    H127269   5.587   4.138   7.145 -0.3443 -0.4170 -2.5224
 1902TIP3    H227270   5.623   4.254   7.055  1.9300  1.5895  0.7687
 1903TIP3   OH227271   4.542   5.140   7.671 -0.3586 -0.6171  0.1921
 1903TIP3    H127272   4.624   5.094   7.684 -0.3762 -0.7574 -0.1717
 1903TIP3    H227273   4.537   5.154   7.576 -0.5974 -0.3219  0.2452
 1904TIP3   OH227274   1.126   0.733   2.125 -0.0079 -0.4060 -0.7638
 1904TIP3    H127275   1.188   0.747   2.197  0.2283 -0.3652 -0.9743
 1904TIP3    H227276   1.129   0.639   2.109 -1.6311 -0.7613  0.6840
 1905TIP3   OH227277   2.241   5.110   1.105  0.5461  0.9027 -0.1712
 1905TIP3    H127278   2.282   5.158   1.177 -1.6563  1.5586  0.7024
 1905TIP3    H227279   2.296   5.131   1.029  1.9520  1.5379  0.9623
 1906TIP3   OH227280   2.598   6.801   7.957 -0.2423  0.2945 -0.1112
 1906TIP3    H127281   2.668   6.767   7.900  0.7222 -1.3488  1.9378
 1906TIP3    H227282   2.518   6.787   7.907  0.3768 -2.6918 -0.4836
 1907TIP3   OH227283   1.667   3.188   6.638 -0.3168  0.2241  0.2590
 1907TIP3    H127284   1.754   3.172   6.601 -0.4062 -0.4005  0.3146
 1907TIP3    H227285   1.618   3.229   6.566 -0.1841 -0.0482  0.0097
 1908TIP3   OH227286   2.622   2.757   8.230  0.1658  0.5371 -0.0742
 1908TIP3    H127287   2.682   2.686   8.254  0.6489  0.6243 -0.9836
 1908TIP3    H227288   2.663   2.798   8.154  0.0597  2.0051  0.6286
 1909TIP3   OH227289   0.353   3.924   1.230  0.5430 -0.2538  0.3215
 1909TIP3    H127290   0.351   3.846   1.175  0.0385 -0.4213  0.5764
 1909TIP3    H227291   0.268   3.926   1.273 -0.2071  1.4332 -1.0813
 1910TIP3   OH227292   0.728   4.678   7.565  0.2671 -0.1551  0.0605
 1910TIP3    H127293   0.635   4.667   7.582  0.3837  1.1938  1.8860
 1910TIP3    H227294   0.734   4.754   7.507  0.2460 -0.2925 -0.1246
 1911TIP3   OH227295   5.721   1.449   6.181  0.4892 -0.0913  0.4639
 1911TIP3    H127296   5.804   1.422   6.142  0.2660  0.9652 -0.8299
 1911TIP3    H227297   5.744   1.525   6.235  0.5873 -0.7349  1.3435
 1912TIP3   OH227298   3.337   0.650   7.791 -0.0197  0.1299 -0.5724
 1912TIP3    H127299   3.406   0.604   7.743 -0.0096  0.4668 -0.8932
 1912TIP3    H227300   3.376   0.735   7.811  0.2949 -0.3217  0.8241
 1913TIP3   OH227301   5.775   3.724   8.238  0.6327 -0.2018  0.3425
 1913TIP3    H127302   5.697   3.712   8.183  0.8448 -0.2300  0.0431
 1913TIP3    H227303   5.742   3.720   8.327  0.2510  0.0523  0.2145
 1914TIP3   OH227304   0.526   1.008   8.154  0.0737 -0.0313  0.3709
 1914TIP3    H127305   0.477   0.951   8.214 -0.6722  0.3002  0.0930
 1914TIP3    H227306   0.611   0.965   8.145 -0.5450 -1.2392 -0.0027
 1915TIP3   OH227307   0.053   1.551   7.941 -0.0083 -0.6154  0.4852
 1915TIP3    H127308   0.035   1.626   7.884  1.9193 -0.6049 -0.2039
 1915TIP3    H227309  -0.011   1.558   8.012 -0.8821  0.7781 -0.4009
 1916TIP3   OH227310   0.171   6.621   1.407  0.0102  0.1436 -0.0400
 1916TIP3    H127311   0.202   6.626   1.317  1.0812  0.6858  0.3485
 1916TIP3    H227312   0.173   6.711   1.439  0.9086 -0.1984  0.9271
 1917TIP3   OH227313   0.537   4.777   7.821 -0.4500 -0.0027 -0.0557
 1917TIP3    H127314   0.589   4.855   7.801 -0.3574 -0.2890 -0.9776
 1917TIP3    H227315   0.447   4.804   7.806 -0.3664 -0.2802 -1.1347
 1918TIP3   OH227316   4.026   6.598   1.948 -0.2903 -0.4040  0.0709
 1918TIP3    H127317   4.073   6.681   1.956 -1.7481  0.4285  0.3759
 1918TIP3    H227318   3.985   6.585   2.033  0.3745 -1.7599  0.2188
 1919TIP3   OH227319   6.347   4.148   0.060  0.5976 -0.1048 -0.1614
 1919TIP3    H127320   6.305   4.063   0.074  0.6393 -0.1037 -0.0305
 1919TIP3    H227321   6.277   4.212   0.075  0.8889 -0.0549  1.0891
 1920TIP3   OH227322   3.143   4.189   0.514 -0.0243  0.2143  0.4269
 1920TIP3    H127323   3.232   4.197   0.478  0.5927 -0.2828  1.7609
 1920TIP3    H227324   3.086   4.200   0.439  1.1990 -0.6829 -0.6960
 1921TIP3   OH227325   1.085   2.988   7.332  0.4265  0.3149  0.1335
 1921TIP3    H127326   1.110   2.909   7.379  2.0198  0.2162 -0.8124
 1921TIP3    H227327   1.059   2.957   7.245  3.2148  0.9514 -1.0136
 1922TIP3   OH227328   0.494   2.060   1.431 -0.4615  0.4209  0.0904
 1922TIP3    H127329   0.434   2.000   1.476 -0.6297 -2.3133 -3.3254
 1922TIP3    H227330   0.580   2.038   1.467 -0.7804 -0.2987  0.4547
 1923TIP3   OH227331   2.083   1.623   0.286  0.0292 -0.1704  0.2449
 1923TIP3    H127332   2.058   1.560   0.219  0.9211 -1.3811  0.9906
 1923TIP3    H227333   2.178   1.628   0.279  0.2616 -1.1217  2.0387
 1924TIP3   OH227334   2.251   2.869   0.052  0.4107  0.1437  0.3082
 1924TIP3    H127335   2.234   2.865  -0.042  0.9390 -0.9553  0.2510
 1924TIP3    H227336   2.330   2.922   0.060  1.6084 -1.5242 -0.0506
 1925TIP3   OH227337   0.400   3.532   1.655 -0.2364  0.2316 -0.3633
 1925TIP3    H127338   0.383   3.605   1.715 -0.0856  0.8987 -1.1067
 1925TIP3    H227339   0.477   3.560   1.606 -0.0805 -0.5113 -0.5504
 1926TIP3   OH227340   0.504   6.686   2.294 -0.1014  0.1463  0.1997
 1926TIP3    H127341   0.416   6.724   2.290 -1.0413 -1.9818 -0.9023
 1926TIP3    H227342   0.503   6.616   2.229  2.0152 -0.7560  1.0482
 1927TIP3   OH227343   1.802   1.677   8.185 -0.1123 -0.1318 -0.5099
 1927TIP3    H127344   1.776   1.592   8.149  0.1169 -0.1674 -0.5928
 1927TIP3    H227345   1.801   1.663   8.280 -0.5911 -0.0735 -0.5038
 1928TIP3   OH227346   4.144   4.129   7.298  0.0627 -0.8320  0.1656
 1928TIP3    H127347   4.236   4.154   7.299 -0.0765 -0.3182  1.0055
 1928TIP3    H227348   4.124   4.104   7.388 -0.6962 -0.6569  0.0596
 1929TIP3   OH227349   5.902   4.714   6.636 -0.1401  0.9119  0.1724
 1929TIP3    H127350   5.856   4.646   6.686  0.8886  1.5519  2.0902
 1929TIP3    H227351   5.832   4.769   6.600 -0.9334  0.1504  0.5165
 1930TIP3   OH227352   4.766   3.364   0.232  0.7207 -0.3846  0.1087
 1930TIP3    H127353   4.714   3.387   0.155 -2.1269 -1.5930  1.5394
 1930TIP3    H227354   4.761   3.441   0.288  0.9770 -0.2994  0.0178
 1931TIP3   OH227355   5.794   6.158   0.799  0.6549  0.1564 -0.4286
 1931TIP3    H127356   5.866   6.212   0.767  0.6798  0.2819 -0.1636
 1931TIP3    H227357   5.789   6.177   0.893 -0.5025  1.0734 -0.6516
 1932TIP3   OH227358   4.282   2.450   7.714  0.3832 -0.3380  0.0528
 1932TIP3    H127359   4.308   2.526   7.767  2.5713 -1.4187  0.6646
 1932TIP3    H227360   4.349   2.445   7.646  1.0146 -2.3612  0.7380
 1933TIP3   OH227361   4.364   6.723   0.019  0.0455 -0.1898 -0.4165
 1933TIP3    H127362   4.400   6.646   0.064 -0.4209 -0.8341 -1.1140
 1933TIP3    H227363   4.436   6.786   0.017 -0.5601  0.8036  3.2487
 1934TIP3   OH227364   2.293   5.796   8.065 -0.2999  0.1117  0.1479
 1934TIP3    H127365   2.218   5.849   8.036  1.7625  2.6839 -1.0196
 1934TIP3    H227366   2.307   5.822   8.156 -1.2006 -0.8870  0.5822
 1935TIP3   OH227367   3.544   3.295   7.195  0.9113 -0.7036 -0.2288
 1935TIP3    H127368   3.541   3.218   7.139  1.7872 -0.7425 -0.2368
 1935TIP3    H227369   3.624   3.340   7.170  0.2850  0.3540 -0.3999
 1936TIP3   OH227370   0.646   1.024   1.141 -0.4104 -0.2429 -0.1229
 1936TIP3    H127371   0.601   1.095   1.094 -1.1356 -0.2914  0.4769
 1936TIP3    H227372   0.650   1.053   1.232  2.0116  0.3516 -0.3518
 1937TIP3   OH227373   6.510   3.402   1.677  0.5167  0.4082 -0.2423
 1937TIP3    H127374   6.552   3.475   1.723  1.8560 -1.0526  0.9844
 1937TIP3    H227375   6.581   3.360   1.628  0.1342 -0.9917  0.3479
 1938TIP3   OH227376   1.581   1.239   6.588  0.1387  0.7922 -0.1203
 1938TIP3    H127377   1.607   1.157   6.630 -0.7957 -0.2659 -1.5023
 1938TIP3    H227378   1.531   1.212   6.511 -0.8794  2.6783 -0.1905
 1939TIP3   OH227379   1.418   5.074   7.568 -0.6059 -0.0801 -0.4992
 1939TIP3    H127380   1.421   5.036   7.656  0.8426 -1.5360 -1.1296
 1939TIP3    H227381   1.508   5.104   7.552 -0.4489 -1.2652 -2.0462
 1940TIP3   OH227382   5.002   1.566   7.295 -0.0069  0.2036 -0.1560
 1940TIP3    H127383   4.924   1.559   7.241  0.2425  2.0366 -0.8235
 1940TIP3    H227384   5.049   1.484   7.281 -0.8503 -0.0994 -1.2860
 1941TIP3   OH227385   0.902   0.410   8.015  0.1297  0.0937  0.3241
 1941TIP3    H127386   0.847   0.336   8.042  0.4821  0.5848  2.6375
 1941TIP3    H227387   0.934   0.386   7.929 -3.5182 -0.2958 -1.1115
 1942TIP3   OH227388   0.997   3.595   2.539 -0.5225 -0.4502 -0.3339
 1942TIP3    H127389   1.018   3.516   2.590 -1.7615 -1.4726 -1.3263
 1942TIP3    H227390   0.975   3.562   2.452 -1.3622  0.9679 -0.6842
 1943TIP3   OH227391   3.574   3.157   1.463  0.1747  0.1609 -0.2767
 1943TIP3    H127392   3.574   3.111   1.380 -2.2080 -0.8515  0.2259
 1943TIP3    H227393   3.658   3.133   1.503 -0.0565 -2.0181 -0.9664
 1944TIP3   OH227394   2.806   5.077   6.169  0.4658  0.7765  0.3351
 1944TIP3    H127395   2.719   5.058   6.135  0.2339  3.1472 -0.5611
 1944TIP3    H227396   2.796   5.073   6.265 -0.6871  1.2712  0.2459
 1945TIP3   OH227397   1.075   3.175   8.362  0.4654 -0.5790  0.3752
 1945TIP3    H127398   1.137   3.248   8.371 -0.4388  0.1324  0.9523
 1945TIP3    H227399   0.989   3.216   8.360 -0.4539 -1.7385  4.7190
 1946TIP3   OH227400   2.410   6.908   1.577 -0.1751  0.1931  0.2075
 1946TIP3    H127401   2.316   6.907   1.596 -0.3622  1.3697 -0.6075
 1946TIP3    H227402   2.438   6.997   1.596  1.0787 -0.4596  1.7021
 1947TIP3   OH227403   2.465   2.115   1.167  0.2469  0.5107  0.6643
 1947TIP3    H127404   2.439   2.147   1.081  2.1522  0.8876  0.1780
 1947TIP3    H227405   2.467   2.020   1.158 -0.7835  0.4812  0.6827
 1948TIP3   OH227406   5.191   5.578   1.066  0.2398 -0.6160  0.3584
 1948TIP3    H127407   5.245   5.528   1.127 -0.2460 -1.5205  0.0672
 1948TIP3    H227408   5.196   5.528   0.984 -2.9501 -2.0946  0.9366
 1949TIP3   OH227409   0.103   5.553   8.030 -0.0600  0.3666  0.5175
 1949TIP3    H127410   0.015   5.586   8.048 -0.3207  0.2538 -0.4681
 1949TIP3    H227411   0.094   5.458   8.026  0.4232  0.2453  1.9729
 1950TIP3   OH227412   5.130   2.774   8.141  0.1822 -0.5152 -0.1371
 1950TIP3    H127413   5.197   2.835   8.173 -2.1104  0.9834  2.2961
 1950TIP3    H227414   5.103   2.811   8.057  1.8675 -0.7570 -0.8189
 1951TIP3   OH227415   2.833   3.469   2.071 -0.3853  0.5225  0.4398
 1951TIP3    H127416   2.892   3.412   2.023  0.0507  0.1907  1.3372
 1951TIP3    H227417   2.884   3.497   2.148 -0.3612  2.6116 -0.2728
 1952TIP3   OH227418   4.065   0.599   2.068 -0.1737 -0.4784  0.0866
 1952TIP3    H127419   4.043   0.680   2.114  0.3488 -0.2723 -0.0272
 1952TIP3    H227420   4.024   0.608   1.982 -0.2763 -0.4178  0.1420
 1953TIP3   OH227421   1.992   1.088   2.282  0.1696 -0.4267  0.5141
 1953TIP3    H127422   1.952   1.135   2.356 -0.3195 -1.2779  0.8083
 1953TIP3    H227423   2.079   1.127   2.273 -0.4086  0.8702  0.4219
 1954TIP3   OH227424   2.367   0.080   8.241 -0.2014  0.6205  0.3125
 1954TIP3    H127425   2.308   0.048   8.173 -0.2433 -0.2808  0.7546
 1954TIP3    H227426   2.419   0.003   8.265  2.1290  1.6677 -1.0247
 1955TIP3   OH227427   2.965   2.030   0.739  0.1682  0.4233  0.0316
 1955TIP3    H127428   2.891   1.978   0.771 -0.2177  0.5720 -0.6096
 1955TIP3    H227429   2.951   2.116   0.780  0.0919  0.3976  0.0613
 1956TIP3   OH227430   1.139   6.818   7.915 -0.1248  0.1542  0.1917
 1956TIP3    H127431   1.118   6.816   7.821  0.7530  2.0370 -0.0943
 1956TIP3    H227432   1.092   6.895   7.948  0.1657 -0.0614  1.1477
 1957TIP3   OH227433   1.604   3.115   7.275 -0.3222  0.1161 -0.6477
 1957TIP3    H127434   1.581   3.026   7.300 -0.8778 -0.2078 -2.2225
 1957TIP3    H227435   1.539   3.139   7.209 -0.7153  2.0128  0.3486
 1958TIP3   OH227436   5.241   6.459   7.443 -1.0442 -0.0097 -0.0404
 1958TIP3    H127437   5.246   6.471   7.348 -0.5289 -0.9767 -0.1488
 1958TIP3    H227438   5.204   6.372   7.455  0.6666 -0.6965  0.5997
 1959TIP3   OH227439   2.425   1.716   1.933  0.0813 -0.4245 -0.7705
 1959TIP3    H127440   2.405   1.682   2.020  1.9866 -3.9511 -1.5141
 1959TIP3    H227441   2.521   1.723   1.932  0.0423  0.2269 -2.3447
 1960TIP3   OH227442   5.605   3.306   7.350 -0.3470  0.1929 -0.1968
 1960TIP3    H127443   5.556   3.225   7.337 -0.0696 -0.0059  0.0004
 1960TIP3    H227444   5.681   3.281   7.402 -0.5447  0.6721  0.3367
 1961TIP3   OH227445   0.695   4.915   1.173  0.3026 -0.3412 -0.4966
 1961TIP3    H127446   0.627   4.849   1.159 -1.2589  1.2071 -0.5175
 1961TIP3    H227447   0.758   4.898   1.103  0.0098 -1.8715 -0.4312
 1962TIP3   OH227448   2.808   0.668   7.075  0.2136 -0.5848 -0.1235
 1962TIP3    H127449   2.793   0.674   6.981 -2.0389 -1.2775  0.1501
 1962TIP3    H227450   2.899   0.698   7.086 -0.0049  1.1279 -2.2878
 1963TIP3   OH227451   0.553   3.405   8.096  0.6071  0.6798  0.5558
 1963TIP3    H127452   0.507   3.374   8.174 -0.8712  0.3586 -0.4068
 1963TIP3    H227453   0.558   3.500   8.107 -1.2051  0.8387  0.2322
 1964TIP3   OH227454   2.122   0.671   0.638  0.3646 -0.3199 -0.6868
 1964TIP3    H127455   2.125   0.765   0.657  0.4310 -0.7631  1.7331
 1964TIP3    H227456   2.169   0.630   0.710  2.1404 -2.1423 -2.7220
 1965TIP3   OH227457   6.050   0.931   8.192 -0.5013 -0.0044  0.2398
 1965TIP3    H127458   6.078   1.022   8.195 -0.5603  0.0558 -0.8770
 1965TIP3    H227459   5.957   0.934   8.171 -0.1028 -0.3438 -1.7865
 1966TIP3   OH227460   2.682   4.839   7.256 -0.2587 -0.5282 -0.1510
 1966TIP3    H127461   2.757   4.896   7.240  0.5491 -1.9707 -1.8483
 1966TIP3    H227462   2.663   4.800   7.171 -2.6251 -0.6080  0.3627
 1967TIP3   OH227463   5.784   1.905   0.919 -0.2561  0.1755 -0.3247
 1967TIP3    H127464   5.827   1.820   0.927  1.5093  1.0505 -0.0028
 1967TIP3    H227465   5.796   1.947   1.004 -3.3161 -0.1657  0.3909
 1968TIP3   OH227466   1.431   5.481   0.094 -0.4882  0.7691  0.1203
 1968TIP3    H127467   1.521   5.482   0.125 -0.1875 -1.6141 -0.4995
 1968TIP3    H227468   1.410   5.573   0.078  2.1431  1.3139 -0.5977
 1969TIP3   OH227469   0.948   4.704   8.393  0.0779 -1.0267 -0.0379
 1969TIP3    H127470   0.969   4.731   8.483  0.5412  0.2107 -0.4887
 1969TIP3    H227471   0.930   4.611   8.399 -0.5037 -0.8396  1.4465
 1970TIP3   OH227472   1.565   4.948   7.931  0.1031  0.2660  0.4436
 1970TIP3    H127473   1.553   4.932   8.025 -0.0558 -0.6466  0.2738
 1970TIP3    H227474   1.659   4.936   7.917  0.0133 -0.3407  0.3518
 1971TIP3   OH227475   5.671   3.344   6.929 -0.1716  0.1136 -0.2203
 1971TIP3    H127476   5.678   3.439   6.936  0.6985 -0.0007  0.6884
 1971TIP3    H227477   5.743   3.318   6.871 -2.0701  0.2243 -2.8052
 1972TIP3   OH227478   2.170   1.478   1.278  0.4320  0.4878  0.0780
 1972TIP3    H127479   2.168   1.448   1.369 -0.7842  0.9471  0.2145
 1972TIP3    H227480   2.081   1.507   1.260  0.4386 -0.4175 -1.5475
 1973TIP3   OH227481   1.818   0.414   0.505 -0.1808  0.3714 -0.1998
 1973TIP3    H127482   1.767   0.495   0.519 -1.2899 -0.3369 -0.0027
 1973TIP3    H227483   1.907   0.445   0.487 -0.9110  1.7192 -1.8003
 1974TIP3   OH227484   5.769   4.128   0.566  0.0923  0.6958  0.3134
 1974TIP3    H127485   5.689   4.162   0.526  1.1799  0.2415 -2.4498
 1974TIP3    H227486   5.768   4.034   0.545  0.5791  0.3730  1.6706
 1975TIP3   OH227487   0.621   6.588   1.354  0.9101 -0.2604  0.0057
 1975TIP3    H127488   0.674   6.553   1.282  0.4641 -0.9046 -0.0176
 1975TIP3    H227489   0.542   6.621   1.312  0.2933 -1.3621  0.2678
 1976TIP3   OH227490   3.999   6.682   1.466  0.4617  0.3678  0.4141
 1976TIP3    H127491   3.971   6.773   1.457  0.5979  0.3556 -0.1829
 1976TIP3    H227492   4.054   6.666   1.389  0.0379 -0.3679  0.2503
 1977TIP3   OH227493   5.013   2.355   7.099 -0.4125  0.3039  0.1774
 1977TIP3    H127494   5.105   2.341   7.075 -0.7775 -0.7723 -0.6104
 1977TIP3    H227495   4.971   2.271   7.085 -1.7867  1.0987 -0.6424
 1978TIP3   OH227496   3.859   2.511   2.518  0.4398 -0.1916  0.3323
 1978TIP3    H127497   3.788   2.505   2.454  2.0409  0.3207 -1.5791
 1978TIP3    H227498   3.923   2.445   2.489  2.1056  1.4096  0.1488
 1979TIP3   OH227499   0.565   0.280   0.310  0.1641 -0.2155  0.3546
 1979TIP3    H127500   0.603   0.353   0.261  0.9181  0.5844  2.0408
 1979TIP3    H227501   0.487   0.255   0.260  1.2057  0.1332 -1.5390
 1980TIP3   OH227502   1.958   3.013   8.075 -0.2774  0.2983  0.6130
 1980TIP3    H127503   1.873   3.057   8.083 -0.0140  0.9009  0.1269
 1980TIP3    H227504   1.941   2.923   8.104 -0.8002  0.7300  1.6613
 1981TIP3   OH227505   0.208   0.413   1.181  0.4844 -0.4676 -0.0572
 1981TIP3    H127506   0.223   0.507   1.196 -0.4001  0.0188 -1.9417
 1981TIP3    H227507   0.289   0.371   1.209  2.4094  1.2530 -2.6714
 1982TIP3   OH227508   3.802   5.185   1.062 -0.6345 -0.1361 -0.5403
 1982TIP3    H127509   3.777   5.273   1.034 -0.0148 -0.3336 -1.8153
 1982TIP3    H227510   3.748   5.167   1.138 -1.4668  0.9690 -0.8501
 1983TIP3   OH227511   4.624   2.952   0.035  0.5787  0.5883  0.6221
 1983TIP3    H127512   4.700   3.008   0.053  0.7118  0.5787  0.0974
 1983TIP3    H227513   4.655   2.864   0.055  1.1331  0.4283 -0.8553
 1984TIP3   OH227514   6.826   2.704   0.817  0.2318  0.8108 -0.0998
 1984TIP3    H127515   6.797   2.777   0.872  0.7423  0.8276  0.1510
 1984TIP3    H227516   6.921   2.711   0.816  0.2457  0.5557 -0.6412
 1985TIP3   OH227517   4.356   5.693   0.035 -0.0452  0.5961 -0.4254
 1985TIP3    H127518   4.264   5.669   0.049  0.0818  0.0516 -0.4952
 1985TIP3    H227519   4.393   5.694   0.123 -0.5656  2.7708 -0.1774
 1986TIP3   OH227520   2.941   6.511   0.475  0.2039 -0.2094  0.0666
 1986TIP3    H127521   2.978   6.472   0.396 -1.3241 -0.5174 -0.5221
 1986TIP3    H227522   3.011   6.566   0.509  0.8806 -0.0277 -1.5410
 1987TIP3   OH227523   3.897   6.082   8.286  0.1274 -0.3174 -0.2508
 1987TIP3    H127524   3.834   6.059   8.218  1.6141 -3.3571 -0.7415
 1987TIP3    H227525   3.981   6.085   8.241  0.8588 -0.1526  1.0787
 1988TIP3   OH227526   1.168   5.947   2.141  0.1590 -0.5787 -0.0866
 1988TIP3    H127527   1.122   6.010   2.085  1.7589  0.1989 -0.5846
 1988TIP3    H227528   1.115   5.868   2.136 -1.8180  0.6477  0.4102
 1989TIP3   OH227529   1.715   1.407   6.762  0.8470 -0.6279 -0.3387
 1989TIP3    H127530   1.719   1.493   6.722  1.4332 -0.1774  0.6362
 1989TIP3    H227531   1.668   1.352   6.699  1.0271  0.2425 -1.2476
 1990TIP3   OH227532   0.330   1.291   7.437 -0.0706  0.0232 -0.1588
 1990TIP3    H127533   0.344   1.254   7.524  0.9944  0.0654 -0.3070
 1990TIP3    H227534   0.417   1.317   7.407 -0.5817  1.1454 -0.7344
 1991TIP3   OH227535   3.844   6.395   7.340  0.0682 -0.0464 -0.4424
 1991TIP3    H127536   3.811   6.309   7.366  0.2929  0.4206  1.6450
 1991TIP3    H227537   3.857   6.389   7.246 -0.9740 -1.9294 -0.5187
 1992TIP3   OH227538   0.221   3.401   7.868 -0.3447 -0.5365 -0.0967
 1992TIP3    H127539   0.129   3.380   7.856 -0.2288 -1.2010  0.1235
 1992TIP3    H227540   0.256   3.326   7.917  0.3788 -0.4393 -0.4578
 1993TIP3   OH227541   2.111   6.688   6.771  0.4571 -0.8444  0.5586
 1993TIP3    H127542   2.049   6.647   6.710  0.9235 -1.5484  0.5444
 1993TIP3    H227543   2.061   6.700   6.851 -0.8161  2.0245 -0.5330
 1994TIP3   OH227544   5.032   6.713   8.246  0.3310  0.1801  0.3232
 1994TIP3    H127545   5.050   6.628   8.286  0.9744  0.8143  1.4328
 1994TIP3    H227546   5.062   6.777   8.310 -1.5083  1.2904  0.1581
 1995TIP3   OH227547   3.046   4.325   8.018  0.3016  0.1490  0.2868
 1995TIP3    H127548   3.014   4.242   8.055  0.7568 -0.2227 -0.1402
 1995TIP3    H227549   2.988   4.391   8.056  0.0154 -0.3465  0.7427
 1996TIP3   OH227550   1.074   1.237   7.053  0.3135  0.0659 -0.1276
 1996TIP3    H127551   1.073   1.325   7.015 -1.3022 -0.9056 -2.5253
 1996TIP3    H227552   1.010   1.188   7.002 -0.3602 -1.9956  2.4947
 1997TIP3   OH227553   5.483   2.128   7.604  0.2342  0.0844 -0.3739
 1997TIP3    H127554   5.413   2.140   7.669 -0.7022  2.0459 -1.6340
 1997TIP3    H227555   5.449   2.061   7.544 -0.3228  0.5730 -0.6193
 1998TIP3   OH227556   0.462   3.743   0.781 -0.2504  0.3460 -0.9040
 1998TIP3    H127557   0.540   3.754   0.728  0.4444  1.0885  0.2177
 1998TIP3    H227558   0.416   3.827   0.775  0.2162  0.7013  0.2231
 1999TIP3   OH227559   1.917   5.120   6.099 -0.5369 -0.4558 -0.5389
 1999TIP3    H127560   2.006   5.129   6.132 -1.2916 -1.8056  2.1429
 1999TIP3    H227561   1.894   5.208   6.068  1.2395  0.2259 -0.0516
 2000TIP3   OH227562   6.448   0.786   6.879 -0.1517 -0.0588 -0.2454
 2000TIP3    H127563   6.511   0.844   6.921 -0.9067  2.4658 -2.3093
 2000TIP3    H227564   6.502   0.721   6.833  0.7678 -0.0289  0.7346
 2001TIP3   OH227565   0.589   5.752   0.638 -0.0583 -0.1313 -0.1848
 2001TIP3    H127566   0.561   5.843   0.634  2.1454  0.5650 -1.3772
 2001TIP3    H227567   0.666   5.748   0.582  1.2232 -2.2397  1.5681
 2002TIP3   OH227568   6.411   4.718   0.613 -0.5392 -0.3896  0.2932
 2002TIP3    H127569   6.439   4.666   0.688 -1.7396 -1.2940  0.1415
 2002TIP3    H227570   6.320   4.738   0.631  0.0551  2.3314  0.6938
 2003TIP3   OH227571   2.505   5.086   5.850  0.1164 -0.1693 -0.0214
 2003TIP3    H127572   2.473   5.151   5.912  2.6015  0.5879  0.5992
 2003TIP3    H227573   2.509   5.004   5.900 -0.3256 -0.1544  0.0401
 2004TIP3   OH227574   0.996   4.212   7.277  1.1663  0.3716  0.0824
 2004TIP3    H127575   0.949   4.289   7.243  1.5298 -0.7918 -3.4876
 2004TIP3    H227576   0.929   4.144   7.283  1.6322 -0.2708 -1.4438
 2005TIP3   OH227577   2.336   0.457   6.009 -0.0906  1.2693  0.0773
 2005TIP3    H127578   2.248   0.495   6.005 -0.4819  0.4503  0.6389
 2005TIP3    H227579   2.333   0.399   6.085  1.1800  1.8208  0.5674
 2006TIP3   OH227580   4.143   3.221   1.884  0.3815  0.1018 -0.3339
 2006TIP3    H127581   4.129   3.316   1.875 -0.4421  0.1961  1.5895
 2006TIP3    H227582   4.231   3.214   1.921  0.6371  0.0749 -0.9325
 2007TIP3   OH227583   1.171   6.580   0.348 -0.0406  0.5974  0.4798
 2007TIP3    H127584   1.173   6.653   0.410 -0.4425  2.8874 -2.0371
 2007TIP3    H227585   1.263   6.554   0.340  0.0823  0.6533  1.5675
 2008TIP3   OH227586   5.935   1.389   8.008 -0.2988  0.7239 -0.1762
 2008TIP3    H127587   6.022   1.362   8.036 -1.0880 -2.0364 -0.0774
 2008TIP3    H227588   5.884   1.390   8.089 -0.7620  0.5916 -0.4633
 2009TIP3   OH227589   1.519   1.022   1.572 -0.2005  0.1371  0.1667
 2009TIP3    H127590   1.577   1.031   1.648  0.7443  0.0239 -0.5203
 2009TIP3    H227591   1.437   1.061   1.600  0.0028 -0.2753  1.3858
 2010TIP3   OH227592   1.411   6.162   7.922  0.4318  0.1168 -0.1262
 2010TIP3    H127593   1.373   6.189   7.839  2.1599 -0.4957 -1.1895
 2010TIP3    H227594   1.435   6.244   7.966  0.6250  0.4359 -0.8131
 2011TIP3   OH227595   6.174   1.327   0.734  0.0040  0.2571  0.6056
 2011TIP3    H127596   6.228   1.249   0.724 -0.6626 -0.0378 -1.1634
 2011TIP3    H227597   6.206   1.370   0.813  0.8748 -1.4182  1.1908
 2012TIP3   OH227598   2.319   3.993   6.694 -0.4728 -0.1113  0.3627
 2012TIP3    H127599   2.233   4.025   6.721 -0.2324  1.0030 -0.0990
 2012TIP3    H227600   2.349   4.058   6.629 -0.2986 -1.7245 -1.2598
 2013TIP3   OH227601   2.601   2.535   1.331 -0.4660 -0.3175 -0.1371
 2013TIP3    H127602   2.517   2.510   1.370 -0.7477 -1.1037 -1.1910
 2013TIP3    H227603   2.578   2.579   1.250  0.1210 -1.6538 -1.0770
 2014TIP3   OH227604   4.343   3.785   1.995 -0.1934 -0.1102 -0.3641
 2014TIP3    H127605   4.387   3.868   2.009  0.7428 -0.9559  2.3667
 2014TIP3    H227606   4.252   3.800   2.020 -0.0743  0.1300 -0.0867
 2015TIP3   OH227607   2.316   5.091   0.364  0.3171  0.9474  0.7940
 2015TIP3    H127608   2.374   5.108   0.438 -1.0617  2.6827  1.5580
 2015TIP3    H227609   2.231   5.072   0.404  0.0134 -0.1022 -0.3146
 2016TIP3   OH227610   3.400   4.741   0.418  0.7751  0.1162  0.2537
 2016TIP3    H127611   3.487   4.767   0.449  1.5121  0.3259 -1.8227
 2016TIP3    H227612   3.412   4.722   0.325 -1.1304 -1.2323  0.2222
 2017TIP3   OH227613   6.251   2.997   0.192 -0.6552 -0.0702  0.2676
 2017TIP3    H127614   6.283   2.928   0.133  0.0475 -0.6499  1.2855
 2017TIP3    H227615   6.322   3.061   0.194 -0.9945  0.3186 -0.0942
 2018TIP3   OH227616   1.602   1.981   1.541 -0.0316 -0.5393  0.0823
 2018TIP3    H127617   1.676   2.039   1.524 -0.5210  0.4200  1.0677
 2018TIP3    H227618   1.634   1.921   1.609  0.0980 -0.6522 -0.0785
 2019TIP3   OH227619   4.027   5.226   1.621 -0.1046 -0.5720  0.1092
 2019TIP3    H127620   4.100   5.166   1.605 -0.0042 -0.5636  0.5327
 2019TIP3    H227621   3.971   5.179   1.683 -0.7962 -0.8529 -0.6995
 2020TIP3   OH227622   2.009   5.311   2.118 -0.7072 -0.1375  0.6432
 2020TIP3    H127623   2.018   5.404   2.098 -0.8029 -0.2111  0.2561
 2020TIP3    H227624   2.098   5.276   2.113 -0.8485 -0.3618 -0.6967
 2021TIP3   OH227625   0.458   5.452   7.066 -0.6604 -0.5191 -0.9864
 2021TIP3    H127626   0.400   5.425   7.137  0.3980 -0.8076 -0.2081
 2021TIP3    H227627   0.494   5.371   7.032  0.1143 -0.2938 -0.7323
 2022TIP3   OH227628   6.843   3.822   0.582  0.0497  0.0696  0.2899
 2022TIP3    H127629   6.880   3.910   0.583 -0.8056  0.4665  2.5155
 2022TIP3    H227630   6.918   3.765   0.602  0.2970  0.4675  0.5226
 2023TIP3   OH227631   0.479   6.774   6.911  0.0965  0.1956 -0.0578
 2023TIP3    H127632   0.534   6.695   6.913  1.6620  1.2520  1.4623
 2023TIP3    H227633   0.459   6.787   6.818 -0.4130 -2.0918 -0.3316
 2024TIP3   OH227634   5.063   3.070   7.997 -0.0209 -0.6035 -0.0752
 2024TIP3    H127635   5.111   3.010   7.939 -0.6663 -0.9690 -0.2387
 2024TIP3    H227636   5.108   3.062   8.081  0.6557 -0.3971 -0.4039
 2025TIP3   OH227637   5.875   0.619   1.415 -0.1985 -0.7497  0.5776
 2025TIP3    H127638   5.917   0.705   1.419 -0.8226 -0.4808  1.9139
 2025TIP3    H227639   5.888   0.590   1.324  0.0105  0.7478  0.1025
 2026TIP3   OH227640   1.340   3.964   2.494  0.2038  0.2689  0.0192
 2026TIP3    H127641   1.246   3.955   2.506  0.2153 -1.9248 -1.0288
 2026TIP3    H227642   1.379   3.903   2.558  0.7340 -1.0936 -1.5204
 2027TIP3   OH227643   1.742   6.887   5.977 -0.2495  0.0495  0.1195
 2027TIP3    H127644   1.727   6.938   6.056 -1.0826  1.2166 -0.7465
 2027TIP3    H227645   1.763   6.952   5.910  0.7462 -0.9338 -0.5561
 2028TIP3   OH227646   2.391   6.483   7.350  0.0335 -0.0756  0.1038
 2028TIP3    H127647   2.374   6.421   7.421  1.8108 -0.7150  0.0183
 2028TIP3    H227648   2.431   6.559   7.393 -1.3125  0.6667  0.0926
 2029TIP3   OH227649   2.212   1.660   8.273  0.2786  0.1016 -0.3096
 2029TIP3    H127650   2.210   1.742   8.322  0.6542  1.2078 -2.0670
 2029TIP3    H227651   2.145   1.606   8.314 -0.0871  1.3481  0.7841
 2030TIP3   OH227652   2.194   0.911   7.435 -0.1608 -0.2750  0.1282
 2030TIP3    H127653   2.133   0.977   7.466  0.4768  0.2056  0.3801
 2030TIP3    H227654   2.159   0.882   7.351 -0.2730  0.6176 -0.1398
 2031TIP3   OH227655   3.551   0.693   6.864 -0.6156 -0.8938  1.1618
 2031TIP3    H127656   3.523   0.731   6.947 -0.2697 -1.6158  1.6192
 2031TIP3    H227657   3.513   0.751   6.797  0.3483  0.5606  1.8283
 2032TIP3   OH227658   0.538   3.549   0.546 -0.2050  0.1358  0.0489
 2032TIP3    H127659   0.543   3.515   0.635  1.7635 -2.8508 -1.0807
 2032TIP3    H227660   0.627   3.546   0.513 -0.9595  0.5681 -2.2348
 2033TIP3   OH227661   0.455   6.312   8.363  0.7024  0.4761  0.0557
 2033TIP3    H127662   0.537   6.360   8.361  0.2227  1.3545  0.7573
 2033TIP3    H227663   0.476   6.230   8.409  0.9735  1.1401  1.1518
 2034TIP3   OH227664   3.895   4.747   0.710 -0.6459  0.8315  0.2299
 2034TIP3    H127665   3.931   4.759   0.798 -0.4628  3.1391 -0.1080
 2034TIP3    H227666   3.889   4.652   0.700 -0.9669  0.5081  2.8353
 2035TIP3   OH227667   1.380   3.260   6.177  0.2814 -0.7740  0.1306
 2035TIP3    H127668   1.335   3.179   6.202 -1.8411  0.7651  1.7559
 2035TIP3    H227669   1.336   3.287   6.096 -1.2105  0.2238  1.2012
 2036TIP3   OH227670   3.439   4.939   1.089 -0.1224 -0.2669 -0.0076
 2036TIP3    H127671   3.358   4.913   1.045  0.0605  0.4763 -0.7947
 2036TIP3    H227672   3.440   4.886   1.169 -1.8210  0.2979  0.4466
 2037TIP3   OH227673   1.835   1.004   7.396 -0.2438  0.1156  0.3436
 2037TIP3    H127674   1.770   0.935   7.391 -1.2999  0.8276  2.6322
 2037TIP3    H227675   1.905   0.976   7.337 -2.3183 -0.9580 -1.7739
 2038TIP3   OH227676   0.901   1.698   7.587 -0.4641  0.5183  0.3184
 2038TIP3    H127677   0.839   1.757   7.543  0.8231  1.2028 -0.6286
 2038TIP3    H227678   0.963   1.757   7.629 -1.3331 -0.1276  2.6705
 2039TIP3   OH227679   2.813   6.219   6.360  0.5323  0.0430  0.0927
 2039TIP3    H127680   2.864   6.203   6.280  1.2397  2.4599 -0.0089
 2039TIP3    H227681   2.876   6.258   6.420 -0.1399 -1.1950  1.6660
 2040TIP3   OH227682   2.939   1.510   6.623  0.0614  0.0267  0.2561
 2040TIP3    H127683   2.925   1.435   6.565  1.4330 -0.1575  0.1272
 2040TIP3    H227684   2.934   1.586   6.565  1.3524 -0.1512 -0.1370
 2041TIP3   OH227685   0.187   1.380   0.510  0.3719  0.5571  0.1073
 2041TIP3    H127686   0.120   1.318   0.536  0.8272 -0.1896 -0.4752
 2041TIP3    H227687   0.169   1.458   0.563 -1.1469  0.4951 -0.2827
 2042TIP3   OH227688   2.086   6.802   0.054 -0.6189 -0.6588 -0.4165
 2042TIP3    H127689   2.086   6.874  -0.009  0.7957  0.5546  0.8920
 2042TIP3    H227690   2.150   6.740   0.019 -0.3712 -0.3366 -0.5428
 2043TIP3   OH227691   2.445   1.545   8.176  0.2680 -0.2722 -0.0047
 2043TIP3    H127692   2.362   1.566   8.219  0.1530  1.6607 -1.0517
 2043TIP3    H227693   2.421   1.481   8.108 -0.0698 -0.9345  0.7191
 2044TIP3   OH227694   3.139   2.326   0.167  0.5070  0.1597 -0.7221
 2044TIP3    H127695   3.181   2.249   0.203  1.8181  0.3638 -1.7417
 2044TIP3    H227696   3.181   2.400   0.212 -1.2833  0.3091  0.8214
 2045TIP3   OH227697   1.899   5.040   8.200  0.0893 -0.0003 -0.0838
 2045TIP3    H127698   1.963   5.002   8.259 -0.0431  1.2763  0.8962
 2045TIP3    H227699   1.927   5.130   8.187 -1.0370  0.3295 -0.3233
 2046TIP3   OH227700   1.591   2.613   6.813 -0.1421  0.2833 -0.3178
 2046TIP3    H127701   1.576   2.550   6.883 -1.3246  0.5122 -0.3460
 2046TIP3    H227702   1.547   2.693   6.842  0.1129  0.6485 -0.9163
 2047TIP3   OH227703   1.402   4.105   6.944 -0.0105 -0.7842 -0.7569
 2047TIP3    H127704   1.389   4.130   7.036 -2.1923 -0.1431 -1.1837
 2047TIP3    H227705   1.420   4.011   6.947  0.5412 -0.6671  0.3479
 2048TIP3   OH227706   5.822   2.088   7.818  0.3112  0.4597 -0.1844
 2048TIP3    H127707   5.834   2.150   7.889 -0.0654 -0.0294  0.3177
 2048TIP3    H227708   5.740   2.043   7.838 -0.1527  0.7763 -1.2819
 2049TIP3   OH227709   0.777   0.938   8.177  0.1110  0.6029 -0.1594
 2049TIP3    H127710   0.796   0.859   8.228  0.0177  1.1550  0.7528
 2049TIP3    H227711   0.854   0.949   8.121  0.4832  0.3087  0.2822
 2050TIP3   OH227712   2.980   0.068   7.772 -0.2455  0.0326 -0.4575
 2050TIP3    H127713   2.933   0.150   7.781  0.7865  0.8131 -1.8709
 2050TIP3    H227714   3.049   0.072   7.838  0.3588  0.7274 -1.1132
 2051TIP3   OH227715   5.672   2.703   7.404  0.5865 -0.3898 -0.1224
 2051TIP3    H127716   5.637   2.648   7.334 -0.9975 -1.1922  1.2467
 2051TIP3    H227717   5.700   2.783   7.360 -0.1304 -0.9730 -1.7062
 2052TIP3   OH227718   0.092   4.007   8.329  0.1018 -0.2733 -0.2188
 2052TIP3    H127719   0.149   4.056   8.269  0.4645 -0.0895  0.2753
 2052TIP3    H227720   0.069   4.070   8.397  1.3661 -1.0494  0.9552
 2053TIP3   OH227721   3.370   2.501   0.641 -0.0288 -0.3038 -0.0882
 2053TIP3    H127722   3.439   2.451   0.685 -0.0130 -1.0408 -0.9294
 2053TIP3    H227723   3.290   2.455   0.663 -0.1600  0.0385  0.1603
 2054TIP3   OH227724   2.928   5.300   8.068  0.0925 -0.0054  0.4933
 2054TIP3    H127725   2.921   5.373   8.007  0.2110 -0.3109  0.1084
 2054TIP3    H227726   2.971   5.231   8.018 -0.9078 -0.6874  0.5306
 2055TIP3   OH227727   0.451   6.094   0.142 -0.1900  0.3211 -0.2943
 2055TIP3    H127728   0.386   6.023   0.143 -0.7243  0.7710 -1.2505
 2055TIP3    H227729   0.437   6.140   0.224  1.2174 -1.5699  1.0945
 2056TIP3   OH227730   3.163   5.457   0.259  0.1935 -0.4459  0.0986
 2056TIP3    H127731   3.081   5.443   0.211  0.7421 -1.5806 -0.5344
 2056TIP3    H227732   3.220   5.386   0.231  1.6438  0.7033  0.0143
 2057TIP3   OH227733   6.759   6.047   6.767 -0.3556 -0.6517 -0.3462
 2057TIP3    H127734   6.729   6.138   6.768  1.5123  0.0183 -0.8650
 2057TIP3    H227735   6.695   6.001   6.712  0.3387  1.0349 -2.7391
 2058TIP3   OH227736   3.668   4.644   8.233 -0.6319  0.0712  0.0339
 2058TIP3    H127737   3.638   4.686   8.152  0.0649  1.0262  0.2414
 2058TIP3    H227738   3.624   4.693   8.302  0.7180  0.9539  0.3082
 2059TIP3   OH227739   5.127   5.687   7.170 -0.1453 -0.0083 -0.0420
 2059TIP3    H127740   5.198   5.637   7.211 -0.4089  0.5364  1.1249
 2059TIP3    H227741   5.047   5.648   7.204 -0.3520  1.3377  1.1011
 2060TIP3   OH227742   1.092   4.131   1.542  0.5664 -0.3041  0.4533
 2060TIP3    H127743   1.095   4.178   1.626 -2.5619  2.0269 -0.5999
 2060TIP3    H227744   1.081   4.039   1.568  2.6890 -0.0904  2.5408
 2061TIP3   OH227745   0.111   1.976   1.165  0.4612  0.2244  0.2354
 2061TIP3    H127746   0.133   2.065   1.136  0.3142  0.2962  0.3397
 2061TIP3    H227747   0.188   1.945   1.211  1.1768 -0.3567 -1.2853
 2062TIP3   OH227748   5.205   2.422   6.896  0.0878 -0.1412  0.4743
 2062TIP3    H127749   5.165   2.504   6.866  2.5672 -0.2792 -3.9941
 2062TIP3    H227750   5.299   2.439   6.896  0.5852 -2.4917  1.2117
 2063TIP3   OH227751   0.460   1.707   0.581 -0.0840  0.5017 -0.0114
 2063TIP3    H127752   0.520   1.704   0.506  0.3719  1.2457  0.3054
 2063TIP3    H227753   0.461   1.618   0.616 -0.4190  0.1072 -0.9646
 2064TIP3   OH227754   0.864   5.845   0.055  0.1883  0.9142  0.1350
 2064TIP3    H127755   0.807   5.772   0.081  0.4886 -0.0666 -1.7515
 2064TIP3    H227756   0.804   5.917   0.036 -0.2473  0.6163  0.3594
 2065TIP3   OH227757   5.431   2.611   0.058 -0.1251 -0.6177 -0.5284
 2065TIP3    H127758   5.434   2.604  -0.037 -1.0669  0.5423 -0.6737
 2065TIP3    H227759   5.433   2.705   0.075 -1.1766 -0.7594  0.5292
 2066TIP3   OH227760   4.548   3.935   0.555 -0.0706  0.4410 -0.1859
 2066TIP3    H127761   4.569   3.842   0.564 -0.0474  0.5719  1.4189
 2066TIP3    H227762   4.618   3.980   0.602 -1.3978  1.1275  1.2102
 2067TIP3   OH227763   5.765   1.256   6.892  0.0252  0.2165  0.4935
 2067TIP3    H127764   5.752   1.349   6.910 -1.1083  0.0621  0.5066
 2067TIP3    H227765   5.677   1.219   6.891  0.3284 -0.5498 -1.1900
 2068TIP3   OH227766   3.083   5.474   6.654  0.1313 -0.4352  0.2886
 2068TIP3    H127767   2.992   5.446   6.668 -0.0590 -0.5267 -1.0082
 2068TIP3    H227768   3.136   5.400   6.684 -0.2184 -0.4293  0.9420
 2069TIP3   OH227769   0.073   4.227   7.158 -0.0060 -0.1940  0.1877
 2069TIP3    H127770   0.157   4.258   7.190  0.1139  0.8882 -1.0884
 2069TIP3    H227771   0.084   4.132   7.147  1.1099 -0.0281 -0.1745
 2070TIP3   OH227772   2.175   3.626   0.789 -0.4154 -0.2863 -0.5015
 2070TIP3    H127773   2.234   3.575   0.846  1.0669  0.4969 -1.2847
 2070TIP3    H227774   2.110   3.562   0.760 -1.3643 -0.6741  2.2045
 2071TIP3   OH227775   6.400   0.799   2.070 -0.0091 -1.0509 -0.0070
 2071TIP3    H127776   6.457   0.875   2.059 -1.6614  0.0212 -1.7832
 2071TIP3    H227777   6.311   0.835   2.068 -0.8351 -2.7301  2.0158
 2072TIP3   OH227778   2.712   1.069   7.802 -0.5397  0.4491  0.2393
 2072TIP3    H127779   2.748   1.098   7.886 -0.4657  0.8005  0.0874
 2072TIP3    H227780   2.737   1.138   7.740 -1.7665  0.8856  0.1946
 2073TIP3   OH227781   5.375   1.383   1.659 -0.4163  0.1786  0.2424
 2073TIP3    H127782   5.405   1.384   1.750 -1.9797  0.0458  0.7805
 2073TIP3    H227783   5.318   1.460   1.652 -0.1567  0.2982 -0.6923
 2074TIP3   OH227784   2.792   3.888   0.592  0.5986 -0.3137  0.2902
 2074TIP3    H127785   2.828   3.842   0.516 -0.4266 -0.5073 -0.0916
 2074TIP3    H227786   2.862   3.886   0.657  1.2504 -0.7269 -0.4143
 2075TIP3   OH227787   0.480   5.318   7.899  0.1869 -0.6377  0.0470
 2075TIP3    H127788   0.567   5.345   7.869  0.0907  0.1184  0.4322
 2075TIP3    H227789   0.477   5.344   7.991 -1.4501  1.9787 -0.6381
 2076TIP3   OH227790   2.802   4.438   7.303 -0.8581  0.4961 -0.2919
 2076TIP3    H127791   2.780   4.441   7.210 -0.2791  1.3580 -0.4197
 2076TIP3    H227792   2.721   4.462   7.347 -1.4425 -1.0127 -0.5070
 2077TIP3   OH227793   0.604   2.967   1.271 -0.2158  0.5430  0.0063
 2077TIP3    H127794   0.546   2.986   1.345  0.5509  1.4416  0.3983
 2077TIP3    H227795   0.583   2.877   1.247 -0.6083  0.2897  1.2014
 2078TIP3   OH227796   4.837   2.297   1.767  0.9649  0.1818 -0.7050
 2078TIP3    H127797   4.843   2.309   1.862 -0.2636  1.4366 -0.7602
 2078TIP3    H227798   4.759   2.243   1.754 -0.4922  2.2228 -1.0772
 2079TIP3   OH227799   4.076   4.284   8.217  0.2392  0.2916  0.1694
 2079TIP3    H127800   4.155   4.230   8.211 -0.9937 -1.4944 -1.2472
 2079TIP3    H227801   4.080   4.342   8.140  0.5251  0.7449  0.5210
 2080TIP3   OH227802   3.767   4.983   1.872 -0.0157 -0.0346 -0.3643
 2080TIP3    H127803   3.776   5.062   1.925  2.2094  0.6417 -1.5972
 2080TIP3    H227804   3.782   4.911   1.933 -0.3788  0.5711  0.4523
 2081TIP3   OH227805   2.955   1.334   1.556 -0.2345 -0.5958  0.7324
 2081TIP3    H127806   2.916   1.248   1.568  1.2206 -1.3383  0.3445
 2081TIP3    H227807   3.042   1.317   1.520 -0.7061  1.1362 -1.4221
 2082TIP3   OH227808   6.354   3.668   6.883  0.5155 -0.0372 -0.4585
 2082TIP3    H127809   6.296   3.606   6.839 -0.5084  1.2641 -0.9842
 2082TIP3    H227810   6.414   3.697   6.814  1.1532 -0.6010 -0.1551
 2083TIP3   OH227811   0.540   4.145   7.867  0.3802 -0.2021  0.4450
 2083TIP3    H127812   0.600   4.212   7.900 -0.3053  0.0970  1.1031
 2083TIP3    H227813   0.576   4.122   7.781  1.0268  0.4920  0.5122
 2084TIP3   OH227814   5.810   5.640   0.938 -0.0064 -0.3674 -0.1488
 2084TIP3    H127815   5.821   5.729   0.972 -0.8204 -0.9773  1.9002
 2084TIP3    H227816   5.876   5.588   0.985 -0.3691 -1.0632 -0.3886
 2085TIP3   OH227817   5.463   2.538   0.824 -0.3014  0.4913 -0.6122
 2085TIP3    H127818   5.425   2.531   0.911 -2.7325  0.2744 -1.6317
 2085TIP3    H227819   5.509   2.622   0.825  1.4860 -0.3847  1.4469
 2086TIP3   OH227820   3.975   5.981   0.720  0.4121 -0.6028  0.1005
 2086TIP3    H127821   3.886   6.013   0.735  0.3237 -0.5740 -0.4555
 2086TIP3    H227822   3.994   5.925   0.796  0.4109  0.4219  0.8863
 2087TIP3   OH227823   3.111   1.027   5.799  0.1516 -0.4338  0.2734
 2087TIP3    H127824   3.170   1.048   5.726 -0.3651 -1.6925 -0.5654
 2087TIP3    H227825   3.169   1.010   5.873  0.7184  0.3933  0.0328
 2088TIP3   OH227826   3.322   6.380   0.969 -0.1642  0.3637  0.2351
 2088TIP3    H127827   3.398   6.417   0.925 -0.9318  1.8329  0.0555
 2088TIP3    H227828   3.356   6.346   1.052  0.7344  0.7405  0.0267
 2089TIP3   OH227829   1.789   1.439   7.872 -0.1884 -0.0781 -0.9380
 2089TIP3    H127830   1.712   1.385   7.853  0.0785  0.0876 -2.5837
 2089TIP3    H227831   1.862   1.393   7.829  0.3755  0.5578 -0.6812
 2090TIP3   OH227832   3.578   1.698   1.326 -0.2319  0.9055  0.7836
 2090TIP3    H127833   3.610   1.649   1.402  1.3337  1.1777  0.3326
 2090TIP3    H227834   3.497   1.738   1.356 -1.7988 -2.1526  1.0852
 2091TIP3   OH227835   5.954   3.978   7.787  0.7493  0.9013 -0.1873
 2091TIP3    H127836   5.920   4.067   7.797  0.7465  0.9851 -0.8667
 2091TIP3    H227837   5.899   3.924   7.844  1.1998  1.4301  0.7649
 2092TIP3   OH227838   5.777   2.264   8.192 -0.0926  0.2506 -0.1712
 2092TIP3    H127839   5.706   2.328   8.185 -0.8767 -0.5117  0.5477
 2092TIP3    H227840   5.817   2.281   8.277  0.2072  0.2896 -0.3182
 2093TIP3   OH227841   0.315   0.901   0.113  0.4239 -0.4331  0.4439
 2093TIP3    H127842   0.350   0.988   0.132 -0.4757  0.1502 -0.4525
 2093TIP3    H227843   0.310   0.898   0.017  0.3327 -1.4274  0.4688
 2094TIP3   OH227844   3.510   0.252   6.774 -0.0241  0.4877  0.1773
 2094TIP3    H127845   3.537   0.188   6.708  2.3878  0.3912  1.1547
 2094TIP3    H227846   3.517   0.336   6.728 -0.5602  0.2623 -0.3297
 2095TIP3   OH227847   5.231   3.551   6.788 -0.3267 -0.5079 -0.0177
 2095TIP3    H127848   5.209   3.495   6.862  0.9192  1.0491  1.6195
 2095TIP3    H227849   5.275   3.492   6.726  0.4743 -1.4711  1.4093
 2096TIP3   OH227850   6.358   4.553   0.978 -0.4423  0.0572  0.0834
 2096TIP3    H127851   6.266   4.538   0.957  0.0374 -2.8626 -0.3450
 2096TIP3    H227852   6.402   4.552   0.893  0.0108  1.7955  0.2521
 2097TIP3   OH227853   5.840   5.856   1.561  0.1687  0.7968  0.1416
 2097TIP3    H127854   5.802   5.826   1.644 -1.7329  1.3096 -0.4954
 2097TIP3    H227855   5.775   5.831   1.495  2.9294 -2.3947 -1.7214
 2098TIP3   OH227856   3.821   0.715   6.891  0.4227 -0.7989 -0.7130
 2098TIP3    H127857   3.819   0.792   6.948 -0.6004 -0.3846 -1.2979
 2098TIP3    H227858   3.730   0.689   6.881  0.6191 -1.1047 -1.8496
 2099TIP3   OH227859   5.899   3.120   1.309  0.2763  0.3253 -0.3409
 2099TIP3    H127860   5.926   3.062   1.380 -0.1499  0.3061 -0.1932
 2099TIP3    H227861   5.805   3.109   1.303  0.1848  1.0407 -0.2807
 2100TIP3   OH227862   4.908   4.474   1.538  0.1396  0.0286  0.3766
 2100TIP3    H127863   4.878   4.562   1.517 -0.5579 -0.3944 -0.4651
 2100TIP3    H227864   5.003   4.476   1.526  0.4795  1.2802  2.6697
 2101TIP3   OH227865   0.144   3.559   6.240  0.5168 -0.1643 -0.0350
 2101TIP3    H127866   0.063   3.536   6.195  0.6045 -1.3053  0.3682
 2101TIP3    H227867   0.119   3.565   6.332  0.9110 -0.6729  0.1105
 2102TIP3   OH227868   4.889   1.078   7.312 -0.3924  0.5909 -0.3437
 2102TIP3    H127869   4.887   1.096   7.406  0.2677 -1.0749  0.0180
 2102TIP3    H227870   4.956   1.010   7.302 -1.4382 -0.2686 -1.8297
 2103TIP3   OH227871   3.013   2.458   1.220 -0.4634 -0.5854  0.3259
 2103TIP3    H127872   2.977   2.478   1.134  0.4578  0.6405  0.1861
 2103TIP3    H227873   2.959   2.507   1.281 -0.1677 -0.2106  0.2902
 2104TIP3   OH227874   3.958   0.501   0.399  0.0963 -0.5564  0.5069
 2104TIP3    H127875   3.965   0.573   0.337 -1.4033  0.7458  1.7482
 2104TIP3    H227876   3.992   0.537   0.481  1.0705 -1.9001  0.7227
 2105TIP3   OH227877   4.484   3.974   6.493  0.0444 -0.2802 -0.0367
 2105TIP3    H127878   4.432   3.898   6.520 -0.9792  0.3825 -0.0983
 2105TIP3    H227879   4.559   3.936   6.447 -1.5108 -1.2513 -1.9519
 2106TIP3   OH227880   1.558   1.817   8.359 -0.0508 -0.1091 -0.6954
 2106TIP3    H127881   1.492   1.848   8.297 -0.9418 -0.5318  0.0178
 2106TIP3    H227882   1.590   1.735   8.321  0.1824  0.1725 -1.1162
 2107TIP3   OH227883   6.307   0.974   8.388 -0.7389 -0.2758 -0.1625
 2107TIP3    H127884   6.272   1.035   8.322  1.8926  0.5625 -0.9162
 2107TIP3    H227885   6.356   0.909   8.336  0.7866 -0.0150  0.8963
 2108TIP3   OH227886   3.193   4.876   0.194  0.4555  0.4745  0.2007
 2108TIP3    H127887   3.237   4.906   0.273  0.1627 -1.4870  1.1707
 2108TIP3    H227888   3.126   4.815   0.226  1.7913 -2.1542 -1.6184
 2109TIP3   OH227889   3.509   5.167   0.423  0.5834  0.3763 -0.0219
 2109TIP3    H127890   3.572   5.190   0.355  1.5329  0.7897  0.9661
 2109TIP3    H227891   3.556   5.107   0.481  0.1538  0.8356  0.8321
 2110TIP3   OH227892   5.094   6.198   7.521  0.7607 -0.6721  0.1945
 2110TIP3    H127893   5.022   6.154   7.475  1.1551 -1.2891  0.1569
 2110TIP3    H227894   5.050   6.251   7.587 -0.0195  2.0748 -2.2824
 2111TIP3   OH227895   2.152   6.764   6.416 -0.1279  0.1316 -0.3718
 2111TIP3    H127896   2.164   6.673   6.388  0.2552 -0.3788  1.3003
 2111TIP3    H227897   2.067   6.790   6.381 -1.7107 -1.9306  1.6529
 2112TIP3   OH227898   1.392   0.950   2.074 -0.3313  0.4613  0.0007
 2112TIP3    H127899   1.413   0.861   2.101  0.1046  0.1017 -1.4461
 2112TIP3    H227900   1.413   1.004   2.151 -2.2449 -0.8240  1.5314
 2113TIP3   OH227901   5.172   1.582   1.795  0.3108  0.0300 -0.2251
 2113TIP3    H127902   5.089   1.560   1.838  1.1208 -0.8217  0.9170
 2113TIP3    H227903   5.237   1.582   1.864  1.7548 -1.8807 -1.4731
 2114TIP3   OH227904   4.217   0.055   8.136 -0.3834  0.0724 -0.5578
 2114TIP3    H127905   4.135   0.096   8.160  0.1666  0.2279  1.1853
 2114TIP3    H227906   4.208  -0.036   8.165  0.2516  0.2332  0.1950
 2115TIP3   OH227907   3.409   0.249   0.386 -0.4555 -0.3001 -0.2650
 2115TIP3    H127908   3.495   0.290   0.377 -1.2960  1.2254 -1.7110
 2115TIP3    H227909   3.354   0.290   0.320 -2.0262 -2.0718 -0.1713
 2116TIP3   OH227910   4.051   3.895   6.538 -0.0257 -0.1348 -0.1626
 2116TIP3    H127911   4.007   3.935   6.463 -0.9307 -0.4376  0.1990
 2116TIP3    H227912   4.139   3.874   6.505 -0.3945 -0.2350 -1.1330
 2117TIP3   OH227913   0.546   6.511   6.815  0.1047  0.1880 -0.5091
 2117TIP3    H127914   0.555   6.521   6.720  0.1936  0.8101 -0.4407
 2117TIP3    H227915   0.462   6.466   6.826  0.8022 -1.2974 -0.9374
 2118TIP3   OH227916   4.148   5.959   1.609 -0.2019  0.2452  0.5291
 2118TIP3    H127917   4.214   5.917   1.554  0.2752  0.3840  0.9881
 2118TIP3    H227918   4.072   5.901   1.604 -0.1232  0.2021 -0.1853
 2119TIP3   OH227919   2.487   0.592   1.505 -0.2940  0.0071 -0.4798
 2119TIP3    H127920   2.408   0.617   1.458 -0.4402  0.5423  0.0352
 2119TIP3    H227921   2.553   0.656   1.475 -0.3952  0.3693  0.0480
 2120TIP3   OH227922   3.642   3.653   0.370 -0.7011  0.2348 -0.0175
 2120TIP3    H127923   3.638   3.643   0.275  1.0619  0.3887 -0.1423
 2120TIP3    H227924   3.722   3.703   0.385 -0.0132 -1.2633  1.6260
 2121TIP3   OH227925   1.522   5.925   8.005 -1.1137  0.0507  0.0393
 2121TIP3    H127926   1.447   5.984   8.007 -2.5426 -1.6586  2.5910
 2121TIP3    H227927   1.497   5.852   8.062  1.4910 -1.8719 -1.0680
 2122TIP3   OH227928   2.718   4.785   1.723  0.1573 -0.1731  0.6482
 2122TIP3    H127929   2.803   4.824   1.702  1.1161 -1.6033  1.6685
 2122TIP3    H227930   2.685   4.838   1.797  1.5882 -1.3835  2.2263
 2123TIP3   OH227931   6.532   5.689   1.125  0.3617  0.1803 -0.7623
 2123TIP3    H127932   6.550   5.595   1.122 -2.2516 -0.4619  0.8337
 2123TIP3    H227933   6.439   5.697   1.102  0.4371  2.3561 -0.5601
 2124TIP3   OH227934   0.086   5.899   7.022 -0.3891  0.0843 -0.1147
 2124TIP3    H127935   0.015   5.961   7.043 -0.7792  0.6952 -2.8218
 2124TIP3    H227936   0.082   5.890   6.926  1.1763 -2.3643 -0.0306
 2125TIP3   OH227937   6.562   3.097   1.719 -0.5322  0.1430  0.0922
 2125TIP3    H127938   6.553   3.168   1.782  0.0484 -0.1455  0.5039
 2125TIP3    H227939   6.642   3.051   1.745 -0.7413 -0.4851 -0.3454
 2126TIP3   OH227940   1.702   2.195   6.789 -0.2189  0.1091  0.1741
 2126TIP3    H127941   1.693   2.259   6.719  0.8741  1.6580  1.3680
 2126TIP3    H227942   1.677   2.243   6.868  0.0113 -1.1482  1.0401
 2127TIP3   OH227943   2.844   4.115   6.241  0.5016  0.5153 -0.5763
 2127TIP3    H127944   2.775   4.179   6.226  0.8980  1.6361  1.9054
 2127TIP3    H227945   2.925   4.167   6.244  1.1156 -0.4033 -0.6881
 2128TIP3   OH227946   2.122   4.993   0.806 -0.1443  0.0049  0.3249
 2128TIP3    H127947   2.184   4.922   0.791  0.3479  0.3517  0.6906
 2128TIP3    H227948   2.041   4.948   0.830 -0.2720 -0.4707 -0.9148
 2129TIP3   OH227949   5.279   5.455   7.740 -0.4665 -0.1266  0.1279
 2129TIP3    H127950   5.185   5.447   7.723 -0.4122 -0.4717  0.0051
 2129TIP3    H227951   5.288   5.544   7.775 -0.7111  0.2348 -0.7039
 2130TIP3   OH227952   3.326   4.569   7.226  0.1022 -0.4689 -0.6311
 2130TIP3    H127953   3.279   4.588   7.145 -0.3161 -1.9751 -0.7668
 2130TIP3    H227954   3.328   4.653   7.273 -0.5089  0.1881 -1.7521
 2131TIP3   OH227955   1.974   1.208   1.414  0.1627  0.4654 -0.5486
 2131TIP3    H127956   2.030   1.284   1.430  0.9283  0.1132 -1.4494
 2131TIP3    H227957   1.996   1.181   1.325  0.1314 -0.9894 -0.1443
 2132TIP3   OH227958   0.941   0.259   7.723 -0.3454  0.0956 -0.3594
 2132TIP3    H127959   0.869   0.314   7.693  1.4872  2.4285 -0.7941
 2132TIP3    H227960   1.010   0.272   7.657  0.9870 -0.8798  0.7822
 2133TIP3   OH227961   5.749   3.136   7.111 -0.1854  0.0848  0.4492
 2133TIP3    H127962   5.823   3.186   7.148 -0.0782  0.1239  0.1829
 2133TIP3    H227963   5.690   3.202   7.075  0.7880 -0.0199 -1.4842
 2134TIP3   OH227964   2.634   1.335   7.595 -0.2412 -0.3027 -0.1269
 2134TIP3    H127965   2.610   1.398   7.527 -0.3082 -0.6373 -0.4125
 2134TIP3    H227966   2.689   1.270   7.551  0.5100 -0.0028  0.3452
 2135TIP3   OH227967   6.914   1.999   8.117  0.3447  0.0865  0.2183
 2135TIP3    H127968   6.999   2.041   8.108  0.8990 -0.9556  0.4524
 2135TIP3    H227969   6.926   1.934   8.187 -0.0991 -1.3667 -0.9797
 2136TIP3   OH227970   1.751   2.630   1.363 -0.2423  0.0847 -0.2008
 2136TIP3    H127971   1.777   2.627   1.271  0.8787 -0.4756  0.1169
 2136TIP3    H227972   1.737   2.539   1.387  1.3586  0.0412  0.6803
 2137TIP3   OH227973   5.137   2.525   8.281  0.0327  0.0955  0.4801
 2137TIP3    H127974   5.130   2.438   8.241 -2.0206  0.6228 -0.4112
 2137TIP3    H227975   5.163   2.582   8.209  1.2046  0.2743  1.0258
 2138TIP3   OH227976   5.548   1.463   1.232 -0.3886  0.3406 -0.6527
 2138TIP3    H127977   5.628   1.461   1.285 -1.3746  1.8982  1.0086
 2138TIP3    H227978   5.562   1.534   1.170 -0.5157  0.6584 -0.3160
 2139TIP3   OH227979   3.810   3.386   7.137  0.2821 -0.2944  0.3976
 2139TIP3    H127980   3.857   3.452   7.087 -1.5913 -1.0009 -2.5604
 2139TIP3    H227981   3.879   3.331   7.176  1.8594  0.7193 -0.8643
 2140TIP3   OH227982   1.526   1.584   7.152 -0.1944 -0.1502  0.7866
 2140TIP3    H127983   1.566   1.504   7.119  0.2740 -0.0792  1.1766
 2140TIP3    H227984   1.507   1.565   7.244 -2.6376 -0.7969  0.2216
 2141TIP3   OH227985   2.076   1.576   7.181  0.3980 -0.2407 -0.4413
 2141TIP3    H127986   1.997   1.552   7.229  1.1491  1.1206  1.6047
 2141TIP3    H227987   2.123   1.493   7.171 -0.7141 -0.8673 -0.6207
 2142TIP3   OH227988   4.189   3.204   6.698  0.2737 -0.2219 -0.6768
 2142TIP3    H127989   4.266   3.150   6.715 -0.3069 -1.3950 -1.6286
 2142TIP3    H227990   4.131   3.188   6.772  0.8505  0.5304 -0.0453
 2143TIP3   OH227991   4.392   3.152   0.242 -0.2609 -0.7066  0.0245
 2143TIP3    H127992   4.338   3.136   0.164 -0.2264 -0.1213 -0.1221
 2143TIP3    H227993   4.422   3.065   0.267 -0.8786 -0.9909 -0.1772
 2144TIP3   OH227994   1.234   5.209   1.554 -0.2176  0.0442  0.2850
 2144TIP3    H127995   1.199   5.122   1.574  2.1396 -0.8029  1.1125
 2144TIP3    H227996   1.316   5.191   1.507 -1.1190  1.9033 -2.2496
 2145TIP3   OH227997   3.929   3.090   6.386  0.7926  0.4796 -0.2030
 2145TIP3    H127998   3.967   3.002   6.384 -0.4218 -0.1594  1.6445
 2145TIP3    H227999   3.896   3.104   6.298  0.6582 -1.1125 -0.4425
 2146TIP3   OH228000   3.719   1.333   8.148 -0.3624  0.1329  0.1962
 2146TIP3    H128001   3.642   1.288   8.114  1.0394 -1.0540 -1.5566
 2146TIP3    H228002   3.745   1.282   8.225  1.2269 -2.2515 -1.7786
 2147TIP3   OH228003   3.577   0.640   1.378 -0.1645 -0.2628 -0.0729
 2147TIP3    H128004   3.494   0.687   1.377 -1.0856 -1.8107  0.1759
 2147TIP3    H228005   3.603   0.639   1.470 -0.7754 -1.2572  0.1034
 2148TIP3   OH228006   1.311   2.314   5.849  0.2678 -0.2581 -0.3703
 2148TIP3    H128007   1.237   2.373   5.862 -0.5968 -1.5932  1.1188
 2148TIP3    H228008   1.386   2.360   5.886 -0.3334  0.0264  0.5195
 2149TIP3   OH228009   4.027   3.812   1.767  0.5318 -0.3764  0.4648
 2149TIP3    H128010   4.020   3.890   1.711 -1.4253 -1.3467 -0.7563
 2149TIP3    H228011   4.043   3.847   1.855 -2.3245  1.6028  0.3478
 2150TIP3   OH228012   3.890   1.796   7.608 -0.3053  0.3259  0.1668
 2150TIP3    H128013   3.986   1.796   7.601 -0.2080 -0.6235  1.3047
 2150TIP3    H228014   3.864   1.879   7.569  0.8781  0.0196 -1.3866
 2151TIP3   OH228015   6.772   5.681   7.242  0.1564  0.5137 -0.3777
 2151TIP3    H128016   6.789   5.588   7.228 -1.0310  0.4959 -1.9197
 2151TIP3    H228017   6.813   5.701   7.326  0.8955 -1.2695 -0.2895
 2152TIP3   OH228018   6.452   3.424   5.974  0.1862 -0.4316  0.4310
 2152TIP3    H128019   6.437   3.345   5.923  1.3801 -0.2526 -0.2291
 2152TIP3    H228020   6.545   3.421   5.997  0.5616  1.3500 -0.6146
 2153TIP3   OH228021   2.316   3.682   0.534  0.1018 -0.0002  0.8215
 2153TIP3    H128022   2.252   3.692   0.605  0.4541  0.9480  1.0204
 2153TIP3    H228023   2.401   3.694   0.577  0.2780  1.7013  0.0781
 2154TIP3   OH228024   4.243   4.671   0.824 -0.7811  0.1649  0.1808
 2154TIP3    H128025   4.242   4.742   0.888  1.1898  0.6035 -0.2014
 2154TIP3    H228026   4.201   4.707   0.747 -1.4765  0.2668  0.5978
 2155TIP3   OH228027   6.311   6.008   7.675  0.0193 -0.1279  0.0837
 2155TIP3    H128028   6.307   5.934   7.736  1.7991  0.6901  1.2943
 2155TIP3    H228029   6.337   5.970   7.591  2.6296 -0.7889  1.0746
 2156TIP3   OH228030   4.622   5.220   8.224  0.2346 -0.3210  0.3332
 2156TIP3    H128031   4.589   5.136   8.257 -1.4634  0.7721  1.6403
 2156TIP3    H228032   4.657   5.264   8.302 -0.2167  0.7348 -0.0396
 2157TIP3   OH228033   0.142   2.766   0.563 -0.0046 -0.0419  0.3517
 2157TIP3    H128034   0.115   2.832   0.627 -1.0485  1.1754 -1.2418
 2157TIP3    H228035   0.221   2.801   0.523  1.1995 -1.2503  1.5650
 2158TIP3   OH228036   3.817   0.988   7.583 -0.3204 -0.3461 -0.0599
 2158TIP3    H128037   3.835   1.054   7.650  0.0076 -0.3080 -0.1827
 2158TIP3    H228038   3.783   0.913   7.632  1.1582 -0.8058  0.3047
 2159TIP3   OH228039   4.112   6.613   1.204 -0.2700  0.0720  0.4638
 2159TIP3    H128040   4.193   6.581   1.165 -0.6248  0.6960 -0.8837
 2159TIP3    H228041   4.073   6.667   1.135 -1.5227  0.2848  1.3065
 2160TIP3   OH228042   1.249   1.975   7.283 -0.3168  0.5601 -0.6296
 2160TIP3    H128043   1.298   1.957   7.363 -0.9101  1.4895 -0.0398
 2160TIP3    H228044   1.316   1.978   7.214  0.2030 -0.1675 -0.1640
 2161TIP3   OH228045   4.229   5.813   7.602  0.1683  0.6591  0.9365
 2161TIP3    H128046   4.170   5.826   7.528 -0.8680 -3.8918  0.6788
 2161TIP3    H228047   4.175   5.830   7.679  0.2124  1.8949  0.7196
 2162TIP3   OH228048   4.256   5.518   6.968  0.0584  0.2580  0.0669
 2162TIP3    H128049   4.246   5.590   6.906  0.9964  1.3144  1.0970
 2162TIP3    H228050   4.180   5.526   7.026 -0.5359 -0.4029 -0.6096
 2163TIP3   OH228051   4.514   3.568   7.171  0.1185 -0.4789 -0.2234
 2163TIP3    H128052   4.487   3.478   7.157 -0.2517 -0.3472 -0.3643
 2163TIP3    H228053   4.508   3.581   7.265  2.0698 -1.1941  0.0364
 2164TIP3   OH228054   2.984   0.024   0.987 -0.0440  0.1993 -0.1649
 2164TIP3    H128055   2.908   0.067   0.950 -0.5717  0.4773  1.1933
 2164TIP3    H228056   3.057   0.053   0.932 -0.4387  2.5117  0.4247
 2165TIP3   OH228057   5.780   4.827   0.553  0.4144  0.3048  0.1979
 2165TIP3    H128058   5.814   4.912   0.579 -1.4512  0.6784  1.5948
 2165TIP3    H228059   5.821   4.765   0.614  1.1764  0.2862 -0.3223
 2166TIP3   OH228060   6.850   0.978   8.263  0.4773 -0.5308  0.3303
 2166TIP3    H128061   6.864   0.884   8.278 -0.0296 -0.4357  1.5152
 2166TIP3    H228062   6.783   1.002   8.327  0.1213  0.5087 -0.4108
 2167TIP3   OH228063   5.839   3.641   7.360  0.2043 -0.2991 -0.0073
 2167TIP3    H128064   5.896   3.682   7.425  0.4827 -2.1546  0.9889
 2167TIP3    H228065   5.889   3.565   7.330 -0.8844 -0.7593 -0.6779
 2168TIP3   OH228066   3.151   2.923   7.142  0.3049  0.1200 -0.5970
 2168TIP3    H128067   3.057   2.936   7.126  0.4783  0.8549 -1.1117
 2168TIP3    H228068   3.185   3.012   7.155  0.8168 -0.1994  0.2532
 2169TIP3   OH228069   1.328   2.967   2.019 -0.1678 -0.4012 -0.3733
 2169TIP3    H128070   1.260   2.925   2.072  1.3240 -1.2479  0.9451
 2169TIP3    H228071   1.321   3.060   2.041  0.2675 -0.7095  1.1879
 2170TIP3   OH228072   4.819   3.788   7.472 -0.5236  0.5861 -0.1088
 2170TIP3    H128073   4.770   3.765   7.551  0.2456 -0.2356  0.1327
 2170TIP3    H228074   4.752   3.824   7.412 -0.9708  2.1093  1.2319
 2171TIP3   OH228075   4.557   2.129   8.259  0.0212  0.0796  0.5033
 2171TIP3    H128076   4.549   2.065   8.330 -0.0768 -0.1474  0.2914
 2171TIP3    H228077   4.481   2.112   8.203  0.9036 -0.8106 -0.5000
 2172TIP3   OH228078   5.823   5.521   1.750  0.1664  0.2259  0.1194
 2172TIP3    H128079   5.906   5.554   1.781  0.7821 -0.1169 -1.0898
 2172TIP3    H228080   5.785   5.475   1.825  0.4749  1.4513  1.0436
 2173TIP3   OH228081   1.053   0.899   1.016  0.0279  0.2171  0.1083
 2173TIP3    H128082   1.016   0.813   1.038  1.6979 -0.4669  0.4227
 2173TIP3    H228083   1.054   0.947   1.098  2.8450 -1.0004  0.9117
 2174TIP3   OH228084   1.434   3.761   7.974  0.3950 -0.2372 -0.6051
 2174TIP3    H128085   1.408   3.707   8.049 -1.5407  0.6229 -0.5954
 2174TIP3    H228086   1.479   3.835   8.014  0.4943 -0.4136 -0.3865
 2175TIP3   OH228087   1.562   6.066   6.779 -0.9192  0.0187 -0.0954
 2175TIP3    H128088   1.556   6.153   6.820 -2.0037  0.7899 -1.7959
 2175TIP3    H228089   1.546   6.082   6.686 -0.2780 -1.9072 -0.5754
 2176TIP3   OH228090   6.612   3.696   0.602 -0.2182 -0.1912 -0.9427
 2176TIP3    H128091   6.691   3.751   0.599  0.0298 -0.5266 -0.6208
 2176TIP3    H228092   6.543   3.752   0.566 -0.0921  0.5601 -0.0740
 2177TIP3   OH228093   2.664   0.539   7.276  0.1907 -0.7610  0.1359
 2177TIP3    H128094   2.718   0.585   7.211 -0.4750 -0.1898 -0.0229
 2177TIP3    H228095   2.600   0.491   7.224  0.4253 -1.2920  0.3320
 2178TIP3   OH228096   1.110   6.989   0.247 -0.1588  0.1303  0.4461
 2178TIP3    H128097   1.083   7.056   0.184 -0.4076  0.5541  0.9884
 2178TIP3    H228098   1.201   6.970   0.225  0.0635  1.0025  0.5789
 2179TIP3   OH228099   4.677   0.973   1.313 -0.3943  0.1236 -0.0137
 2179TIP3    H128100   4.619   0.923   1.255  1.0575  0.0337 -1.4491
 2179TIP3    H228101   4.763   0.932   1.302  0.1940  0.9745  1.1947
 2180TIP3   OH228102   4.615   0.323   1.874  0.3721  0.3753 -0.0073
 2180TIP3    H128103   4.690   0.278   1.834  0.0001 -0.0764 -0.2056
 2180TIP3    H228104   4.548   0.255   1.883 -0.5893  1.1185 -1.2997
 2181TIP3   OH228105   3.295   6.813   0.386  0.0389 -0.4812  0.1012
 2181TIP3    H128106   3.366   6.875   0.368 -0.4290  0.2828  0.8279
 2181TIP3    H228107   3.229   6.833   0.319  0.6909 -1.5296 -0.8924
 2182TIP3   OH228108   0.195   5.291   8.118  0.0516  0.3443  0.3183
 2182TIP3    H128109   0.266   5.239   8.081  0.6008  0.2828  1.4429
 2182TIP3    H228110   0.178   5.252   8.204 -2.2537 -0.4935 -0.4346
 2183TIP3   OH228111   3.667   4.939   6.157 -0.2712  0.2900 -0.4325
 2183TIP3    H128112   3.762   4.950   6.154 -0.0682 -1.2020 -0.7170
 2183TIP3    H228113   3.631   5.015   6.112  0.6429  2.1658  1.7982
 2184TIP3   OH228114   2.616   6.517   0.300  0.7359  0.2899  0.0306
 2184TIP3    H128115   2.538   6.524   0.244  0.8490 -2.7458 -0.6721
 2184TIP3    H228116   2.687   6.553   0.246  0.2662  0.6487 -0.3571
 2185TIP3   OH228117   2.036   2.343   2.309  0.1405  0.3210  0.0104
 2185TIP3    H128118   1.959   2.292   2.333  0.0645  0.6130  0.4065
 2185TIP3    H228119   2.104   2.278   2.291 -0.6610 -0.0249 -2.0735
 2186TIP3   OH228120   3.969   3.248   0.412  0.5554  0.3025 -0.0180
 2186TIP3    H128121   3.942   3.159   0.388  0.8948  0.0326  0.5903
 2186TIP3    H228122   4.065   3.243   0.415  0.5377  0.4535  0.9202
 2187TIP3   OH228123   2.546   2.650   6.952 -0.4877 -0.3474 -0.1821
 2187TIP3    H128124   2.633   2.674   6.983 -1.1739  0.5790  1.1059
 2187TIP3    H228125   2.491   2.726   6.970 -1.1738 -0.0827 -2.9011
 2188TIP3   OH228126   5.988   4.594   0.205  0.3458  0.1419 -0.4648
 2188TIP3    H128127   5.893   4.604   0.207  0.1950 -1.2017  0.0447
 2188TIP3    H228128   6.004   4.534   0.132  0.8269  0.5308 -0.6864
 2189TIP3   OH228129   6.224   2.589   6.112 -0.5388 -0.2174  0.8288
 2189TIP3    H128130   6.135   2.555   6.103 -0.9041  0.7295  0.8114
 2189TIP3    H228131   6.255   2.598   6.022 -0.3370 -0.7431  0.8387
 2190TIP3   OH228132   3.724   1.295   2.412  0.8954 -0.6028  0.2575
 2190TIP3    H128133   3.781   1.321   2.340 -1.4390 -2.6086 -2.5814
 2190TIP3    H228134   3.765   1.217   2.449  2.4710  0.8406  1.6510
 2191TIP3   OH228135   1.754   6.476   0.544  0.2768 -0.1504  0.2524
 2191TIP3    H128136   1.687   6.492   0.609 -0.1996  1.8427 -0.6399
 2191TIP3    H228137   1.778   6.563   0.512  2.2848 -0.8958 -0.4547
 2192TIP3   OH228138   4.054   4.649   8.165 -0.6737  0.1986 -0.4771
 2192TIP3    H128139   4.131   4.599   8.189 -0.2249  0.7192 -0.8127
 2192TIP3    H228140   4.085   4.739   8.154 -1.2881  0.3830 -0.7986
 2193TIP3   OH228141   2.630   4.520   1.771 -0.4283  0.2121 -0.2605
 2193TIP3    H128142   2.541   4.519   1.808 -0.0902  0.9279  0.6220
 2193TIP3    H228143   2.640   4.608   1.736 -0.7334 -0.4526 -2.1218
 2194TIP3   OH228144   6.606   1.323   1.711 -0.3813 -0.1490 -0.0499
 2194TIP3    H128145   6.674   1.283   1.766 -0.4701 -1.0764 -0.5996
 2194TIP3    H228146   6.562   1.384   1.770  0.5086 -0.0024  0.4919
 2195TIP3   OH228147   3.686   1.816   7.933  0.0297  0.0459  0.2472
 2195TIP3    H128148   3.778   1.791   7.946 -0.6538 -1.2208  3.7113
 2195TIP3    H228149   3.681   1.905   7.967  0.4715  1.2900 -2.7273
 2196TIP3   OH228150   0.863   5.931   1.152  0.1185  0.3402  0.3868
 2196TIP3    H128151   0.889   5.840   1.162  1.2389  0.3299 -1.9318
 2196TIP3    H228152   0.883   5.971   1.236  3.4106 -0.7316  0.2758
 2197TIP3   OH228153   6.008   5.105   7.795 -0.2512 -0.0782 -0.2831
 2197TIP3    H128154   6.061   5.162   7.739 -0.2072 -1.5029 -1.7925
 2197TIP3    H228155   5.969   5.163   7.860  1.7828  1.2758 -0.1841
 2198TIP3   OH228156   4.471   4.688   1.871 -0.0264  0.0490 -0.6740
 2198TIP3    H128157   4.550   4.635   1.866  0.9890  1.4681 -0.3357
 2198TIP3    H228158   4.502   4.778   1.862 -1.4749  0.7220  0.6375
 2199TIP3   OH228159   2.444   5.384   6.510 -0.4317 -0.4796 -0.8730
 2199TIP3    H128160   2.368   5.347   6.466 -1.0682  1.0259 -1.0974
 2199TIP3    H228161   2.408   5.431   6.585  0.0291  1.7500 -1.9563
 2200TIP3   OH228162   1.364   6.206   1.306  0.7019 -0.2118  0.5004
 2200TIP3    H128163   1.330   6.289   1.273 -0.0373 -0.4747  0.5654
 2200TIP3    H228164   1.289   6.165   1.349  1.4948 -0.1167  2.0517
 2201TIP3   OH228165   2.781   2.441   7.070 -0.5175  0.3770 -0.4393
 2201TIP3    H128166   2.686   2.442   7.076 -0.4035  0.2299  2.1037
 2201TIP3    H228167   2.800   2.384   6.995 -2.3857 -0.4273 -0.3351
 2202TIP3   OH228168   3.634   2.937   1.027 -0.1700 -0.1114 -0.7931
 2202TIP3    H128169   3.609   2.935   0.934 -1.2002  0.3639 -0.5386
 2202TIP3    H228170   3.730   2.937   1.026 -0.0898  2.5906 -1.9580
 2203TIP3   OH228171   1.899   5.415   0.640  0.6298 -0.2780  0.2424
 2203TIP3    H128172   1.807   5.391   0.637  0.3131  0.9461 -0.0576
 2203TIP3    H228173   1.900   5.510   0.655  1.8304 -0.2029 -0.1733
 2204TIP3   OH228174   5.125   2.681   1.747 -0.2124  0.5586 -0.5108
 2204TIP3    H128175   5.131   2.618   1.675 -2.0276 -0.5796  0.2568
 2204TIP3    H228176   5.167   2.637   1.821 -0.1176  0.8928 -0.3628
 2205TIP3   OH228177   4.851   0.718   0.177  0.3428 -0.1875 -0.6902
 2205TIP3    H128178   4.822   0.804   0.206 -1.4401 -1.6450  2.4544
 2205TIP3    H228179   4.807   0.705   0.093 -2.6262  0.5262  0.6041
 2206TIP3   OH228180   3.122   4.537   1.731 -0.3853  0.3780 -0.3536
 2206TIP3    H128181   3.084   4.621   1.707 -1.1093 -0.0094 -0.5706
 2206TIP3    H228182   3.063   4.503   1.799 -1.1321 -0.7820 -1.5550
 2207TIP3   OH228183   2.667   5.328   1.872  0.3551 -0.5638 -0.0878
 2207TIP3    H128184   2.581   5.288   1.859  1.2279 -2.4905 -0.2526
 2207TIP3    H228185   2.706   5.330   1.784  1.3336 -1.8021  0.2988
 2208TIP3   OH228186   2.304   0.049   1.301  0.2856 -0.3811 -0.7800
 2208TIP3    H128187   2.298  -0.008   1.224 -1.6975  0.6946 -1.5055
 2208TIP3    H228188   2.356  -0.001   1.364  0.7899 -1.8800 -2.3023
 2209TIP3   OH228189   1.303   3.035   7.655  0.3555  0.0276 -0.3469
 2209TIP3    H128190   1.370   2.967   7.643  1.0143  0.3749  1.0818
 2209TIP3    H228191   1.351   3.117   7.645  0.1367  0.2798  0.5769
 2210TIP3   OH228192   4.390   3.172   1.999  0.1795  0.3169 -0.3914
 2210TIP3    H128193   4.429   3.111   2.061 -0.8896 -0.6916 -0.6804
 2210TIP3    H228194   4.383   3.254   2.048 -0.0330 -0.2825  0.6144
 2211TIP3   OH228195   0.795   0.596   1.702 -0.1352  0.3284 -0.2091
 2211TIP3    H128196   0.835   0.636   1.779  1.9073 -0.8027 -0.6126
 2211TIP3    H228197   0.729   0.659   1.673 -0.8499  0.8677  2.3333
 2212TIP3   OH228198   0.512   4.012   7.324  0.0902  0.4700  0.2560
 2212TIP3    H128199   0.518   3.954   7.248 -0.0826 -0.7441  1.1405
 2212TIP3    H228200   0.549   4.095   7.294  2.4142 -0.7286 -0.4068
 2213TIP3   OH228201   6.878   4.085   0.379 -0.2199  0.2100  0.4956
 2213TIP3    H128202   6.820   4.158   0.357 -0.7317 -0.1025  0.7882
 2213TIP3    H228203   6.960   4.126   0.407 -0.4151  0.6601  0.4130
 2214TIP3   OH228204   6.874   6.824   7.655 -0.5190 -0.6380  0.7242
 2214TIP3    H128205   6.790   6.778   7.664 -2.9075  2.4553 -2.7567
 2214TIP3    H228206   6.860   6.907   7.701 -1.7089  2.2175 -4.1057
 2215TIP3   OH228207   2.692   6.607   8.163 -0.4326 -0.0765 -0.0526
 2215TIP3    H128208   2.733   6.554   8.094 -0.0265  0.5831 -0.3284
 2215TIP3    H228209   2.600   6.611   8.138 -0.5269 -0.9165  0.1439
 2216TIP3   OH228210   0.742   3.372   1.264 -0.5213 -0.5129  0.0937
 2216TIP3    H128211   0.744   3.419   1.348 -1.0636  0.3812 -0.3822
 2216TIP3    H228212   0.649   3.358   1.246 -0.3690 -2.2555  0.4658
 2217TIP3   OH228213   4.496   5.666   0.283 -0.0326 -0.0231  0.5350
 2217TIP3    H128214   4.564   5.627   0.229  0.2607  0.0720  0.8361
 2217TIP3    H228215   4.516   5.760   0.282 -0.7151  0.1252 -0.1620
 2218TIP3   OH228216   5.039   5.985   6.865 -0.4097 -0.0860  0.4195
 2218TIP3    H128217   5.093   5.971   6.787 -0.5030 -3.1334  0.7700
 2218TIP3    H228218   5.097   5.966   6.938 -0.7732  1.1256  1.0442
 2219TIP3   OH228219   2.550   6.274   0.424 -0.4506 -0.7121  0.2870
 2219TIP3    H128220   2.561   6.360   0.383 -1.2633 -0.0544  1.4174
 2219TIP3    H228221   2.581   6.286   0.514 -0.4232 -1.6556  0.4130
 2220TIP3   OH228222   6.748   4.393   0.312  0.3533  0.1916  0.5194
 2220TIP3    H128223   6.795   4.461   0.361 -0.8714  0.6982  1.0342
 2220TIP3    H228224   6.769   4.411   0.221  1.2419  0.3392  0.7454
 2221TIP3   OH228225   5.558   6.970   0.017  0.3411  0.0234 -0.1665
 2221TIP3    H128226   5.583   6.955   0.108 -0.1845 -2.1424 -0.3250
 2221TIP3    H228227   5.621   6.918  -0.034  0.2771  0.7518 -1.0096
 2222TIP3   OH228228   5.120   0.124   6.662 -0.6615 -0.0972  0.2438
 2222TIP3    H128229   5.044   0.094   6.611 -1.2756 -1.6683  1.9708
 2222TIP3    H228230   5.190   0.133   6.597 -1.2431 -2.6061 -0.8577
 2223TIP3   OH228231   2.336   2.470   6.742 -0.2139  0.1342 -0.3447
 2223TIP3    H128232   2.414   2.427   6.707  0.7299  0.3283  1.4216
 2223TIP3    H228233   2.291   2.505   6.665  0.2532 -1.8771 -1.6134
 2224TIP3   OH228234   5.277   0.338   1.031 -0.6772 -0.5078  0.4565
 2224TIP3    H128235   5.207   0.296   0.981 -0.1827 -0.8956  0.0809
 2224TIP3    H228236   5.281   0.427   0.996  0.3187 -1.0647 -0.8882
 2225TIP3   OH228237   5.787   5.364   1.524  0.1113 -0.3772 -0.7253
 2225TIP3    H128238   5.801   5.417   1.603  0.0331  1.4854 -1.9115
 2225TIP3    H228239   5.814   5.276   1.550  0.2051  0.1954  1.3448
 2226TIP3   OH228240   4.062   3.758   1.347  0.0672 -0.3919  0.2298
 2226TIP3    H128241   4.114   3.736   1.270  0.8161  1.1301  0.2699
 2226TIP3    H228242   4.116   3.728   1.421 -0.4043 -1.3493  0.2053
 2227TIP3   OH228243   0.208   5.319   6.316 -0.1229 -0.4408 -0.3619
 2227TIP3    H128244   0.214   5.236   6.269 -0.3359 -1.4227  1.2732
 2227TIP3    H228245   0.299   5.345   6.330 -0.0561 -0.0090 -1.4848
 2228TIP3   OH228246   3.870   5.976   7.585  0.2104 -0.3320  0.1833
 2228TIP3    H128247   3.825   5.917   7.645 -0.7868 -0.8870 -1.0666
 2228TIP3    H228248   3.889   6.054   7.638 -0.6344 -0.7910  1.2091
 2229TIP3   OH228249   2.140   5.859   0.466 -0.1865  0.0562  0.5981
 2229TIP3    H128250   2.201   5.847   0.538  0.1331  0.1219  0.3371
 2229TIP3    H228251   2.152   5.949   0.438  0.8709 -0.4351 -0.6094
 2230TIP3   OH228252   3.636   4.509   1.408 -0.2536  0.3766  0.4802
 2230TIP3    H128253   3.611   4.558   1.487  0.1307  2.5650 -0.6909
 2230TIP3    H228254   3.728   4.532   1.394  0.2371 -1.4507  0.3656
 2231TIP3   OH228255   6.161   4.793   0.658 -0.2233  0.2365  0.5000
 2231TIP3    H128256   6.083   4.740   0.677  0.8344 -1.0117  1.4864
 2231TIP3    H228257   6.145   4.827   0.570 -1.3427 -0.9939  0.1916
 2232TIP3   OH228258   6.672   0.418   2.328 -0.1625 -0.4144  0.0688
 2232TIP3    H128259   6.707   0.329   2.327 -1.0415 -0.7621 -0.9075
 2232TIP3    H228260   6.580   0.407   2.354 -1.2870 -0.2249 -3.3563
 2233TIP3   OH228261   3.664   2.745   1.213 -0.6209  0.0374 -0.1478
 2233TIP3    H128262   3.622   2.824   1.179 -0.7935  0.1041  0.2176
 2233TIP3    H228263   3.604   2.674   1.193 -0.3523 -0.0386 -0.6974
 2234TIP3   OH228264   0.992   3.181   8.042  0.2712 -0.6295  0.8797
 2234TIP3    H128265   1.081   3.159   8.014 -0.9353 -1.5501 -2.8509
 2234TIP3    H228266   0.995   3.274   8.064  1.5039  0.4744 -3.1371
 2235TIP3   OH228267   6.759   2.819   0.546 -0.3863 -0.4395  0.1878
 2235TIP3    H128268   6.732   2.728   0.530 -0.9168 -0.1794 -0.4614
 2235TIP3    H228269   6.779   2.822   0.639  0.9199 -1.5442 -0.0313
 2236TIP3   OH228270   0.405   2.018   8.021  0.1828  0.2136  0.1780
 2236TIP3    H128271   0.466   1.990   8.089  0.2007  0.7186  0.3792
 2236TIP3    H228272   0.414   1.953   7.952  0.2032 -0.2729  0.6364
 2237TIP3   OH228273   4.989   2.344   6.526  0.7885 -0.1309 -0.4629
 2237TIP3    H128274   4.930   2.357   6.452  0.6887 -0.7049 -0.4864
 2237TIP3    H228275   5.075   2.331   6.486  0.8089 -0.0152 -0.4577
 2238TIP3   OH228276   3.718   2.963   7.566  0.1143  0.5590  0.6920
 2238TIP3    H128277   3.688   3.039   7.515 -0.2038 -0.4219 -0.6526
 2238TIP3    H228278   3.771   3.001   7.636  1.6201  1.9539 -1.0735
 2239TIP3   OH228279   3.207   2.561   6.587  0.2819 -0.2753 -0.1453
 2239TIP3    H128280   3.167   2.480   6.555 -0.6052  0.3427 -0.6620
 2239TIP3    H228281   3.271   2.585   6.520 -1.4103  0.8932 -1.4075
 2240TIP3   OH228282   0.251   6.780   2.368  0.5682  0.6658 -0.3289
 2240TIP3    H128283   0.219   6.863   2.333 -0.6291  0.7038  0.7998
 2240TIP3    H228284   0.175   6.741   2.411  1.2846 -0.7084 -0.2527
 2241TIP3   OH228285   3.009   3.503   6.819 -0.5187 -0.6280  0.4175
 2241TIP3    H128286   3.088   3.510   6.766  0.1788 -1.8220  1.2334
 2241TIP3    H228287   2.950   3.569   6.784  0.3804 -0.5392 -1.0116
 2242TIP3   OH228288   2.661   3.045   6.544 -0.3529  0.0399  0.2729
 2242TIP3    H128289   2.722   3.103   6.590 -1.1071  0.0258  1.3227
 2242TIP3    H228290   2.597   3.103   6.505  1.2519  0.1952 -2.3509
 2243TIP3   OH228291   0.666   1.774   7.743  0.1792  0.3773 -0.2153
 2243TIP3    H128292   0.619   1.800   7.664  0.0597 -1.0080 -0.6398
 2243TIP3    H228293   0.733   1.712   7.711 -1.2268 -1.8666  0.9489
 2244TIP3   OH228294   2.446   3.367   7.033 -0.1898 -0.4357 -0.0276
 2244TIP3    H128295   2.442   3.449   6.982  0.8935 -1.0272 -1.1258
 2244TIP3    H228296   2.442   3.396   7.124  1.6392  1.0003 -0.3408
 2245TIP3   OH228297   6.776   2.426   1.387 -0.1934  0.2891 -0.2060
 2245TIP3    H128298   6.847   2.477   1.425  0.6324  0.6575 -2.1369
 2245TIP3    H228299   6.719   2.491   1.346 -1.3598 -0.0501  0.8040
 2246TIP3   OH228300   3.797   6.840   7.935 -0.4807  0.2175 -0.3511
 2246TIP3    H128301   3.798   6.929   7.971  1.3449 -1.0495  3.2270
 2246TIP3    H228302   3.704   6.818   7.928 -0.9397  1.6712  0.7360
 2247TIP3   OH228303   4.836   1.538   8.084 -0.5064 -0.3066 -0.3024
 2247TIP3    H128304   4.823   1.594   8.160  2.3721 -0.0564  0.0831
 2247TIP3    H228305   4.833   1.597   8.009 -0.3160 -0.0778 -0.1294
 2248TIP3   OH228306   2.471   6.682   7.641 -0.4804  0.1615 -0.3624
 2248TIP3    H128307   2.533   6.611   7.657 -0.5058  0.5361  1.7156
 2248TIP3    H228308   2.524   6.753   7.604 -0.0368 -0.1629 -0.3475
 2249TIP3   OH228309   6.292   0.882   8.045  0.5338 -1.0699 -0.2666
 2249TIP3    H128310   6.210   0.923   8.072  1.5303 -0.1124  1.4740
 2249TIP3    H228311   6.320   0.931   7.968  0.0069 -0.7195 -0.2369
 2250TIP3   OH228312   3.413   3.613   1.378 -0.3493  0.7835 -0.1668
 2250TIP3    H128313   3.414   3.603   1.473  0.8236  1.3626 -0.1086
 2250TIP3    H228314   3.475   3.683   1.360 -0.1624  0.3296 -1.4022
 2251TIP3   OH228315   0.712   3.949   0.926 -0.8897  0.2207 -0.2257
 2251TIP3    H128316   0.637   3.998   0.959 -1.6388 -0.7276 -0.4781
 2251TIP3    H228317   0.684   3.917   0.840 -1.1461 -2.1674  0.6696
 2252TIP3   OH228318   3.084   0.581   7.277  0.0132  0.3971 -0.1052
 2252TIP3    H128319   3.148   0.611   7.340  0.1985  0.5304 -0.3545
 2252TIP3    H228320   3.084   0.648   7.209  0.6861 -0.3388 -0.8487
 2253TIP3   OH228321   3.913   2.298   0.174  0.1703  0.5878  0.1011
 2253TIP3    H128322   3.867   2.336   0.249  1.3805  0.6495  0.8342
 2253TIP3    H228323   3.843   2.273   0.113 -0.7361  2.6344  0.2261
 2254TIP3   OH228324   6.577   2.622   2.674  0.2483 -0.3823  0.0681
 2254TIP3    H128325   6.618   2.625   2.760  1.5198 -0.5301 -0.4926
 2254TIP3    H228326   6.647   2.592   2.616  0.2243  2.1312 -1.4250
 2255TIP3   OH228327   4.402   4.825   8.290  0.0389  0.1813 -0.1742
 2255TIP3    H128328   4.379   4.917   8.297  0.7841  0.3128  0.7724
 2255TIP3    H228329   4.371   4.786   8.371  2.5971  0.2786  0.9585
 2256TIP3   OH228330   6.811   3.314   0.386 -0.4134 -0.4232  0.6452
 2256TIP3    H128331   6.775   3.260   0.457  1.2118 -1.3158  0.8507
 2256TIP3    H228332   6.793   3.404   0.412 -1.9133 -0.7892  1.0072
 2257TIP3   OH228333   0.929   3.250   0.378  0.6201  0.0129 -0.2151
 2257TIP3    H128334   0.920   3.201   0.459  1.5815  0.8566  0.4361
 2257TIP3    H228335   1.012   3.221   0.341  0.1997 -0.3474 -0.8888
 2258TIP3   OH228336   2.287   5.712   7.059  0.1618  0.5993  0.2668
 2258TIP3    H128337   2.198   5.745   7.070  0.1077  0.7099 -0.4622
 2258TIP3    H228338   2.342   5.790   7.056  0.0532  0.6436 -1.2825
 2259TIP3   OH228339   1.572   5.359   7.569  0.3832  0.0689  0.0796
 2259TIP3    H128340   1.541   5.397   7.651  2.1865  1.0252  0.3665
 2259TIP3    H228341   1.492   5.340   7.520 -0.8022 -1.3094  2.3557
 2260TIP3   OH228342   2.472   3.639   8.243  0.6898  0.3987 -0.3234
 2260TIP3    H128343   2.478   3.731   8.218  1.2130  0.3121 -0.5300
 2260TIP3    H228344   2.413   3.638   8.318 -0.4117  0.7394 -1.1554
 2261TIP3   OH228345   1.243   1.727   7.972 -0.0529  0.1834 -0.1068
 2261TIP3    H128346   1.220   1.661   7.907 -0.4827 -2.0309  2.1562
 2261TIP3    H228347   1.226   1.685   8.056 -0.8938  3.4009  1.4771
 2262TIP3   OH228348   0.573   6.329   1.152  0.2206  0.7463 -0.2293
 2262TIP3    H128349   0.546   6.264   1.088  0.3705  0.1690  0.2879
 2262TIP3    H228350   0.590   6.279   1.232 -1.0231  1.5854  0.5924
 2263TIP3   OH228351   0.189   4.683   7.712 -0.3339  0.1453 -0.5305
 2263TIP3    H128352   0.223   4.596   7.734  0.3422  0.5170 -0.0537
 2263TIP3    H228353   0.237   4.742   7.770 -0.2531  0.9141 -1.3660
 2264TIP3   OH228354   6.983   3.748   6.463 -0.2927  0.0433  0.3731
 2264TIP3    H128355   7.034   3.812   6.512  0.3761 -0.7526  0.7509
 2264TIP3    H228356   7.026   3.664   6.481 -0.7880 -0.4359 -0.5790
 2265TIP3   OH228357   6.052   3.510   7.990  0.3164  0.4412 -0.0575
 2265TIP3    H128358   6.106   3.433   7.974  0.2589  0.5414 -0.7466
 2265TIP3    H228359   6.034   3.546   7.903 -2.2571 -0.5393 -0.0425
 2266TIP3   OH228360   3.014   4.240   1.858 -0.1558  0.2553  0.0361
 2266TIP3    H128361   3.106   4.213   1.864 -0.6612 -1.6267 -0.0102
 2266TIP3    H228362   2.990   4.262   1.948 -0.3240 -1.7624  0.5378
 2267TIP3   OH228363   4.937   2.057   7.264  0.0596  0.1967 -0.8324
 2267TIP3    H128364   5.029   2.083   7.263 -0.0455  0.7876  0.9663
 2267TIP3    H228365   4.902   2.089   7.181  1.2890  0.7282 -1.1623
 2268TIP3   OH228366   0.629   3.429   0.755  0.1852  0.0120 -0.0560
 2268TIP3    H128367   0.647   3.337   0.771 -0.6311  0.0113  0.9593
 2268TIP3    H228368   0.667   3.475   0.830 -0.2195  0.4072 -0.0874
 2269TIP3   OH228369   6.864   5.677   8.186  0.5376  0.0795 -0.4337
 2269TIP3    H128370   6.797   5.625   8.229  2.7763 -2.5575  0.1576
 2269TIP3    H228371   6.863   5.761   8.233  0.7727 -1.5538  2.7872
 2270TIP3   OH228372   6.820   0.554   7.780  0.1781 -0.0082  0.3360
 2270TIP3    H128373   6.832   0.574   7.873  1.9339 -1.2234  0.4203
 2270TIP3    H228374   6.767   0.475   7.779 -0.7761  0.6110  0.2326
 2271TIP3   OH228375   2.413   4.282   0.733  0.5075 -0.0133 -0.1694
 2271TIP3    H128376   2.450   4.201   0.769 -1.2973 -0.2582  1.2910
 2271TIP3    H228377   2.471   4.351   0.763 -0.2498 -0.3582  2.2614
 2272TIP3   OH228378   4.274   0.370   2.088  0.0028  0.2625 -0.2910
 2272TIP3    H128379   4.340   0.438   2.096 -0.5889  0.6309  3.1403
 2272TIP3    H228380   4.191   0.416   2.094 -0.4693 -0.5561 -0.2946
 2273TIP3   OH228381   4.807   1.227   0.954 -0.2943 -0.0450 -0.1032
 2273TIP3    H128382   4.762   1.185   0.880  1.4785 -0.4347 -1.0313
 2273TIP3    H228383   4.809   1.320   0.930 -0.1760 -0.0947 -0.2866
 2274TIP3   OH228384   2.356   5.911   8.294 -0.0042  0.0507  0.2226
 2274TIP3    H128385   2.346   5.958   8.377  2.1779  0.0460  0.5548
 2274TIP3    H228386   2.450   5.914   8.276 -0.3931 -0.0979 -2.1837
 2275TIP3   OH228387   5.489   4.309   7.393  0.1398 -0.0688  0.6168
 2275TIP3    H128388   5.518   4.358   7.316  1.7179  0.6067  1.5787
 2275TIP3    H228389   5.424   4.248   7.359 -2.6455  3.2010 -0.5390
 2276TIP3   OH228390   4.857   4.494   7.873  0.2139 -0.6778 -0.0633
 2276TIP3    H128391   4.884   4.444   7.951 -1.3424 -1.5888 -0.0553
 2276TIP3    H228392   4.831   4.579   7.908  0.0767 -0.8823  0.3525
 2277TIP3   OH228393   2.092   4.745   8.207  0.4937 -0.1863 -0.0612
 2277TIP3    H128394   2.022   4.680   8.210 -0.6384  0.9403 -0.8836
 2277TIP3    H228395   2.116   4.751   8.115  0.7016  0.4373  0.0271
 2278TIP3   OH228396   4.796   3.737   2.087  1.0388  0.1070  0.4110
 2278TIP3    H128397   4.810   3.759   2.179 -0.9991  1.1846  0.5431
 2278TIP3    H228398   4.883   3.739   2.047  1.7213  1.8393  1.8659
 2279TIP3   OH228399   1.651   2.563   8.269  0.7672  0.4487 -0.4005
 2279TIP3    H128400   1.582   2.615   8.228 -2.3703 -2.8750  0.1551
 2279TIP3    H228401   1.706   2.534   8.197 -0.0532  0.9323 -1.2363
 2280TIP3   OH228402   4.328   6.281   1.061  0.4591 -0.1820  0.2092
 2280TIP3    H128403   4.407   6.258   1.110  0.0021  0.3829  1.2515
 2280TIP3    H228404   4.338   6.375   1.042 -0.9098  0.4393  2.2604
 2281TIP3   OH228405   3.976   2.758   2.538  0.2104  0.1425  0.2840
 2281TIP3    H128406   3.924   2.823   2.491  1.0652  0.7279  0.1261
 2281TIP3    H228407   3.915   2.687   2.558 -0.6416  0.8307  0.1244
 2282TIP3   OH228408   2.669   2.360   1.682 -0.1478 -0.5324 -0.4343
 2282TIP3    H128409   2.695   2.446   1.715 -0.6654 -0.2321 -0.7934
 2282TIP3    H228410   2.579   2.373   1.652 -1.2882 -1.8771  2.1037
 2283TIP3   OH228411   2.907   3.307   1.475 -0.2697  0.0790 -0.3101
 2283TIP3    H128412   2.894   3.367   1.548 -0.5810  1.1994 -1.2432
 2283TIP3    H228413   2.902   3.220   1.513 -2.8519  0.5657  0.6224
 2284TIP3   OH228414   1.823   4.186   0.440  0.4415 -0.4308  0.4672
 2284TIP3    H128415   1.913   4.177   0.471  0.2526 -1.2112  0.8333
 2284TIP3    H228416   1.773   4.210   0.517  0.4115  0.5607  0.1506
 2285TIP3   OH228417   0.624   6.179   7.463 -0.0588 -0.1532  0.2998
 2285TIP3    H128418   0.612   6.144   7.552 -0.1445  0.0024  0.3508
 2285TIP3    H228419   0.596   6.271   7.470 -3.4017 -0.9689 -0.6585
 2286TIP3   OH228420   3.458   3.296   6.432 -0.3444  0.2674 -0.1845
 2286TIP3    H128421   3.536   3.340   6.398  0.9421 -1.0858  0.8861
 2286TIP3    H228422   3.439   3.228   6.368 -0.8987  0.8343 -0.6356
 2287TIP3   OH228423   5.162   5.109   0.901 -0.5194 -0.0551  0.0675
 2287TIP3    H128424   5.130   5.045   0.964 -0.0210 -1.5567 -1.1469
 2287TIP3    H228425   5.249   5.077   0.877 -0.2270  1.1298 -0.5053
 2288TIP3   OH228426   5.417   6.552   0.416  0.0313  0.1271 -0.2898
 2288TIP3    H128427   5.448   6.625   0.470  0.9879 -1.5180  1.5163
 2288TIP3    H228428   5.497   6.505   0.392 -0.2845  1.0726 -3.7391
 2289TIP3   OH228429   0.744   2.872   0.117  0.5960  0.2972  0.3481
 2289TIP3    H128430   0.660   2.833   0.091  1.4372 -0.4210 -1.4230
 2289TIP3    H228431   0.721   2.961   0.142 -0.7557  0.0180  0.2130
 2290TIP3   OH228432   2.337   0.384   0.448 -0.0637 -0.7439  0.8076
 2290TIP3    H128433   2.279   0.454   0.418 -0.7553 -1.8767 -0.6353
 2290TIP3    H228434   2.418   0.397   0.399  0.1880 -0.3508  1.3203
 2291TIP3   OH228435   6.724   0.205   1.793 -0.1589 -0.3730  0.7357
 2291TIP3    H128436   6.733   0.300   1.783 -1.0861 -0.5474 -2.9290
 2291TIP3    H228437   6.814   0.173   1.795  0.1637  0.5275  1.9265
 2292TIP3   OH228438   2.688   0.390   7.609  0.3578  0.3700  0.5209
 2292TIP3    H128439   2.731   0.381   7.694 -1.2480 -2.7486  1.1585
 2292TIP3    H228440   2.759   0.381   7.546  1.0602 -3.2201  1.5559
 2293TIP3   OH228441   5.432   3.317   7.769 -0.2080 -0.4357  0.4972
 2293TIP3    H128442   5.463   3.339   7.857  1.0689  3.2194 -0.7055
 2293TIP3    H228443   5.380   3.392   7.742 -0.2887 -1.2991 -2.0031
 2294TIP3   OH228444   6.297   1.705   0.773 -0.7347  0.2986  0.4620
 2294TIP3    H128445   6.208   1.734   0.752 -0.3972  1.3206  0.3951
 2294TIP3    H228446   6.296   1.691   0.868 -0.8396  0.7680  0.5309
 2295TIP3   OH228447   0.364   3.185   6.889  0.0619 -0.0612  0.9536
 2295TIP3    H128448   0.453   3.186   6.854 -0.5698  2.0330 -0.8630
 2295TIP3    H228449   0.350   3.275   6.917 -1.8558 -0.0487  0.0788
 2296TIP3   OH228450   0.106   3.058   6.548 -0.5603 -0.8299  0.2179
 2296TIP3    H128451   0.051   3.101   6.482 -1.4560 -0.0252  1.4495
 2296TIP3    H228452   0.103   2.965   6.524  0.7609 -0.3784 -2.0133
 2297TIP3   OH228453   4.945   0.762   7.316 -1.1313  0.0401 -0.3143
 2297TIP3    H128454   4.963   0.815   7.393 -0.8899 -0.8594  0.2683
 2297TIP3    H228455   5.029   0.723   7.292 -1.3316 -0.2173 -0.6178
 2298TIP3   OH228456   6.789   5.515   7.888 -0.7028 -0.0834 -0.3281
 2298TIP3    H128457   6.734   5.440   7.868 -0.5715 -0.8205  1.8538
 2298TIP3    H228458   6.728   5.585   7.910 -0.7964 -0.2601 -0.0272
 2299TIP3   OH228459   2.423   6.006   0.733  0.6571 -0.6675 -0.2777
 2299TIP3    H128460   2.367   5.929   0.726 -0.7522  0.2105  0.8791
 2299TIP3    H228461   2.421   6.029   0.826  0.9157  0.8752 -0.6326
 2300TIP3   OH228462   0.573   4.970   0.418  0.1280  0.7656  0.5635
 2300TIP3    H128463   0.535   5.057   0.405 -0.2041  0.4599 -0.6233
 2300TIP3    H228464   0.497   4.913   0.434  0.1553  0.3802 -0.5546
 2301TIP3   OH228465   6.143   3.922   6.985 -0.2567  0.3497 -0.0241
 2301TIP3    H128466   6.061   3.873   6.984  0.0878 -0.3224  1.5508
 2301TIP3    H228467   6.125   4.000   6.932 -2.4337  1.0270  1.5639
 2302TIP3   OH228468   5.945   4.665   0.762 -0.4927 -0.0938 -0.2735
 2302TIP3    H128469   5.895   4.731   0.809  0.9704 -0.5235  2.0689
 2302TIP3    H228470   5.881   4.599   0.736 -1.4515  0.4522  0.6633
 2303TIP3   OH228471   6.284   2.369   0.872 -0.6298 -0.6131  0.3550
 2303TIP3    H128472   6.194   2.383   0.842 -0.1001 -1.0906 -1.6283
 2303TIP3    H228473   6.299   2.275   0.859 -0.2598 -0.8102  1.9776
 2304TIP3   OH228474   2.507   2.952   7.687  0.7353 -0.6026 -0.6095
 2304TIP3    H128475   2.508   2.983   7.778  1.5195  1.5353 -1.2782
 2304TIP3    H228476   2.441   3.007   7.645 -0.4174 -2.3317 -1.1261
 2305TIP3   OH228477   6.652   3.589   0.860  0.1630 -0.1807  0.1758
 2305TIP3    H128478   6.579   3.625   0.911  0.3796 -0.4433  0.6829
 2305TIP3    H228479   6.655   3.642   0.781 -0.4081  0.0058  0.2768
 2306TIP3   OH228480   6.444   3.085   1.468 -0.1264  0.3414 -0.9391
 2306TIP3    H128481   6.496   3.107   1.545 -0.1832 -2.7910  0.1242
 2306TIP3    H228482   6.507   3.053   1.404 -0.3960 -0.2827 -0.9028
 2307TIP3   OH228483   4.752   3.496   8.163  0.4201 -0.0522 -0.4154
 2307TIP3    H128484   4.842   3.471   8.143  1.3943  2.5003  0.3709
 2307TIP3    H228485   4.743   3.480   8.257 -0.3158 -1.2925 -0.6893
 2308TIP3   OH228486   6.004   4.041   1.498  0.4514  0.1975  0.5686
 2308TIP3    H128487   5.923   4.093   1.503  0.5180  0.2787  0.8025
 2308TIP3    H228488   6.068   4.092   1.547  0.2232 -0.6533  1.7822
 2309TIP3   OH228489   6.862   6.392   6.459  0.5127  0.0806  0.5455
 2309TIP3    H128490   6.950   6.379   6.493  0.6982  1.1305  0.4903
 2309TIP3    H228491   6.834   6.305   6.431  2.0579 -0.0565 -0.6983
 2310TIP3   OH228492   3.153   3.824   7.004 -0.3779 -0.1924  0.5085
 2310TIP3    H128493   3.173   3.890   7.070  2.4024 -1.6691  1.3208
 2310TIP3    H228494   3.221   3.836   6.937 -0.9044 -1.0823 -0.2137
 2311TIP3   OH228495   1.135   6.686   0.039  0.0835 -0.4791  0.1928
 2311TIP3    H128496   1.055   6.736   0.058  0.9360  0.6493  0.9266
 2311TIP3    H228497   1.167   6.660   0.126  0.3582 -1.1733 -0.1171
 2312TIP3   OH228498   3.842   4.968   0.238  0.2394 -0.7636 -0.4700
 2312TIP3    H128499   3.908   4.952   0.171  0.8652  1.7460 -0.5332
 2312TIP3    H228500   3.868   4.911   0.311  0.3828 -2.4308 -1.7665
 2313TIP3   OH228501   3.152   3.690   1.951  0.6070 -0.3694  0.0802
 2313TIP3    H128502   3.203   3.770   1.965 -0.5696  0.8750 -2.3432
 2313TIP3    H228503   3.216   3.626   1.920  1.2422  0.1627  0.2736
 2314TIP3   OH228504   2.044   2.205   6.003  0.1136 -0.3103 -0.2619
 2314TIP3    H128505   1.971   2.176   5.947  0.1686 -2.1443  0.5303
 2314TIP3    H228506   2.073   2.287   5.964 -1.8935  0.0955 -1.0367
 2315TIP3   OH228507   0.767   6.673   0.495 -0.1292  0.0917 -0.0637
 2315TIP3    H128508   0.812   6.756   0.475 -0.0801  0.1194  0.1562
 2315TIP3    H228509   0.775   6.664   0.590 -2.1026  0.9844  0.2386
 2316TIP3   OH228510   1.506   5.991   1.851 -0.9008  0.0978 -0.3952
 2316TIP3    H128511   1.569   5.928   1.814  0.3003  0.3783  1.0677
 2316TIP3    H228512   1.443   5.936   1.898 -0.7640 -0.0931 -0.4316
 2317TIP3   OH228513   5.856   0.009   0.869 -0.3306 -0.2407  0.5462
 2317TIP3    H128514   5.882  -0.049   0.941 -0.0061  0.9573  1.4380
 2317TIP3    H228515   5.869   0.097   0.904 -2.1920  0.4050 -0.2496
 2318TIP3   OH228516   4.322   2.057   1.466  0.4995  0.2597 -0.0121
 2318TIP3    H128517   4.407   2.074   1.425  1.1546 -0.8711  0.8025
 2318TIP3    H228518   4.327   2.101   1.551  0.7740 -0.8064  0.5489
 2319TIP3   OH228519   4.721   2.314   1.440  0.3213 -0.1253  0.1551
 2319TIP3    H128520   4.658   2.372   1.481  0.1374  0.3153 -0.7369
 2319TIP3    H228521   4.673   2.233   1.423 -1.2343  1.3703 -3.8924
 2320TIP3   OH228522   1.821   5.216   6.416  0.1293  0.2075 -0.2929
 2320TIP3    H128523   1.913   5.206   6.440 -0.0097  2.6208  1.7717
 2320TIP3    H228524   1.775   5.152   6.470  0.5971 -2.2102 -2.5569
 2321TIP3   OH228525   1.124   1.352   0.265  0.1407 -0.1791 -0.3711
 2321TIP3    H128526   1.197   1.403   0.229  0.3412 -0.7734 -0.8192
 2321TIP3    H228527   1.110   1.390   0.352 -0.0365  0.9564 -0.8803
 2322TIP3   OH228528   0.257   5.017   0.677 -0.2478  0.0654 -0.4618
 2322TIP3    H128529   0.170   5.055   0.681 -0.0597  0.6669 -1.5629
 2322TIP3    H228530   0.302   5.050   0.755  0.0469  2.5325 -1.5869
 2323TIP3   OH228531   3.867   3.362   0.054  0.0160 -0.1986 -0.1053
 2323TIP3    H128532   3.867   3.272   0.086  1.5496  0.1829  1.0933
 2323TIP3    H228533   3.781   3.396   0.077 -0.1026 -0.9570  0.6082
 2324TIP3   OH228534   5.838   4.688   2.383  0.5396  0.2415 -0.9746
 2324TIP3    H128535   5.821   4.666   2.292 -0.9857  0.0842 -0.6726
 2324TIP3    H228536   5.762   4.656   2.431  0.3435  2.1211  0.0817
 2325TIP3   OH228537   0.054   0.013   0.700  0.6228 -0.5737  0.7324
 2325TIP3    H128538  -0.025   0.034   0.751 -0.0796  1.3829 -1.0395
 2325TIP3    H228539   0.030  -0.066   0.651 -0.1563 -0.1269  0.3811
 2326TIP3   OH228540   2.097   6.934   7.297 -0.6420 -0.0041  0.0100
 2326TIP3    H128541   2.080   6.898   7.384 -3.7968  0.7000 -0.1924
 2326TIP3    H228542   2.070   7.026   7.303 -0.1251  0.2796 -1.5082
 2327TIP3   OH228543   5.052   6.063   8.105  0.0347 -0.6561 -0.5151
 2327TIP3    H128544   5.110   6.040   8.032  1.0484 -0.8562  0.3400
 2327TIP3    H228545   5.108   6.105   8.169 -1.0046  0.2836 -0.1779
 2328TIP3   OH228546   0.424   1.301   7.718 -0.3917 -0.4631  0.2995
 2328TIP3    H128547   0.514   1.328   7.736 -0.3268 -1.0594  0.9165
 2328TIP3    H228548   0.389   1.276   7.804 -0.5493 -1.9861 -0.1784
 2329TIP3   OH228549   2.161   3.129   1.287  0.5890 -0.8540  0.0416
 2329TIP3    H128550   2.224   3.169   1.347  0.7635  0.8652 -1.1847
 2329TIP3    H228551   2.171   3.179   1.206 -2.2330 -0.6163 -0.2650
 2330TIP3   OH228552   1.655   5.370   6.983  0.1130  0.1155 -0.2572
 2330TIP3    H128553   1.600   5.400   6.910  0.4852 -1.6371 -1.3226
 2330TIP3    H228554   1.723   5.437   6.990  0.4565  0.0045 -1.9964
 2331TIP3   OH228555   2.660   0.030   2.169 -0.7384 -0.0883  0.0815
 2331TIP3    H128556   2.580  -0.023   2.164 -0.2620 -0.7281 -1.5802
 2331TIP3    H228557   2.703   0.015   2.085  0.7626  0.8414  0.6531
 2332TIP3   OH228558   2.892   5.341   7.607 -0.5570 -0.3006 -0.1629
 2332TIP3    H128559   2.933   5.257   7.585 -0.6939 -0.1816 -0.9073
 2332TIP3    H228560   2.799   5.320   7.619 -0.2754 -0.6113  1.7567
 2333TIP3   OH228561   2.107   0.137   8.392 -0.4104  1.6058 -0.6326
 2333TIP3    H128562   2.092   0.075   8.320  1.7365  0.4105 -0.1295
 2333TIP3    H228563   2.195   0.117   8.423 -1.1903  2.2380  2.2273
 2334TIP3   OH228564   0.061   2.748   8.167 -0.2918 -0.6360 -0.0633
 2334TIP3    H128565   0.062   2.834   8.125  2.0967 -1.2158 -1.3675
 2334TIP3    H228566  -0.006   2.755   8.235 -1.5426  1.6043 -1.3970
 2335TIP3   OH228567   2.834   6.448   7.949 -0.8378 -0.1858  0.8467
 2335TIP3    H128568   2.854   6.362   7.911  0.7672  1.0090 -1.1822
 2335TIP3    H228569   2.918   6.493   7.952 -1.6942  1.4204  1.6117
 2336TIP3   OH228570   0.853   5.868   0.871  0.7131 -0.2867  0.5112
 2336TIP3    H128571   0.942   5.889   0.843  0.4194  0.2426 -0.0351
 2336TIP3    H228572   0.844   5.910   0.957 -0.0006  2.2730 -0.7252
 2337TIP3   OH228573   6.344   4.521   0.447  1.1168 -0.7638 -0.0876
 2337TIP3    H128574   6.398   4.582   0.496  1.9845 -0.9231 -0.8011
 2337TIP3    H228575   6.254   4.540   0.474  1.5170 -0.4528  1.0901
 2338TIP3   OH228576   1.750   1.959   8.130  0.1098  0.8135  0.4284
 2338TIP3    H128577   1.660   1.939   8.103  0.8083 -1.5262 -0.4249
 2338TIP3    H228578   1.781   1.878   8.170  1.7688  1.6679  0.9273
 2339TIP3   OH228579   1.228   0.742   5.912 -0.4294  0.1194  0.3656
 2339TIP3    H128580   1.172   0.665   5.899  0.1858 -0.0077 -1.9131
 2339TIP3    H228581   1.175   0.802   5.965 -2.4119 -0.3519 -0.9822
 2340TIP3   OH228582   2.997   1.421   7.679  0.2757  0.1387 -0.1470
 2340TIP3    H128583   2.952   1.387   7.756 -0.1793  1.8313  0.3820
 2340TIP3    H228584   3.026   1.343   7.631  1.9112 -1.0196  2.4744
 2341TIP3   OH228585   5.872   0.402   1.572  0.3519 -0.0995 -0.5552
 2341TIP3    H128586   5.830   0.486   1.552  0.6674  0.2740  0.2978
 2341TIP3    H228587   5.947   0.425   1.627  0.9889 -0.8649 -1.0740
 2342TIP3   OH228588   2.026   0.803   1.624 -0.6975  0.1393 -0.3715
 2342TIP3    H128589   1.962   0.875   1.628 -2.1881 -1.1642  0.1292
 2342TIP3    H228590   2.004   0.748   1.699 -0.2261 -1.3679 -1.3062
 2343TIP3   OH228591   6.645   2.796   8.058 -0.2988  0.1105 -0.1722
 2343TIP3    H128592   6.687   2.742   7.991 -1.6494 -0.6369 -0.4503
 2343TIP3    H228593   6.717   2.848   8.095  0.6396 -0.1610 -1.5164
 2344TIP3   OH228594   4.708   3.028   1.831 -0.3923 -0.2361  0.1277
 2344TIP3    H128595   4.761   2.973   1.773 -1.1220 -0.6034 -0.1967
 2344TIP3    H228596   4.622   2.987   1.832 -1.0997  1.1659 -0.5148
 2345TIP3   OH228597   5.252   0.555   0.821 -0.2284 -0.2693 -0.0127
 2345TIP3    H128598   5.225   0.614   0.891 -1.3015 -1.0028  0.2154
 2345TIP3    H228599   5.213   0.593   0.742  1.5768  0.9588 -0.3769
 2346TIP3   OH228600   6.573   3.605   1.860 -0.1394  0.8954  0.3730
 2346TIP3    H128601   6.492   3.644   1.890 -0.2990  0.2125  0.8603
 2346TIP3    H228602   6.631   3.679   1.841 -0.7327  1.3717  0.4117
 2347TIP3   OH228603   2.982   3.380   1.183  0.3501 -0.1874  0.8637
 2347TIP3    H128604   2.975   3.469   1.218  0.0089  0.0424  0.2294
 2347TIP3    H228605   2.995   3.325   1.260  0.5608  0.4105  1.2630
 2348TIP3   OH228606   0.316   1.633   0.157 -0.1046  0.3447 -0.1853
 2348TIP3    H128607   0.250   1.672   0.215  1.5527  2.2528  0.5590
 2348TIP3    H228608   0.348   1.707   0.105  2.4932 -0.1580  0.5565
 2349TIP3   OH228609   1.310   3.723   0.525 -0.3192  0.1155  0.2253
 2349TIP3    H128610   1.322   3.785   0.453  1.6262 -1.0299 -0.5242
 2349TIP3    H228611   1.387   3.735   0.581 -1.5974  0.6932  1.9503
 2350TIP3   OH228612   4.633   0.113   1.372 -0.3494 -0.5949  0.1754
 2350TIP3    H128613   4.569   0.061   1.420 -0.7048  1.4092  2.0026
 2350TIP3    H228614   4.712   0.059   1.371 -1.1061 -1.7446  0.7302
 2351TIP3   OH228615   2.683   3.566   6.354 -0.6183  0.4400  0.0129
 2351TIP3    H128616   2.608   3.580   6.296  0.2126  3.4472 -0.4636
 2351TIP3    H228617   2.749   3.525   6.297 -0.8697  0.5188 -0.3401
 2352TIP3   OH228618   0.305   5.406   0.352  0.2263 -0.7634 -0.0759
 2352TIP3    H128619   0.322   5.337   0.415 -0.2663 -0.9762 -0.1683
 2352TIP3    H228620   0.353   5.482   0.386  1.4847 -1.3770 -0.4379
 2353TIP3   OH228621   3.154   3.111   7.796  0.5547 -0.2966 -0.5426
 2353TIP3    H128622   3.095   3.172   7.839  0.8281 -0.1922 -0.3123
 2353TIP3    H228623   3.097   3.056   7.743  0.2655 -0.1093 -0.4286
 2354TIP3   OH228624   2.053   0.585   0.134 -0.3896  0.1146  0.0736
 2354TIP3    H128625   2.045   0.516   0.068 -2.7339  2.0187 -1.8446
 2354TIP3    H228626   2.148   0.594   0.147  0.1397 -1.0840 -2.2875
 2355TIP3   OH228627   6.548   3.905   7.362 -0.2604  0.0228  0.6767
 2355TIP3    H128628   6.591   3.823   7.339  0.0747  0.0564  1.1530
 2355TIP3    H228629   6.577   3.967   7.295 -1.7681 -0.6120 -0.6090
 2356TIP3   OH228630   6.061   2.762   1.063  0.1871 -0.2306 -0.2594
 2356TIP3    H128631   6.125   2.798   1.124  1.0330  0.9357 -1.7449
 2356TIP3    H228632   6.090   2.672   1.048  0.1775 -0.4122  0.7394
 2357TIP3   OH228633   1.019   6.896   0.710 -0.0520 -0.5314 -0.4219
 2357TIP3    H128634   1.053   6.836   0.777  1.0149 -0.1100 -0.5651
 2357TIP3    H228635   0.965   6.959   0.759 -1.0681 -1.5058 -0.2546
 2358TIP3   OH228636   6.998   0.840   7.866 -0.1135  0.2735 -0.3438
 2358TIP3    H128637   7.026   0.807   7.781  1.1970  0.7984 -0.1316
 2358TIP3    H228638   6.969   0.930   7.849 -1.3047 -0.1163 -0.4821
 2359TIP3   OH228639   2.197   0.853   0.402  0.3735 -0.5610 -0.5158
 2359TIP3    H128640   2.266   0.798   0.439  0.0213 -0.4686  0.3059
 2359TIP3    H228641   2.164   0.904   0.476 -0.1956 -0.1900 -1.0076
 2360TIP3   OH228642   6.572   2.179   1.117  0.1717  0.1747 -0.2338
 2360TIP3    H128643   6.573   2.198   1.024 -1.3246  0.1943 -0.2631
 2360TIP3    H228644   6.484   2.146   1.134 -0.0795  1.5617  1.4432
 2361TIP3   OH228645   5.910   0.836   5.855  0.3651  0.4415  0.6979
 2361TIP3    H128646   5.851   0.910   5.867  0.1528  0.7721 -1.9103
 2361TIP3    H228647   5.992   0.864   5.895 -0.4571  0.9960  2.0602
 2362TIP3   OH228648   6.283   0.113   0.518 -0.2237  0.1549 -0.4328
 2362TIP3    H128649   6.351   0.148   0.461  0.0839  0.0715 -0.1207
 2362TIP3    H228650   6.217   0.079   0.458  0.4958 -0.7179 -0.7495
 2363TIP3   OH228651   3.558   6.494   7.020  0.1792  0.0699 -0.6939
 2363TIP3    H128652   3.548   6.587   7.000  1.2294  0.7441  1.5960
 2363TIP3    H228653   3.486   6.474   7.079  0.7072 -0.2183 -0.1351
 2364TIP3   OH228654   5.865   0.115   6.372  0.2886 -0.1400  0.1237
 2364TIP3    H128655   5.795   0.051   6.361  0.6413 -0.8711  1.8503
 2364TIP3    H228656   5.943   0.072   6.338  0.0557  0.4138 -1.1641
 2365TIP3   OH228657   5.326   5.583   7.324  0.5660  0.2629 -0.3795
 2365TIP3    H128658   5.405   5.585   7.270  0.8591 -1.2732 -0.0600
 2365TIP3    H228659   5.326   5.667   7.369  0.4888  1.4542 -2.4778
 2366TIP3   OH228660   5.242   4.581   2.339  0.4671  0.6940  0.2938
 2366TIP3    H128661   5.284   4.563   2.423 -0.4202  1.1939  0.8629
 2366TIP3    H228662   5.199   4.499   2.315  3.2113 -0.4582 -1.2328
 2367TIP3   OH228663   3.252   1.224   8.215 -0.7184 -0.2232  0.2414
 2367TIP3    H128664   3.217   1.309   8.242 -3.3878 -1.5710  1.3988
 2367TIP3    H228665   3.300   1.192   8.292  1.4064  0.7123 -0.6290
 2368TIP3   OH228666   3.826   3.528   0.997  0.2038  0.8106 -0.3181
 2368TIP3    H128667   3.909   3.528   0.950 -0.1295 -2.3764 -1.1788
 2368TIP3    H228668   3.759   3.520   0.928 -0.5228 -0.4649  0.4901
 2369TIP3   OH228669   5.234   0.504   8.175 -0.1629 -0.2467  0.2289
 2369TIP3    H128670   5.159   0.563   8.185  0.6501  0.7444  0.6430
 2369TIP3    H228671   5.304   0.547   8.223  0.8527 -0.8489 -0.6867
 2370TIP3   OH228672   6.297   5.880   0.477  0.4745 -0.0139  0.5303
 2370TIP3    H128673   6.260   5.968   0.470 -0.7590 -0.5603  0.0458
 2370TIP3    H228674   6.232   5.830   0.527  0.9121 -0.7931  0.3380
 2371TIP3   OH228675   6.470   1.087   6.720  0.2394  0.2358  0.0456
 2371TIP3    H128676   6.527   1.155   6.683  2.1674 -1.3676 -0.1031
 2371TIP3    H228677   6.414   1.061   6.646 -1.1544  2.1673  0.3227
 2372TIP3   OH228678   0.905   3.551   1.770  0.2322  0.1452  0.6957
 2372TIP3    H128679   0.879   3.502   1.848  0.5350  0.4285  0.9821
 2372TIP3    H228680   0.972   3.497   1.728  1.2062  0.6885  1.4837
 2373TIP3   OH228681   6.379   1.359   0.940 -0.0671  0.0069  0.6486
 2373TIP3    H128682   6.445   1.334   0.877  0.8481  1.4933  0.9772
 2373TIP3    H228683   6.411   1.324   1.024 -0.0060  0.2077  0.7088
 2374TIP3   OH228684   0.813   3.065   7.422 -0.4492  0.3521  0.2815
 2374TIP3    H128685   0.890   3.029   7.379 -1.4160 -1.0814 -0.3494
 2374TIP3    H228686   0.828   3.159   7.426  1.6930  0.0270  0.9671
 2375TIP3   OH228687   2.050   0.295   1.399  0.0929 -0.3459  1.3084
 2375TIP3    H128688   2.113   0.272   1.331 -0.5126 -2.3587  1.3724
 2375TIP3    H228689   2.081   0.378   1.434  0.0380  1.1371 -1.8805
 2376TIP3   OH228690   0.079   3.781   1.011  0.0216  0.2744  0.2751
 2376TIP3    H128691   0.042   3.806   1.096 -2.0393 -1.6344  0.0411
 2376TIP3    H228692   0.162   3.739   1.034  0.3856  1.4062  1.1582
 2377TIP3   OH228693   2.368   6.878   7.804 -0.0578 -0.3453  0.6260
 2377TIP3    H128694   2.282   6.870   7.847 -0.3793  0.0996  0.0847
 2377TIP3    H228695   2.348   6.917   7.719  0.4480 -2.1939 -0.3839
 2378TIP3   OH228696   4.854   3.292   7.462  0.5947  0.3422 -0.4318
 2378TIP3    H128697   4.846   3.381   7.428  0.0754  1.1448  1.6653
 2378TIP3    H228698   4.826   3.298   7.553  1.9338 -1.6870  0.1818
 2379TIP3   OH228699   4.329   2.826   8.041 -0.4649  0.2469  0.7181
 2379TIP3    H128700   4.388   2.762   8.081  1.1901 -0.8428 -3.0099
 2379TIP3    H228701   4.385   2.901   8.020 -0.7039 -0.0662 -1.2483
 2380TIP3   OH228702   3.320   2.534   7.687  0.3522  0.1118  0.3119
 2380TIP3    H128703   3.269   2.550   7.608  2.0542  1.1338 -0.6345
 2380TIP3    H228704   3.304   2.442   7.708  0.4459 -0.3898 -1.6554
 2381TIP3   OH228705   5.292   2.765   0.416  0.4900  0.0742  0.1643
 2381TIP3    H128706   5.347   2.738   0.342 -1.2671  0.9604 -1.5613
 2381TIP3    H228707   5.255   2.683   0.448  0.9235 -0.2872 -0.2242
 2382TIP3   OH228708   3.006   0.600   1.335  0.4272 -0.5155 -0.2794
 2382TIP3    H128709   3.053   0.675   1.370  0.4186 -0.6353 -0.0076
 2382TIP3    H228710   2.937   0.638   1.281  0.7962 -0.3370 -0.6366
 2383TIP3   OH228711   6.603   0.059   6.229 -0.0321  0.1561  0.7605
 2383TIP3    H128712   6.515   0.028   6.253 -0.1764  0.7371  0.9918
 2383TIP3    H228713   6.588   0.141   6.182  0.3937  0.3350  0.9313
 2384TIP3   OH228714   6.530   5.330   6.692  0.4068 -0.4584  0.2142
 2384TIP3    H128715   6.593   5.395   6.722 -0.7206  1.1734 -0.7880
 2384TIP3    H228716   6.525   5.266   6.763  2.5277 -0.1962  0.6708
 2385TIP3   OH228717   6.984   3.527   7.844  0.3623 -0.1954 -0.1044
 2385TIP3    H128718   6.990   3.599   7.782  1.7087  0.3597  0.6277
 2385TIP3    H228719   6.930   3.561   7.916  1.9187  0.5598  0.7817
 2386TIP3   OH228720   2.187   4.842   7.958 -0.2714 -0.2875  0.7471
 2386TIP3    H128721   2.193   4.938   7.962  0.7469 -0.3268  0.4751
 2386TIP3    H228722   2.189   4.822   7.864  0.3552 -0.6125  0.8265
 2387TIP3   OH228723   2.512   3.983   0.794 -0.5727  0.0056 -0.5725
 2387TIP3    H128724   2.592   3.936   0.773 -0.8893 -0.8230 -0.0012
 2387TIP3    H228725   2.540   4.055   0.850 -0.3634 -1.1978  0.9549
 2388TIP3   OH228726   3.058   1.029   8.148 -0.0878 -0.5150  0.2304
 2388TIP3    H128727   3.121   1.099   8.164 -0.6851 -0.1280  0.9543
 2388TIP3    H228728   3.091   0.984   8.070  0.8991 -0.1205  0.4089
 2389TIP3   OH228729   3.195   6.570   1.668 -0.7794  0.5247  0.8455
 2389TIP3    H128730   3.101   6.560   1.682 -1.0295  0.7655 -0.4977
 2389TIP3    H228731   3.234   6.495   1.713 -1.7414 -0.4222  0.1536
 2390TIP3   OH228732   5.410   5.362   6.899  0.1270 -1.0071 -0.1472
 2390TIP3    H128733   5.470   5.432   6.924  0.9520 -2.1683  1.3157
 2390TIP3    H228734   5.344   5.361   6.968  0.7415 -2.3168  0.4786
 2391TIP3   OH228735   3.289   5.547   7.297  0.8633  0.0801 -0.4218
 2391TIP3    H128736   3.242   5.530   7.216 -0.1634  0.9467 -0.0343
 2391TIP3    H228737   3.273   5.639   7.316  1.7711  0.1006  0.3353
 2392TIP3   OH228738   3.169   5.901   8.038  0.1145  0.1000 -0.4258
 2392TIP3    H128739   3.181   5.838   8.108 -0.9353  0.2853 -0.0557
 2392TIP3    H228740   3.087   5.946   8.060  2.4806  4.0948  1.2993
 2393TIP3   OH228741   0.054   1.747   7.480 -0.4795  0.7662 -0.2281
 2393TIP3    H128742   0.050   1.670   7.423 -0.4789 -0.1147  0.9297
 2393TIP3    H228743  -0.034   1.753   7.517  0.0793  0.0246  1.3121
 2394TIP3   OH228744   2.141   1.815   1.663 -0.2071  0.0568 -0.4188
 2394TIP3    H128745   2.179   1.755   1.727 -0.6158 -1.4020 -1.4986
 2394TIP3    H228746   2.183   1.899   1.682  2.0026 -1.0182 -0.2428
 2395TIP3   OH228747   1.064   3.255   7.311  0.3327  0.3577  0.0893
 2395TIP3    H128748   1.022   3.278   7.394 -1.2646  2.0795 -1.1235
 2395TIP3    H228749   1.097   3.166   7.325 -1.2807 -0.0119  2.0527
 2396TIP3   OH228750   3.957   5.045   0.883  0.1159 -0.8487 -0.4446
 2396TIP3    H128751   3.914   5.005   0.808  1.6122  0.2777 -1.9944
 2396TIP3    H228752   3.886   5.084   0.934 -0.8596 -0.4827 -2.0074
 2397TIP3   OH228753   4.343   0.230   1.599  0.2799 -0.0312 -0.0066
 2397TIP3    H128754   4.407   0.300   1.585 -1.2390  1.2288 -0.9445
 2397TIP3    H228755   4.350   0.176   1.521  1.0957 -0.6725  0.4900
 2398TIP3   OH228756   5.716   5.310   0.958  0.2372 -0.6000 -0.2096
 2398TIP3    H128757   5.768   5.241   0.998 -1.1234 -1.4809  0.0984
 2398TIP3    H228758   5.652   5.335   1.025  0.0739  0.2642 -0.6644
 2399TIP3   OH228759   3.525   2.076   7.945  0.3387  0.5996 -0.5175
 2399TIP3    H128760   3.504   2.006   7.882 -0.6177  1.0976 -0.7692
 2399TIP3    H228761   3.512   2.036   8.031  2.0672 -0.2186 -0.5810
 2400TIP3   OH228762   6.468   3.694   7.116  0.1106 -0.3534 -0.6751
 2400TIP3    H128763   6.459   3.706   7.022  1.4163  1.4553 -0.6257
 2400TIP3    H228764   6.421   3.769   7.154  2.9751  1.3077 -0.0938
 2401TIP3   OH228765   6.882   5.412   7.150  0.1665 -0.6895 -0.6180
 2401TIP3    H128766   6.825   5.422   7.226 -0.4260  0.0007 -1.1371
 2401TIP3    H228767   6.880   5.318   7.131 -2.1253 -0.5092 -1.5927
 2402TIP3   OH228768   4.674   1.659   0.525  0.0266 -0.6925 -0.5132
 2402TIP3    H128769   4.668   1.725   0.456 -1.3288 -1.2740 -0.9956
 2402TIP3    H228770   4.700   1.579   0.479 -0.3492 -0.9600 -0.2692
 2403TIP3   OH228771   1.847   6.782   0.493  0.2300 -0.5187 -0.6607
 2403TIP3    H128772   1.922   6.828   0.454 -0.5374 -0.1603 -1.7633
 2403TIP3    H228773   1.793   6.851   0.530 -0.1205 -0.6650 -0.8905
 2404TIP3   OH228774   1.903   5.880   2.329  0.1156  0.2376  0.3007
 2404TIP3    H128775   1.954   5.807   2.365 -1.3300 -1.0105 -0.0938
 2404TIP3    H228776   1.850   5.841   2.260 -1.8968  1.3350  1.1451
 2405TIP3   OH228777   1.107   6.016   0.252  0.2613  0.1301 -0.5220
 2405TIP3    H128778   1.060   6.081   0.199 -0.0615  1.8756  1.7602
 2405TIP3    H228779   1.137   6.064   0.329  3.7048 -1.4726 -0.6306
 2406TIP3   OH228780   6.068   4.200   1.191  0.1479  0.2337  0.4061
 2406TIP3    H128781   6.028   4.255   1.258  1.1661  2.2850 -0.5439
 2406TIP3    H228782   6.009   4.207   1.116 -0.2038 -0.7922  0.5746
 2407TIP3   OH228783   5.894   0.257   7.312  0.1644 -0.6989  0.3454
 2407TIP3    H128784   5.959   0.240   7.243 -1.4664  1.5512 -1.9465
 2407TIP3    H228785   5.822   0.197   7.292 -1.1411  1.2669 -1.2665
 2408TIP3   OH228786   0.115   1.289   6.735  0.0814 -0.1209 -0.2761
 2408TIP3    H128787   0.146   1.210   6.691  0.0418  0.1009 -0.7046
 2408TIP3    H228788   0.183   1.309   6.799  0.6766  0.1862 -0.9984
 2409TIP3   OH228789   3.266   2.153   0.361 -0.7112  0.6117  0.0442
 2409TIP3    H128790   3.318   2.204   0.423 -1.2328  1.3524 -0.1050
 2409TIP3    H228791   3.187   2.128   0.410 -1.1266  1.2037 -0.3019
 2410TIP3   OH228792   2.109   4.683   7.745 -0.5278  1.0691 -0.3353
 2410TIP3    H128793   2.046   4.642   7.805  0.3571 -1.5799 -1.0802
 2410TIP3    H228794   2.129   4.615   7.681  0.5447  2.9657 -2.1290
 2411TIP3   OH228795   6.755   5.719   1.995 -0.0260 -0.4040  0.4307
 2411TIP3    H128796   6.807   5.644   1.967  0.0920  0.0878 -0.7105
 2411TIP3    H228797   6.667   5.701   1.961  0.3327  0.6490 -1.1924
 2412TIP3   OH228798   3.557   1.425   6.671 -0.2060 -0.0105  0.2218
 2412TIP3    H128799   3.505   1.402   6.594 -3.2336  0.5611  1.9482
 2412TIP3    H228800   3.546   1.520   6.680  1.9262  0.3010  0.2116
 2413TIP3   OH228801   1.958   2.649   0.066  0.4785  0.4317 -0.1352
 2413TIP3    H128802   1.992   2.587   0.002 -2.4149 -0.2412 -1.1461
 2413TIP3    H228803   1.942   2.729   0.016 -1.9941 -0.1618 -0.4187
 2414TIP3   OH228804   3.659   0.170   0.118  0.5315  0.0483  0.1752
 2414TIP3    H128805   3.587   0.223   0.084 -0.3428 -1.1691  0.0608
 2414TIP3    H228806   3.683   0.112   0.046  0.1847 -1.0032  0.8796
 2415TIP3   OH228807   0.982   1.805   7.025 -0.7168  0.0983  0.8222
 2415TIP3    H128808   1.062   1.752   7.027  0.1988  1.1932 -1.9231
 2415TIP3    H228809   0.911   1.741   7.034  0.4058 -1.2208  0.6559
 2416TIP3   OH228810   0.370   3.797   0.014  0.0634  0.6901  0.3495
 2416TIP3    H128811   0.425   3.733  -0.032 -0.0199 -0.2342  1.4654
 2416TIP3    H228812   0.416   3.880   0.004  0.5186  0.3333 -0.5883
 2417TIP3   OH228813   1.144   3.540   0.371  0.2233 -0.7288 -0.6387
 2417TIP3    H128814   1.206   3.593   0.421 -2.2945  0.8917  0.9971
 2417TIP3    H228815   1.136   3.459   0.422 -0.1237 -0.2968  0.0087
 2418TIP3   OH228816   3.197   6.858   8.120 -0.1820 -0.6333 -0.5318
 2418TIP3    H128817   3.266   6.829   8.180  0.9017 -1.1409 -1.9543
 2418TIP3    H228818   3.138   6.782   8.114 -0.6621 -0.3442  0.3747
 2419TIP3   OH228819   6.035   2.050   1.634  0.1512 -0.2571  0.3596
 2419TIP3    H128820   6.075   2.119   1.687  1.9420 -0.6429 -0.4301
 2419TIP3    H228821   6.081   1.970   1.660 -0.1750 -0.7440 -0.5114
 2420TIP3   OH228822   6.398   4.465   7.749  0.3168 -0.0973 -0.1861
 2420TIP3    H128823   6.354   4.512   7.678  0.4433  0.0119 -0.1921
 2420TIP3    H228824   6.455   4.530   7.789  0.4484 -0.2323 -0.1549
 2421TIP3   OH228825   3.427   4.786   8.284 -0.3155 -0.9030 -0.0012
 2421TIP3    H128826   3.476   4.861   8.318  0.5284 -2.2195  1.8215
 2421TIP3    H228827   3.443   4.789   8.189  1.2550  0.1436  0.2550
 2422TIP3   OH228828   3.840   6.533   6.777  0.2319 -0.5647 -0.4994
 2422TIP3    H128829   3.767   6.473   6.763  0.8099 -1.1077 -1.3265
 2422TIP3    H228830   3.808   6.618   6.746 -0.3403 -0.6037 -0.0246
 2423TIP3   OH228831   4.996   4.634   8.100  0.5235 -0.0968 -0.0918
 2423TIP3    H128832   5.080   4.681   8.103  0.9860 -0.6766 -2.1732
 2423TIP3    H228833   5.016   4.548   8.137  0.0049  0.7757  2.4309
 2424TIP3   OH228834   0.893   1.103   7.339  0.4144 -0.6834 -0.0067
 2424TIP3    H128835   0.973   1.059   7.368 -0.3112 -2.6428 -0.8199
 2424TIP3    H228836   0.909   1.121   7.247  0.5391  0.4626  0.2222
 2425TIP3   OH228837   1.146   2.415   2.218 -0.1911 -0.8562  0.0501
 2425TIP3    H128838   1.053   2.418   2.194 -0.4700  0.2911  1.1994
 2425TIP3    H228839   1.151   2.347   2.286 -0.4309 -0.0312  0.9103
 2426TIP3   OH228840   3.575   5.141   1.240 -0.4462 -0.2568 -0.5832
 2426TIP3    H128841   3.549   5.055   1.206 -2.3173  0.1717 -0.3304
 2426TIP3    H228842   3.550   5.203   1.171 -2.0278  0.3743  0.4945
 2427TIP3   OH228843   1.435   2.042   7.061 -0.5577 -0.5074 -0.7015
 2427TIP3    H128844   1.404   2.092   6.986 -0.9403 -1.1554 -0.9825
 2427TIP3    H228845   1.512   1.995   7.029 -0.0413  0.0898 -0.3654
 2428TIP3   OH228846   0.571   5.310   8.182  0.1274  0.1329  0.1454
 2428TIP3    H128847   0.589   5.399   8.211  0.9491 -0.2646  0.9107
 2428TIP3    H228848   0.539   5.265   8.260  1.0857 -0.6109  0.1297
 2429TIP3   OH228849   0.257   5.857   0.816 -0.1671 -0.6924  0.4623
 2429TIP3    H128850   0.209   5.775   0.809  1.1032 -1.4333  0.1140
 2429TIP3    H228851   0.316   5.845   0.889 -0.6017  0.2737  0.9955
 2430TIP3   OH228852   1.579   5.422   0.951 -0.0511  0.4239  0.5683
 2430TIP3    H128853   1.569   5.345   1.007  0.2715 -0.1360 -0.1280
 2430TIP3    H228854   1.527   5.490   0.994 -1.4615 -0.5585  0.4840
 2431TIP3   OH228855   0.291   2.041   1.772  0.0641 -0.0720 -0.0572
 2431TIP3    H128856   0.307   1.980   1.845 -0.0532 -1.1602 -0.9167
 2431TIP3    H228857   0.356   2.110   1.785 -0.4559  0.1641  1.5089
 2432TIP3   OH228858   5.226   3.571   1.185  0.1005 -0.1732 -0.2851
 2432TIP3    H128859   5.149   3.581   1.241  0.6079  0.1604  0.3605
 2432TIP3    H228860   5.278   3.502   1.226  0.9259  0.7029  0.1917
 2433TIP3   OH228861   5.470   6.271   7.011  0.8420 -0.1736 -0.2213
 2433TIP3    H128862   5.486   6.212   6.938  2.7449  0.1451 -0.1042
 2433TIP3    H228863   5.506   6.226   7.088 -0.2173 -0.0604  0.3699
 2434TIP3   OH228864   1.824   2.121   1.483 -0.7330 -0.0480 -0.1110
 2434TIP3    H128865   1.783   2.207   1.478  0.0510  0.3946  0.6779
 2434TIP3    H228866   1.882   2.118   1.407 -0.2385  0.4170  0.2395
 2435TIP3   OH228867   1.319   0.019   7.603  1.1660  0.9377  0.0288
 2435TIP3    H128868   1.336  -0.072   7.580  0.0914  0.3779  1.3146
 2435TIP3    H228869   1.369   0.034   7.684 -0.0891  0.8963  0.8465
 2436TIP3   OH228870   1.332   6.957   1.133 -0.0881  0.3444  0.9481
 2436TIP3    H128871   1.258   6.930   1.188  0.4741  1.6871  2.4506
 2436TIP3    H228872   1.320   7.052   1.122  0.2486  0.2318 -0.6194
 2437TIP3   OH228873   2.349   4.612   0.172 -0.8731 -0.1571  0.1807
 2437TIP3    H128874   2.288   4.565   0.116 -0.1705 -0.3947 -0.4109
 2437TIP3    H228875   2.380   4.685   0.118  0.1435 -0.6434  0.0667
 2438TIP3   OH228876   4.928   1.930   8.081  0.3502  0.0271  0.4919
 2438TIP3    H128877   4.907   1.963   8.168 -0.2219  0.2817  0.2683
 2438TIP3    H228878   5.023   1.937   8.074  0.4787 -0.6925  1.3707
 2439TIP3   OH228879   0.231   6.985   7.069 -0.0495 -0.5593 -0.0977
 2439TIP3    H128880   0.309   7.002   7.016  2.2284 -1.5154  2.7067
 2439TIP3    H228881   0.230   6.890   7.081 -2.3831 -0.7064 -1.0251
 2440TIP3   OH228882   2.066   2.199   7.408  0.1440  0.1253 -1.0017
 2440TIP3    H128883   2.113   2.266   7.458  0.4773 -0.9983  0.2308
 2440TIP3    H228884   2.116   2.119   7.421 -1.1633 -0.7368 -1.0697
 2441TIP3   OH228885   4.755   0.885   6.646 -0.0163  0.1126 -0.1132
 2441TIP3    H128886   4.747   0.790   6.651 -0.2005  0.1347  0.0101
 2441TIP3    H228887   4.665   0.917   6.648  0.0738  0.3701  1.3793
 2442TIP3   OH228888   0.216   5.864   1.786  0.0196  0.0181 -0.0497
 2442TIP3    H128889   0.208   5.838   1.878  0.8490  0.8072  0.2687
 2442TIP3    H228890   0.127   5.857   1.751 -0.4326  0.3328  0.9904
 2443TIP3   OH228891   1.383   1.891   2.312  0.9097  0.0301  1.2131
 2443TIP3    H128892   1.302   1.941   2.299  1.8291  1.0865 -1.0516
 2443TIP3    H228893   1.356   1.799   2.303  0.0099  0.3849 -0.0924
 2444TIP3   OH228894   2.762   2.618   7.490 -0.2068  0.2515  0.1277
 2444TIP3    H128895   2.837   2.558   7.497 -2.9325 -3.8805 -1.9204
 2444TIP3    H228896   2.796   2.693   7.441  2.8056 -0.8826  0.2528
 2445TIP3   OH228897   2.342   6.253   7.866 -0.2162 -0.8553 -0.5270
 2445TIP3    H128898   2.283   6.285   7.935  0.0102  0.4685 -0.9398
 2445TIP3    H228899   2.327   6.311   7.792  0.5206 -1.4491 -1.1566
 2446TIP3   OH228900   3.448   4.093   6.594 -0.4217 -0.1356 -0.0481
 2446TIP3    H128901   3.454   4.177   6.639 -2.0268  0.2898 -0.5409
 2446TIP3    H228902   3.537   4.059   6.594  0.1798  1.3506  0.5633
 2447TIP3   OH228903   2.554   5.606   1.145  0.5191 -0.6627 -0.3640
 2447TIP3    H128904   2.496   5.631   1.216  0.9416  0.5308 -0.4113
 2447TIP3    H228905   2.640   5.638   1.172  0.8037 -0.7573 -1.1285
 2448TIP3   OH228906   4.489   2.658   8.198 -0.2882 -0.6426 -0.2746
 2448TIP3    H128907   4.514   2.690   8.285  0.8605 -0.4029 -0.6742
 2448TIP3    H228908   4.480   2.564   8.208 -2.7004 -0.3652  0.6841
 2449TIP3   OH228909   2.092   4.116   0.515  0.6978  0.0763  0.6584
 2449TIP3    H128910   2.119   4.074   0.596 -0.3501  0.6669  1.3319
 2449TIP3    H228911   2.146   4.196   0.510  1.0270 -0.1493  0.5713
 2450TIP3   OH228912   1.929   6.090   7.774 -0.0842 -0.7662 -0.3120
 2450TIP3    H128913   1.996   6.113   7.709 -1.4718  0.4612 -1.3844
 2450TIP3    H228914   1.873   6.167   7.778 -1.1208 -1.5551  0.9687
 2451TIP3   OH228915   5.034   5.129   7.355 -0.7961 -0.4438 -0.0237
 2451TIP3    H128916   5.049   5.182   7.434  0.0188  1.5936 -1.4637
 2451TIP3    H228917   4.945   5.095   7.366 -0.4839 -0.7660  2.0427
 2452TIP3   OH228918   1.790   2.162   1.797 -0.3919  0.2562 -0.0223
 2452TIP3    H128919   1.748   2.244   1.823  1.5342  1.5516 -0.7571
 2452TIP3    H228920   1.798   2.168   1.702  0.5092 -0.3959 -0.0017
 2453TIP3   OH228921   2.027   2.519   1.389 -0.2831 -0.0937  0.2009
 2453TIP3    H128922   1.973   2.595   1.367 -0.2446 -0.4901 -1.3868
 2453TIP3    H228923   1.987   2.446   1.341  0.1224 -0.9423  1.1008
 2454TIP3   OH228924   3.093   1.718   1.653  1.0871  0.0119 -0.2414
 2454TIP3    H128925   3.072   1.811   1.662  1.7137  0.2342 -0.9694
 2454TIP3    H228926   3.028   1.673   1.707  0.8159  0.8753  0.1619
 2455TIP3   OH228927   1.422   5.022   8.204  0.2093  0.0353 -0.2317
 2455TIP3    H128928   1.373   4.943   8.225 -2.1528  1.0944 -1.4318
 2455TIP3    H228929   1.416   5.075   8.284 -0.4197  0.0521 -0.2850
 2456TIP3   OH228930   6.143   0.399   1.027 -0.4279 -0.5727  0.2554
 2456TIP3    H128931   6.140   0.385   0.933  1.0550 -0.6591  0.1954
 2456TIP3    H228932   6.172   0.315   1.063  2.4294  0.3647  0.4378
 2457TIP3   OH228933   0.802   6.749   2.336  0.1167  0.3131  0.1773
 2457TIP3    H128934   0.758   6.774   2.417  0.0819 -0.6000  0.4486
 2457TIP3    H228935   0.758   6.800   2.268  0.2095  1.1543  0.7333
 2458TIP3   OH228936   1.101   3.841   2.489  0.3010  0.3701 -0.4038
 2458TIP3    H128937   1.072   3.770   2.546  2.6255 -1.2582 -1.1158
 2458TIP3    H228938   1.037   3.842   2.417  0.5758 -1.4345 -0.7035
 2459TIP3   OH228939   0.833   6.437   1.090 -0.0281  0.5583  0.0095
 2459TIP3    H128940   0.751   6.389   1.104  0.3111 -0.7229 -1.9761
 2459TIP3    H228941   0.898   6.389   1.142  0.2765 -1.1723 -1.8346
 2460TIP3   OH228942   5.521   0.217   1.085  0.5919 -0.0054  0.3691
 2460TIP3    H128943   5.528   0.253   1.174  0.8372  2.5619 -0.5878
 2460TIP3    H228944   5.468   0.282   1.038  0.9883 -0.9866 -1.5253
 2461TIP3   OH228945   3.882   2.572   6.518 -0.0096  0.2393  0.4955
 2461TIP3    H128946   3.861   2.505   6.453 -0.3353  0.7399  0.0750
 2461TIP3    H228947   3.805   2.630   6.518  0.1538  0.4611  1.0445
 2462TIP3   OH228948   5.659   4.875   7.452  0.4283 -0.2421 -0.5866
 2462TIP3    H128949   5.639   4.950   7.396 -1.0273 -0.7745 -0.8218
 2462TIP3    H228950   5.600   4.885   7.527  2.1387  0.3077  0.7620
 2463TIP3   OH228951   1.372   0.154   1.329  0.5730  0.7564  0.2444
 2463TIP3    H128952   1.345   0.080   1.383 -0.5955 -0.1394 -1.4756
 2463TIP3    H228953   1.319   0.227   1.360  1.7158  0.9294  1.9366
 2464TIP3   OH228954   2.821   0.847   1.359 -0.8370  0.0609  0.6027
 2464TIP3    H128955   2.903   0.874   1.317 -1.9961  0.5776 -1.4626
 2464TIP3    H228956   2.846   0.826   1.449  1.4081  1.0080  0.2662
 2465TIP3   OH228957   5.986   6.095   2.172  0.3369 -0.2114  0.4210
 2465TIP3    H128958   6.056   6.161   2.169  0.0013  0.1101 -1.8812
 2465TIP3    H228959   6.028   6.018   2.211  1.1169  0.8798  1.8480
 2466TIP3   OH228960   4.675   1.017   1.799 -0.5022 -0.2340 -0.4988
 2466TIP3    H128961   4.712   0.948   1.854  1.9194  1.8428  0.6829
 2466TIP3    H228962   4.727   1.015   1.719 -0.7351 -0.0386 -0.6579
 2467TIP3   OH228963   6.397   4.063   6.667 -0.0141  0.7802  0.3015
 2467TIP3    H128964   6.479   4.101   6.700  0.9271 -0.4755 -0.4930
 2467TIP3    H228965   6.391   4.093   6.576 -0.2464  0.5803  0.2495
 2468TIP3   OH228966   1.822   0.638   1.155 -0.8760 -0.1497  0.1741
 2468TIP3    H128967   1.905   0.595   1.136 -0.8363 -0.3593  0.8204
 2468TIP3    H228968   1.846   0.728   1.176 -0.6243 -0.6354  2.0909
 2469TIP3   OH228969   5.772   3.368   7.836 -0.5101  0.0874 -0.2469
 2469TIP3    H128970   5.845   3.312   7.811  0.2182  1.6139 -1.6818
 2469TIP3    H228971   5.742   3.408   7.754 -0.6015  2.2500  0.7744
 2470TIP3   OH228972   6.669   1.296   6.913  0.0987 -0.3231  0.5685
 2470TIP3    H128973   6.693   1.380   6.953  1.7634 -0.8414  0.7269
 2470TIP3    H228974   6.691   1.231   6.980 -2.0936 -0.8666  0.8390
 2471TIP3   OH228975   6.533   0.280   1.053 -0.1720 -0.0268  0.1071
 2471TIP3    H128976   6.443   0.246   1.045  0.5063 -1.8613 -0.2697
 2471TIP3    H228977   6.544   0.337   0.977 -0.4537 -1.2272 -0.8652
 2472TIP3   OH228978   4.820   6.519   0.544 -0.4112  0.4352  0.1974
 2472TIP3    H128979   4.882   6.527   0.471  0.6307  0.3997  1.0556
 2472TIP3    H228980   4.761   6.594   0.534 -1.8975 -0.9323 -2.1268
 2473TIP3   OH228981   4.433   2.876   0.314  0.6272  0.3674 -0.3853
 2473TIP3    H128982   4.382   2.805   0.275  1.8369 -1.2234  0.7980
 2473TIP3    H228983   4.518   2.836   0.335  1.7770  2.4665 -0.7185
 2474TIP3   OH228984   1.945   3.494   6.622 -0.5594  0.1069  0.0400
 2474TIP3    H128985   1.952   3.449   6.707  0.0109 -0.8220 -0.4790
 2474TIP3    H228986   1.956   3.424   6.557  0.1916  0.9846 -0.8011
 2475TIP3   OH228987   3.969   4.790   0.403  0.4016  0.2124  0.4498
 2475TIP3    H128988   3.956   4.838   0.485  1.7822 -0.1299  0.8983
 2475TIP3    H228989   3.960   4.698   0.427 -0.0492  0.1436  0.0328
 2476TIP3   OH228990   6.621   2.329   7.866 -0.0353 -0.1981  0.1129
 2476TIP3    H128991   6.591   2.265   7.930 -2.5941  1.0318  0.2440
 2476TIP3    H228992   6.560   2.403   7.874 -0.2393  0.2000 -3.4422
 2477TIP3   OH228993   6.897   2.721   7.916 -0.1750 -0.0442 -0.2009
 2477TIP3    H128994   6.898   2.652   7.850  0.4053 -1.4363  1.2193
 2477TIP3    H228995   6.985   2.720   7.953  0.1525  2.1219 -0.7743
 2478TIP3   OH228996   5.917   0.405   7.990 -0.0722  0.0725 -0.0361
 2478TIP3    H128997   5.928   0.499   8.003 -2.5623  0.2377  1.5687
 2478TIP3    H228998   5.965   0.365   8.063  1.0800  0.0362 -0.7807
 2479TIP3   OH228999   6.293   0.950   7.156  0.4633 -0.1287 -0.1660
 2479TIP3    H129000   6.210   0.903   7.160 -0.8449  1.9063 -1.5588
 2479TIP3    H229001   6.300   0.979   7.065  0.9251  2.7113  0.6704
 2480TIP3   OH229002   4.985   1.263   0.514  0.5649 -0.4062 -0.5647
 2480TIP3    H129003   5.062   1.256   0.458  1.1205 -0.3855  0.1770
 2480TIP3    H229004   5.013   1.318   0.587 -0.2262 -0.2034 -0.4019
 2481TIP3   OH229005   5.084   0.115   1.000 -0.1647 -0.3587 -0.2094
 2481TIP3    H129006   5.051   0.133   1.088 -1.1584 -0.8245 -0.4667
 2481TIP3    H229007   5.021   0.157   0.942 -0.4057 -1.3678 -0.7171
 2482TIP3   OH229008   1.230   6.749   1.395  0.4227  0.4079 -0.5523
 2482TIP3    H129009   1.255   6.761   1.487 -0.5043  0.6913 -0.3246
 2482TIP3    H229010   1.190   6.831   1.370  1.5043  0.6625 -1.5152
 2483TIP3   OH229011   3.508   2.161   7.432 -0.4243 -0.0084 -0.3554
 2483TIP3    H129012   3.487   2.190   7.343  3.6572  0.9424 -1.2432
 2483TIP3    H229013   3.464   2.077   7.441 -1.2837  0.0275 -3.1490
 2484TIP3   OH229014   3.081   4.863   1.382 -0.2807 -0.2716 -0.2553
 2484TIP3    H129015   3.152   4.800   1.370  0.6496  0.6057  0.4126
 2484TIP3    H229016   3.125   4.941   1.415 -1.7092 -0.0563  1.2055
 2485TIP3   OH229017   5.296   3.830   1.118  1.0048  0.0863 -0.7544
 2485TIP3    H129018   5.311   3.842   1.212  3.9020 -0.8741 -0.9989
 2485TIP3    H229019   5.254   3.744   1.112 -0.1002  0.5688 -0.3353
 2486TIP3   OH229020   0.081   0.058   0.104 -0.3382 -0.0298 -0.1467
 2486TIP3    H129021   0.062   0.029   0.194  0.1764  1.1764  0.3723
 2486TIP3    H229022  -0.001   0.043   0.056 -0.5859 -0.7857  0.4943
 2487TIP3   OH229023   5.730   5.957   6.579 -0.0227  0.1518 -0.3787
 2487TIP3    H129024   5.715   5.914   6.494  2.3432  3.1873 -2.5768
 2487TIP3    H229025   5.661   6.024   6.584 -1.2880 -1.1880  1.1047
 2488TIP3   OH229026   0.549   1.696   1.524  0.4973 -0.1872  0.3827
 2488TIP3    H129027   0.463   1.734   1.543  0.1231 -0.0636 -1.3931
 2488TIP3    H229028   0.610   1.770   1.530 -0.0325  0.4859 -1.6707
 2489TIP3   OH229029   5.200   2.897   6.622  0.5728  0.0719 -0.0334
 2489TIP3    H129030   5.265   2.922   6.688  0.3209 -3.2082  1.6219
 2489TIP3    H229031   5.247   2.906   6.539  3.4041 -2.4984  1.1197
 2490TIP3   OH229032   3.594   2.860   8.256 -0.1776  0.2657  0.2432
 2490TIP3    H129033   3.617   2.772   8.286  0.7470  0.7553  1.0210
 2490TIP3    H229034   3.557   2.903   8.333 -0.4337  0.6252 -0.0774
 2491TIP3   OH229035   0.492   1.321   8.294 -0.4003 -0.3407  0.2488
 2491TIP3    H129036   0.582   1.326   8.262 -1.2691  2.0930 -2.2146
 2491TIP3    H229037   0.454   1.246   8.248  0.2048 -1.0676  0.9130
 2492TIP3   OH229038   2.328   2.968   0.617 -0.1787  0.0566 -0.1454
 2492TIP3    H129039   2.317   3.063   0.613  0.7664  0.1276 -1.7505
 2492TIP3    H229040   2.399   2.954   0.680 -1.7154  0.2435  1.7166
 2493TIP3   OH229041   1.387   2.765   0.358 -0.5568 -0.1245  0.3975
 2493TIP3    H129042   1.431   2.807   0.432 -0.2597  1.1108 -0.4590
 2493TIP3    H229043   1.457   2.730   0.304 -0.4869  2.2784 -1.2296
 2494TIP3   OH229044   0.730   5.097   8.080  0.3985 -0.0911  0.8729
 2494TIP3    H129045   0.785   5.094   8.159  0.8409  1.0825  0.6298
 2494TIP3    H229046   0.694   5.185   8.079  1.0884  0.2054 -0.6976
 2495TIP3   OH229047   6.179   6.017   0.785  0.0162 -0.0050  0.2129
 2495TIP3    H129048   6.184   6.044   0.693  2.3856 -1.0361 -0.0362
 2495TIP3    H229049   6.142   5.929   0.782  0.6368 -0.2687  0.1761
 2496TIP3   OH229050   3.171   0.392   0.239  0.3891 -0.5198  0.1690
 2496TIP3    H129051   3.204   0.481   0.225  1.7195 -0.2281  4.0387
 2496TIP3    H229052   3.150   0.360   0.151  2.3258  2.6406 -1.6228
 2497TIP3   OH229053   2.378   1.347   0.265 -0.4875 -0.1354 -0.4590
 2497TIP3    H129054   2.412   1.293   0.336 -0.0289  1.9182  0.9449
 2497TIP3    H229055   2.418   1.310   0.186 -1.8235 -3.1272  0.1137
 2498TIP3   OH229056   6.288   4.618   7.558 -0.2961  0.2764  0.4216
 2498TIP3    H129057   6.205   4.579   7.531  0.5012 -0.3728 -1.2177
 2498TIP3    H229058   6.312   4.676   7.486  0.0918  1.4333  1.4367
 2499TIP3   OH229059   0.957   5.746   1.627  0.4774  0.3641  0.2814
 2499TIP3    H129060   0.869   5.709   1.619  1.1534 -1.1820 -0.4307
 2499TIP3    H229061   0.967   5.766   1.720 -1.2984  2.3863  0.1110
 2500TIP3   OH229062   2.014   4.126   1.260 -0.0162 -0.3013 -0.3923
 2500TIP3    H129063   1.992   4.049   1.206 -0.1292  0.2855 -1.2075
 2500TIP3    H229064   2.073   4.092   1.327 -0.3256 -1.1648 -0.5384
 2501TIP3   OH229065   5.060   2.960   0.033 -0.6072  0.1212  0.6570
 2501TIP3    H129066   4.985   3.019   0.036 -1.3846 -0.7524 -0.4457
 2501TIP3    H229067   5.020   2.872   0.028  0.4407 -0.2848 -1.4277
 2502TIP3   OH229068   0.371   4.084   7.059  0.4380  0.3226 -0.1278
 2502TIP3    H129069   0.311   4.077   7.133  0.3076 -3.0661 -0.3725
 2502TIP3    H229070   0.321   4.051   6.984  1.0345  2.2930 -1.4658
 2503TIP3   OH229071   6.412   6.791   1.298 -0.4434  0.2534 -0.0540
 2503TIP3    H129072   6.502   6.813   1.275 -0.2469 -0.9357 -0.5214
 2503TIP3    H229073   6.412   6.695   1.306 -1.6437  0.2385  0.0053
 2504TIP3   OH229074   3.407   2.577   6.783 -0.8597 -0.2999 -0.1562
 2504TIP3    H129075   3.329   2.575   6.726 -0.7249 -0.2541 -0.3434
 2504TIP3    H229076   3.407   2.491   6.825 -0.5933 -0.5940 -0.7321
 2505TIP3   OH229077   2.860   3.091   7.675 -0.2922  0.6331 -0.1239
 2505TIP3    H129078   2.854   3.125   7.585 -1.8100  1.0600  0.1052
 2505TIP3    H229079   2.875   2.997   7.664  1.4732  0.9610 -0.7935
 2506TIP3   OH229080   1.299   6.789   7.224 -0.1201  0.2172  0.1686
 2506TIP3    H129081   1.228   6.727   7.241  0.5410 -0.7485 -0.4391
 2506TIP3    H229082   1.266   6.845   7.154  0.2537 -1.2514 -1.2529
 2507TIP3   OH229083   4.642   0.419   2.137 -0.5930  0.4461 -0.6072
 2507TIP3    H129084   4.638   0.376   2.051  0.5710 -1.2210  0.1075
 2507TIP3    H229085   4.558   0.464   2.145 -0.6850  0.7513 -2.6557
 2508TIP3   OH229086   6.661   3.698   1.281 -0.2327  0.1964 -0.1489
 2508TIP3    H129087   6.675   3.788   1.253  0.2259 -0.1743 -1.1502
 2508TIP3    H229088   6.640   3.705   1.374  0.1026  1.3041 -0.1432
 2509TIP3   OH229089   4.784   5.881   6.015  0.1663 -0.0552 -0.1704
 2509TIP3    H129090   4.713   5.817   6.017  1.3954 -1.5120 -0.7654
 2509TIP3    H229091   4.767   5.935   5.937 -0.8274  0.3006  0.2807
 2510TIP3   OH229092   3.726   0.799   0.139 -0.3536 -0.5470  0.1355
 2510TIP3    H129093   3.672   0.863   0.185  1.4972  0.4252  1.0670
 2510TIP3    H229094   3.736   0.835   0.051 -0.5500 -0.3276  0.1994
 2511TIP3   OH229095   4.967   3.787   1.663  0.3512  0.4539 -0.4906
 2511TIP3    H129096   4.879   3.750   1.669  1.6597 -2.9131  0.6221
 2511TIP3    H229097   4.994   3.771   1.573  0.6991 -1.0146 -0.1626
 2512TIP3   OH229098   2.084   5.981   0.951  0.6890 -0.0468  0.2025
 2512TIP3    H129099   2.149   5.916   0.975  1.5936  1.0622  0.8702
 2512TIP3    H229100   2.134   6.061   0.936 -0.3349  0.4101 -1.0200
 2513TIP3   OH229101   6.081   2.007   0.848 -0.4706  0.6932 -0.1340
 2513TIP3    H129102   6.055   2.026   0.938 -1.3854 -2.2371  0.3087
 2513TIP3    H229103   5.999   1.985   0.803  0.3006 -0.8894 -0.8454
 2514TIP3   OH229104   5.567   5.553   7.173  0.3475 -0.7207 -0.0302
 2514TIP3    H129105   5.630   5.485   7.194 -0.3600 -0.9540  1.4116
 2514TIP3    H229106   5.613   5.635   7.191  0.8992 -0.8182 -0.9255
 2515TIP3   OH229107   6.297   2.872   7.785 -1.2333 -0.2594  0.2067
 2515TIP3    H129108   6.260   2.784   7.778  0.3417 -0.9431  0.0214
 2515TIP3    H229109   6.267   2.917   7.706 -1.2511 -0.9576 -0.1936
 2516TIP3   OH229110   5.377   6.564   8.023  0.3566 -0.4500  0.2895
 2516TIP3    H129111   5.420   6.627   7.965 -2.3202  2.3227  1.0048
 2516TIP3    H229112   5.368   6.611   8.106 -0.4432 -2.3828  1.3592
 2517TIP3   OH229113   1.294   4.972   6.454 -0.1992 -0.3392  0.0389
 2517TIP3    H129114   1.388   4.984   6.472 -0.2767 -0.2739  0.4150
 2517TIP3    H229115   1.289   4.888   6.409  0.0313 -0.3970  0.1145
 2518TIP3   OH229116   6.963   0.366   0.332  0.1936  0.0022  0.0860
 2518TIP3    H129117   6.927   0.441   0.286  0.0716 -0.2992 -0.3155
 2518TIP3    H229118   7.025   0.403   0.395  0.4807  0.4108 -0.4327
 2519TIP3   OH229119   6.201   5.812   0.102  0.6099  0.3280  0.1397
 2519TIP3    H129120   6.251   5.734   0.125  0.5665 -0.7382 -2.9567
 2519TIP3    H229121   6.111   5.791   0.124  0.6081 -0.4962 -0.6147
 2520TIP3   OH229122   2.671   4.936   7.689  0.8835 -0.2674  0.0269
 2520TIP3    H129123   2.627   4.874   7.631 -0.9365  1.1694 -0.2018
 2520TIP3    H229124   2.662   4.897   7.776  0.7823 -0.8711 -0.2467
 2521TIP3   OH229125   1.168   6.619   6.613  0.2790 -0.1126  0.1387
 2521TIP3    H129126   1.144   6.550   6.551  0.4227  0.2470 -0.3273
 2521TIP3    H229127   1.164   6.700   6.561  2.7739 -0.0486 -0.0491
 2522TIP3   OH229128   0.111   5.162   0.337 -0.2668 -0.4808 -0.0934
 2522TIP3    H129129   0.200   5.143   0.307  0.2077  0.1185  0.8750
 2522TIP3    H229130   0.102   5.257   0.325 -1.1071 -0.6561 -1.0028
 2523TIP3   OH229131   6.472   0.757   1.444  0.6494  0.2005  0.6456
 2523TIP3    H129132   6.464   0.816   1.519  0.2673 -0.0084  0.7720
 2523TIP3    H229133   6.403   0.692   1.458  0.6614  0.0894  0.1777
 2524TIP3   OH229134   2.004   6.434   8.298 -0.2563 -0.0879 -0.1120
 2524TIP3    H129135   1.947   6.420   8.222  1.3851 -0.2197 -1.3868
 2524TIP3    H229136   1.986   6.360   8.356  0.3009 -1.4733 -1.6096
 2525TIP3   OH229137   0.285   0.341   0.432 -0.6103 -0.1999 -0.0862
 2525TIP3    H129138   0.315   0.409   0.371 -1.5571  0.2842 -0.0316
 2525TIP3    H229139   0.255   0.389   0.509  0.0121 -0.7738  0.5331
 2526TIP3   OH229140   0.127   3.924   6.587 -0.1701  0.5722  0.2317
 2526TIP3    H129141   0.183   3.856   6.625 -0.3949  0.9896  1.3564
 2526TIP3    H229142   0.188   3.987   6.549  0.0698  0.2340  0.0537
 2527TIP3   OH229143   6.099   6.257   1.593  0.1144 -0.5364 -0.3407
 2527TIP3    H129144   6.107   6.205   1.673 -0.0543  0.6917  0.5172
 2527TIP3    H229145   6.053   6.201   1.532 -1.1389 -0.9850  0.9479
 2528TIP3   OH229146   0.546   4.123   0.502  0.0548  0.0719 -0.0873
 2528TIP3    H129147   0.550   4.035   0.541  0.7764  0.7434  1.4372
 2528TIP3    H229148   0.453   4.139   0.489 -0.0898 -0.9048 -0.3634
 2529TIP3   OH229149   4.364   3.755   6.597 -0.0469 -0.0686  0.3638
 2529TIP3    H129150   4.411   3.726   6.675 -0.6431  0.9038  1.1164
 2529TIP3    H229151   4.333   3.675   6.556  0.4149 -0.6036  1.0361
 2530TIP3   OH229152   6.867   2.129   1.972 -0.5656 -0.4130 -0.1413
 2530TIP3    H129153   6.845   2.052   1.920  1.1226 -1.7315  1.0167
 2530TIP3    H229154   6.831   2.112   2.058 -2.0079  1.0850 -0.3926
 2531TIP3   OH229155   0.676   3.766   8.373 -0.3165 -0.0531 -0.6643
 2531TIP3    H129156   0.676   3.764   8.469  1.3014  0.0739 -0.6307
 2531TIP3    H229157   0.706   3.854   8.351  1.8891 -0.8770 -1.2248
 2532TIP3   OH229158   3.014   3.255   7.989 -0.0472  0.2217 -0.1196
 2532TIP3    H129159   2.969   3.209   8.060  0.5291  0.9354  0.7275
 2532TIP3    H229160   3.037   3.340   8.026 -0.7744  1.0748 -1.5419
 2533TIP3   OH229161   4.991   6.294   0.905 -0.1061  0.0914  0.1184
 2533TIP3    H129162   5.041   6.280   0.985  1.1809  1.6347 -0.3630
 2533TIP3    H229163   5.058   6.302   0.836 -1.1241  0.0754 -0.9046
 2534TIP3   OH229164   5.631   4.281   6.422  0.3152  0.2265 -0.0619
 2534TIP3    H129165   5.637   4.253   6.513  0.1677 -0.2493 -0.1960
 2534TIP3    H229166   5.563   4.348   6.422  0.0902 -0.0017  0.1225
 2535TIP3   OH229167   5.330   5.052   6.973 -0.0625 -0.1224  0.1659
 2535TIP3    H129168   5.385   5.107   7.028  0.1475  0.0098 -0.1720
 2535TIP3    H229169   5.369   4.965   6.980  0.0716 -0.0688  0.0817
 2536TIP3   OH229170   5.076   2.655   6.816 -0.8558  0.1507 -0.4563
 2536TIP3    H129171   5.085   2.732   6.872 -1.4529 -0.5437  0.6263
 2536TIP3    H229172   4.982   2.649   6.800 -0.7783 -0.1961 -0.7824
 2537TIP3   OH229173   3.842   2.995   7.925  0.7673  0.1206 -0.4744
 2537TIP3    H129174   3.900   3.033   7.991 -0.8381  0.2923  0.8989
 2537TIP3    H229175   3.811   2.914   7.966 -1.9510  1.2874 -0.0182
 2538TIP3   OH229176   1.282   1.000   7.129 -0.0432 -0.5089  0.3214
 2538TIP3    H129177   1.200   1.019   7.083  0.2514 -0.5944 -0.2442
 2538TIP3    H229178   1.313   1.086   7.159 -0.6949 -0.5560  1.1486
 2539TIP3   OH229179   1.942   6.690   8.179  0.6782 -0.4254 -0.1677
 2539TIP3    H129180   2.014   6.654   8.232  0.2557 -1.9719 -0.5990
 2539TIP3    H229181   1.867   6.636   8.201  0.1620 -0.1952 -1.3118
 2540TIP3   OH229182   0.380   5.044   0.201  0.0148  0.5549  0.2855
 2540TIP3    H129183   0.460   5.016   0.246 -0.7220  0.0036  1.3043
 2540TIP3    H229184   0.331   4.962   0.186  0.4405  0.6578 -1.9909
 2541TIP3   OH229185   5.599   3.762   0.070 -0.1212  0.0247  0.1105
 2541TIP3    H129186   5.567   3.727   0.153  1.5810 -0.2181  0.7132
 2541TIP3    H229187   5.626   3.852   0.090 -0.1347  0.1228 -0.2994
 2542TIP3   OH229188   1.198   4.237   7.480 -0.4233 -0.2212  0.1642
 2542TIP3    H129189   1.157   4.303   7.537  0.2713  1.2517 -0.9724
 2542TIP3    H229190   1.146   4.238   7.400 -0.7604 -1.5168  0.3496
 2543TIP3   OH229191   3.929   6.866   1.108 -0.8637 -0.3034 -0.3826
 2543TIP3    H129192   3.837   6.892   1.113 -0.2275  2.1329 -0.2235
 2543TIP3    H229193   3.959   6.900   1.024 -0.2727 -1.7533 -0.7823
 2544TIP3   OH229194   0.357   5.533   0.952 -0.2603 -0.1582  0.7651
 2544TIP3    H129195   0.292   5.472   0.917 -1.6934  2.0816 -0.7500
 2544TIP3    H229196   0.417   5.547   0.879 -1.1788  1.7895  0.3205
 2545TIP3   OH229197   5.790   0.033   0.531 -0.4078 -0.4514  0.3846
 2545TIP3    H129198   5.737   0.112   0.519  0.8270  0.1766 -1.2413
 2545TIP3    H229199   5.791   0.019   0.626 -3.4884 -0.5515  0.5047
 2546TIP3   OH229200   6.586   5.794   1.633 -0.9995  0.2684 -0.2537
 2546TIP3    H129201   6.551   5.771   1.720 -0.1519 -1.9323 -0.4141
 2546TIP3    H229202   6.650   5.862   1.650 -0.4110 -0.5530  0.9697
 2547TIP3   OH229203   4.937   3.828   0.489  0.4931  0.2563 -0.3272
 2547TIP3    H129204   4.888   3.897   0.445 -2.0006  1.1464  3.3797
 2547TIP3    H229205   5.024   3.865   0.504 -0.1803  1.8236 -0.1378
 2548TIP3   OH229206   4.334   4.687   6.488  0.4154 -0.4002 -0.2512
 2548TIP3    H129207   4.375   4.753   6.542 -0.4313  0.3903 -0.5438
 2548TIP3    H229208   4.400   4.665   6.422  0.7719 -0.0037 -0.0291
 2549TIP3   OH229209   2.001   6.185   7.324  0.1358  0.4830 -0.0963
 2549TIP3    H129210   1.934   6.119   7.306  0.1603  0.5054 -0.2677
 2549TIP3    H229211   2.031   6.214   7.238  1.7377 -0.8917 -0.0485
 2550TIP3   OH229212   1.159   5.513   7.691  0.0618 -0.2416 -0.2296
 2550TIP3    H129213   1.253   5.500   7.701  0.0438 -0.6752 -0.5883
 2550TIP3    H229214   1.149   5.557   7.607  0.0036  0.6732  0.2400
 2551TIP3   OH229215   2.469   3.533   1.839 -0.0887  0.1507  0.4255
 2551TIP3    H129216   2.469   3.603   1.903  1.9598  0.0499  0.6004
 2551TIP3    H229217   2.518   3.567   1.765  0.7726 -1.0062  0.4296
 2552TIP3   OH229218   4.762   0.042   2.281 -0.2868 -0.2770  0.0159
 2552TIP3    H129219   4.778   0.050   2.187 -2.0472  1.8056 -0.1767
 2552TIP3    H229220   4.845   0.068   2.322 -0.1624  1.0066 -0.9864
 2553TIP3   OH229221   2.310   3.324   8.276 -0.4718  0.5146 -0.0962
 2553TIP3    H129222   2.260   3.309   8.196 -0.9943  0.6529  0.1980
 2553TIP3    H229223   2.244   3.348   8.341  0.2123  3.6106 -0.3840
 2554TIP3   OH229224   3.118   6.935   7.567 -0.5721 -0.3502  0.3073
 2554TIP3    H129225   3.069   6.988   7.630 -1.4482 -2.5172  1.5711
 2554TIP3    H229226   3.117   6.986   7.486  2.5320  3.6792  2.4251
 2555TIP3   OH229227   3.870   4.480   7.733 -0.0033 -0.2564  0.0932
 2555TIP3    H129228   3.911   4.499   7.817  2.2608 -1.1025 -0.7401
 2555TIP3    H229229   3.924   4.410   7.695 -2.5753 -1.8599 -0.8836
 2556TIP3   OH229230   5.239   2.528   0.536 -0.5349  0.0464 -0.1520
 2556TIP3    H129231   5.217   2.452   0.590 -0.4020 -0.3802 -0.6874
 2556TIP3    H229232   5.307   2.496   0.476 -0.7457  0.4805 -0.6324
 2557TIP3   OH229233   2.721   5.095   1.612  0.5764 -0.0550 -0.0526
 2557TIP3    H129234   2.627   5.108   1.598  0.5547  0.1164  0.2338
 2557TIP3    H229235   2.739   5.009   1.576  0.5358  0.3734 -1.1350
 2558TIP3   OH229236   6.560   5.090   0.052  0.5114 -0.4138  0.0262
 2558TIP3    H129237   6.482   5.122   0.097  0.9531 -0.6250  0.9781
 2558TIP3    H229238   6.530   5.066  -0.035 -0.4347 -0.2506  0.2975
 2559TIP3   OH229239   1.522   5.918   7.712  0.6530 -0.1153  0.0623
 2559TIP3    H129240   1.545   6.009   7.695  0.4688 -0.3047 -1.3769
 2559TIP3    H229241   1.501   5.915   7.805  3.0476  0.7862  0.7197
 2560TIP3   OH229242   2.254   3.505   7.395  0.2539  0.1991  0.5307
 2560TIP3    H129243   2.211   3.492   7.310  1.0231 -0.2568  0.1979
 2560TIP3    H229244   2.341   3.540   7.372  0.0890  1.0628  1.1796
 2561TIP3   OH229245   1.367   2.086   1.299  0.1502  0.0441  0.3168
 2561TIP3    H129246   1.316   2.151   1.252  1.3508  0.3409 -0.6338
 2561TIP3    H229247   1.445   2.133   1.330 -1.1427  0.1897  3.7922
 2562TIP3   OH229248   6.026   6.989   6.615 -0.2206  0.2711 -0.0828
 2562TIP3    H129249   5.967   6.913   6.616  1.4092 -1.0647 -0.0745
 2562TIP3    H229250   6.058   6.993   6.525  0.5232  0.2767  0.1772
 2563TIP3   OH229251   5.623   0.389   6.959  0.0875  0.8143 -0.2581
 2563TIP3    H129252   5.634   0.434   7.043  1.2824  2.1177 -1.0686
 2563TIP3    H229253   5.701   0.335   6.949 -1.0575 -1.0569  0.4211
 2564TIP3   OH229254   2.293   3.271   2.425  0.0413  0.1153 -0.7437
 2564TIP3    H129255   2.364   3.334   2.411  0.7380 -0.3824  0.4578
 2564TIP3    H229256   2.269   3.281   2.517 -0.4269 -0.7663 -0.7599
 2565TIP3   OH229257   0.156   3.108   7.718  0.5842  0.1054  0.7183
 2565TIP3    H129258   0.089   3.157   7.766  0.9843 -0.3048  1.7379
 2565TIP3    H229259   0.189   3.045   7.782  0.7298 -0.8702 -0.2969
 2566TIP3   OH229260   1.337   2.873   1.025  0.3245  0.0312 -0.1574
 2566TIP3    H129261   1.312   2.965   1.034 -1.0475 -0.3802  0.5156
 2566TIP3    H229262   1.402   2.873   0.954  2.2811  1.8276  1.4837
 2567TIP3   OH229263   0.034   0.772   0.999 -0.1431  0.0019 -0.1211
 2567TIP3    H129264   0.015   0.865   1.013 -0.3018 -0.0366 -0.0760
 2567TIP3    H229265   0.021   0.758   0.905 -0.7302 -0.1096 -0.0316
 2568TIP3   OH229266   3.897   5.860   0.206  0.0238 -0.0972  0.1339
 2568TIP3    H129267   3.831   5.886   0.141 -1.0831 -0.4292  1.0886
 2568TIP3    H229268   3.849   5.804   0.267  1.2492 -0.4876  0.7591
 2569TIP3   OH229269   6.476   3.654   1.081 -0.4276 -0.3430  0.0160
 2569TIP3    H129270   6.403   3.685   1.134  0.1420 -0.0857  0.6695
 2569TIP3    H229271   6.553   3.669   1.136  0.2851  0.7508 -1.2143
 2570TIP3   OH229272   4.354   5.573   0.491  0.4166 -0.3314  0.6196
 2570TIP3    H129273   4.356   5.647   0.552  0.7618 -0.0342  0.2566
 2570TIP3    H229274   4.399   5.606   0.413 -1.7404 -0.0302 -0.5568
 2571TIP3   OH229275   1.118   0.638   1.335  0.2212 -0.3556 -0.3580
 2571TIP3    H129276   1.047   0.690   1.372 -0.1031 -0.7042 -0.4854
 2571TIP3    H229277   1.198   0.677   1.370  0.0012  0.4615 -0.7333
 2572TIP3   OH229278   3.516   3.661   8.266 -0.1404  0.6674 -0.3697
 2572TIP3    H129279   3.431   3.646   8.225 -0.6371  1.0977  0.4622
 2572TIP3    H229280   3.527   3.756   8.263 -0.3887  0.7612  0.8144
 2573TIP3   OH229281   2.595   6.619   1.144  0.0765 -0.5311 -0.0328
 2573TIP3    H129282   2.576   6.670   1.222 -1.8308 -0.1727 -0.6609
 2573TIP3    H229283   2.572   6.529   1.168  0.2687 -0.5524  0.0701
 2574TIP3   OH229284   5.767   0.998   1.596  0.1243  0.0252 -0.2604
 2574TIP3    H129285   5.723   1.066   1.546  1.3274  1.1132  0.0963
 2574TIP3    H229286   5.701   0.965   1.657 -0.5003  0.7996 -0.5167
 2575TIP3   OH229287   5.737   2.729   1.424 -0.5323  0.5453  0.1686
 2575TIP3    H129288   5.707   2.740   1.514  2.3376  1.4276  1.1337
 2575TIP3    H229289   5.831   2.712   1.432  0.0467  1.7570 -2.6870
 2576TIP3   OH229290   6.546   1.268   8.217 -0.1045  0.4003  0.5648
 2576TIP3    H129291   6.462   1.225   8.198 -0.4055  0.8239  0.9338
 2576TIP3    H229292   6.540   1.353   8.174  0.0877  0.4810  0.6971
 2577TIP3   OH229293   0.388   0.505   6.952  0.3873  0.2039  0.0228
 2577TIP3    H129294   0.419   0.549   7.030 -1.6951  0.0584  0.9868
 2577TIP3    H229295   0.333   0.433   6.984  1.7316 -1.6481 -1.5306
 2578TIP3   OH229296   1.763   1.884   1.742  0.1090 -0.3859  0.5188
 2578TIP3    H129297   1.776   1.969   1.783 -0.0496 -0.0797 -0.0572
 2578TIP3    H229298   1.820   1.824   1.791  0.2729  0.0609  0.8776
 2579TIP3   OH229299   5.915   4.418   1.354  0.5105 -0.5005 -0.1294
 2579TIP3    H129300   6.004   4.451   1.339  0.7638 -0.5833  1.0676
 2579TIP3    H229301   5.861   4.464   1.290  1.1678  0.8310  0.2366
 2580TIP3   OH229302   2.121   6.784   6.138  0.2007  0.3648 -0.2647
 2580TIP3    H129303   2.174   6.864   6.141 -1.4870  1.8260 -3.6049
 2580TIP3    H229304   2.185   6.713   6.132  1.7411  1.4789  1.5908
 2581TIP3   OH229305   5.768   4.007   7.461 -0.3973 -0.0523  0.2409
 2581TIP3    H129306   5.682   3.964   7.464 -0.1979 -0.4610  0.2099
 2581TIP3    H229307   5.789   4.012   7.367  0.0843 -0.9158  0.2946
 2582TIP3   OH229308   1.736   4.097   6.716 -0.0333  0.2512  0.1415
 2582TIP3    H129309   1.803   4.162   6.693 -0.5297  0.6705 -0.1232
 2582TIP3    H229310   1.663   4.116   6.657  0.5245 -1.7788 -1.3129
 2583TIP3   OH229311   1.505   0.208   8.361 -0.0400  0.1487  0.0965
 2583TIP3    H129312   1.491   0.152   8.284  1.7402  0.2553 -0.3640
 2583TIP3    H229313   1.433   0.187   8.420 -0.1776 -1.6236 -0.6457
 2584TIP3   OH229314   3.830   6.071   2.099  0.0110  0.5866 -0.1959
 2584TIP3    H129315   3.892   6.119   2.154  2.9102 -1.2418 -1.6391
 2584TIP3    H229316   3.804   5.996   2.153  0.4196  0.4317 -0.2137
 2585TIP3   OH229317   5.793   1.801   7.172  0.1616  0.1630  0.6712
 2585TIP3    H129318   5.885   1.781   7.190 -0.5895 -1.5787  3.0741
 2585TIP3    H229319   5.789   1.810   7.077  2.6334 -0.7145  0.4099
 2586TIP3   OH229320   0.487   3.257   1.265 -0.5366 -0.0746  0.2809
 2586TIP3    H129321   0.479   3.267   1.170  0.9978 -0.2104  0.1147
 2586TIP3    H229322   0.497   3.163   1.278  2.1428  0.1584  0.2867
 2587TIP3   OH229323   6.457   3.649   0.242 -0.5612  0.3631  0.4301
 2587TIP3    H129324   6.461   3.744   0.255  0.2144  0.3823  0.1126
 2587TIP3    H229325   6.537   3.628   0.194 -1.5107 -0.2344 -0.9706
 2588TIP3   OH229326   3.343   6.071   7.744 -0.3787 -0.2475 -0.1200
 2588TIP3    H129327   3.428   6.110   7.766  0.8083 -1.9685 -1.4102
 2588TIP3    H229328   3.279   6.139   7.766  1.2288  0.7455  1.7827
 2589TIP3   OH229329   4.173   6.979   0.037  0.2056 -0.2109 -0.1412
 2589TIP3    H129330   4.116   6.903   0.027 -0.8856  0.4132  1.1025
 2589TIP3    H229331   4.212   6.969   0.123  0.8525  0.1347 -0.3868
 2590TIP3   OH229332   1.165   0.627   1.753 -0.2985 -0.0950 -0.0761
 2590TIP3    H129333   1.087   0.651   1.803  0.0385  0.1096  0.3601
 2590TIP3    H229334   1.144   0.543   1.713 -0.1905 -0.7778  1.2584
 2591TIP3   OH229335   2.607   0.132   7.502  0.2043  0.3008  0.0710
 2591TIP3    H129336   2.608   0.111   7.409 -0.0061  0.1733  0.0987
 2591TIP3    H229337   2.606   0.228   7.505 -1.4355  0.3021 -0.0625
 2592TIP3   OH229338   6.946   1.319   7.612  0.0100  0.0730 -0.1647
 2592TIP3    H129339   7.004   1.243   7.607  0.9220  0.8000 -0.9013
 2592TIP3    H229340   6.932   1.344   7.520  0.2710  1.2101  0.0987
 2593TIP3   OH229341   5.165   5.613   6.911 -0.0541  0.5816 -0.2411
 2593TIP3    H129342   5.170   5.614   7.007 -2.0816  0.0557 -0.1023
 2593TIP3    H229343   5.074   5.632   6.891  0.2183  0.1215 -2.0780
 2594TIP3   OH229344   1.574   3.941   8.155  0.8402  0.5987 -0.6047
 2594TIP3    H129345   1.565   4.001   8.081  1.9351  0.0835 -1.1717
 2594TIP3    H229346   1.512   3.974   8.220 -1.7018 -0.1357 -2.5009
 2595TIP3   OH229347   3.604   1.773   6.991  0.4332  0.2283  0.1175
 2595TIP3    H129348   3.524   1.736   7.028 -0.4664 -0.4250 -2.3208
 2595TIP3    H229349   3.664   1.699   6.983  1.0500  0.5767  1.2227
 2596TIP3   OH229350   2.727   1.293   0.661  0.0130 -0.0797 -0.0324
 2596TIP3    H129351   2.802   1.308   0.717 -0.0603  0.5559 -0.1010
 2596TIP3    H229352   2.755   1.320   0.574 -0.1038 -0.3961 -0.1722
 2597TIP3   OH229353   4.275   2.436   1.794  0.4544  0.5025  0.8504
 2597TIP3    H129354   4.313   2.491   1.725 -0.9793 -0.6225 -0.9309
 2597TIP3    H229355   4.350   2.397   1.838  1.4203  0.7026 -0.5624
 2598TIP3   OH229356   3.288   0.904   1.873 -0.0527 -0.0160  0.4645
 2598TIP3    H129357   3.216   0.841   1.874 -2.1527  2.2031 -0.6097
 2598TIP3    H229358   3.340   0.883   1.950 -1.2580 -2.3415  0.7240
 2599TIP3   OH229359   0.240   0.142   1.417  0.0222  0.6093  0.2544
 2599TIP3    H129360   0.166   0.202   1.427 -1.6492 -1.5542  1.9385
 2599TIP3    H229361   0.235   0.113   1.326 -0.0391  1.8601 -0.1654
 2600TIP3   OH229362   4.615   3.736   8.089 -0.1918  0.1245  0.0883
 2600TIP3    H129363   4.693   3.738   8.145 -0.1806 -0.6930  0.1229
 2600TIP3    H229364   4.545   3.705   8.146 -0.4537  0.4574 -0.0476
 2601TIP3   OH229365   0.108   3.738   0.044 -0.4813 -0.3069  0.3765
 2601TIP3    H129366   0.202   3.752   0.032 -0.6787  0.0449 -0.9001
 2601TIP3    H229367   0.066   3.804  -0.011 -1.4879 -0.3178  1.0897
 2602TIP3   OH229368   0.325   2.318   2.240 -0.2304  0.3289 -0.0313
 2602TIP3    H129369   0.262   2.308   2.168 -0.2745  1.1170 -0.1128
 2602TIP3    H229370   0.355   2.409   2.233  0.8494 -0.0077  0.0620
 2603TIP3   OH229371   4.099   6.902   6.466 -0.3748 -0.1357 -0.3232
 2603TIP3    H129372   4.190   6.927   6.481 -1.0642  1.0999  2.4383
 2603TIP3    H229373   4.071   6.864   6.550 -1.9561 -2.0396 -1.6303
 2604TIP3   OH229374   6.689   5.568   1.481  0.3633  0.3728  0.1608
 2604TIP3    H129375   6.687   5.527   1.567  0.5164 -0.6009 -0.2942
 2604TIP3    H229376   6.671   5.661   1.499 -1.4270 -0.1029  1.0662
 2605TIP3   OH229377   3.280   1.215   7.318  0.6143  0.1899  0.1112
 2605TIP3    H129378   3.261   1.220   7.224  1.6273  0.5274 -0.0843
 2605TIP3    H229379   3.367   1.176   7.323  0.9556  1.0298  0.8726
 2606TIP3   OH229380   1.710   1.889   7.839 -0.2450  0.2923 -0.5475
 2606TIP3    H129381   1.665   1.806   7.851 -1.9496  1.4055  1.3570
 2606TIP3    H229382   1.787   1.884   7.897 -0.1312 -0.0766 -0.7268
 2607TIP3   OH229383   5.806   3.100   1.704 -0.5051  0.2418 -0.2272
 2607TIP3    H129384   5.760   3.150   1.636  0.8462  0.9285 -0.6741
 2607TIP3    H229385   5.848   3.029   1.657 -0.8657 -0.2126  0.1322
 2608TIP3   OH229386   0.768   2.568   0.665 -0.1166  0.0679  0.3422
 2608TIP3    H129387   0.678   2.593   0.642 -0.5187 -0.3079  1.4655
 2608TIP3    H229388   0.758   2.495   0.726  0.9589  0.0788  0.5486
 2609TIP3   OH229389   0.566   0.878   7.800  0.5469  0.2562 -0.7790
 2609TIP3    H129390   0.646   0.925   7.776 -0.0128  0.4766 -2.3618
 2609TIP3    H229391   0.594   0.814   7.866  1.2741  3.0011  1.7851
 2610TIP3   OH229392   2.838   6.286   7.203 -0.5378 -0.2832 -0.4974
 2610TIP3    H129393   2.887   6.359   7.241  2.0105 -1.6587 -0.9268
 2610TIP3    H229394   2.820   6.313   7.113 -0.4909  0.2109 -0.3606
 2611TIP3   OH229395   0.263   3.145   7.463 -0.4139  0.2017 -0.1834
 2611TIP3    H129396   0.294   3.062   7.428  1.5070  0.4955  0.6649
 2611TIP3    H229397   0.222   3.122   7.547 -0.4349  0.0357 -0.2395
 2612TIP3   OH229398   5.767   1.334   8.223  0.4470 -0.1774  0.1513
 2612TIP3    H129399   5.696   1.397   8.241  0.3911 -0.4485  0.9151
 2612TIP3    H229400   5.817   1.331   8.305  2.5465  1.5103 -0.9588
 2613TIP3   OH229401   6.350   3.615   8.213  0.0856  0.2421  0.4819
 2613TIP3    H129402   6.269   3.662   8.234 -0.7067 -1.5840  1.8845
 2613TIP3    H229403   6.420   3.676   8.234 -0.8951  1.0602  1.4952
 2614TIP3   OH229404   1.724   3.835   6.796 -0.0269  0.0763  0.0078
 2614TIP3    H129405   1.746   3.917   6.751 -0.9941  1.0406  1.2325
 2614TIP3    H229406   1.630   3.823   6.779  0.3988 -1.6814 -1.5155
 2615TIP3   OH229407   5.591   6.911   0.810 -0.2932 -0.3815 -0.5978
 2615TIP3    H129408   5.682   6.933   0.832 -0.4816 -0.9283  0.8634
 2615TIP3    H229409   5.548   6.996   0.800  0.0270 -0.0860  0.3489
 2616TIP3   OH229410   6.807   1.313   7.909 -0.0530  0.1211  0.0263
 2616TIP3    H129411   6.807   1.395   7.959 -1.1072 -1.2209  2.3900
 2616TIP3    H229412   6.893   1.312   7.866  1.0555  1.2876  2.0340
 2617TIP3   OH229413   1.898   2.769   7.560 -0.2176 -0.7329 -0.0496
 2617TIP3    H129414   1.895   2.679   7.526 -0.7761 -0.6322 -0.2824
 2617TIP3    H229415   1.894   2.824   7.481  0.4421 -0.5056  0.0758
 2618TIP3   OH229416   5.791   3.461   1.213 -0.2611 -0.1904 -0.6812
 2618TIP3    H129417   5.794   3.443   1.307  0.3305 -3.0298 -1.1440
 2618TIP3    H229418   5.864   3.522   1.198 -1.2634  1.4773  0.8425
 2619TIP3   OH229419   0.682   5.475   6.908 -0.4332 -0.6096  0.1152
 2619TIP3    H129420   0.594   5.475   6.947 -0.2737  0.9264  0.5618
 2619TIP3    H229421   0.727   5.401   6.948 -0.5601  0.3880  2.2231
 2620TIP3   OH229422   2.993   6.792   6.912 -0.3658 -0.3969 -0.1415
 2620TIP3    H129423   3.031   6.875   6.940 -0.6618 -0.1765 -0.3822
 2620TIP3    H229424   2.923   6.775   6.975  0.9820 -1.4875  1.1190
 2621TIP3   OH229425   1.460   1.849   0.530 -0.0462 -1.1699 -0.2049
 2621TIP3    H129426   1.532   1.891   0.577 -0.4403  0.9027 -1.3257
 2621TIP3    H229427   1.503   1.781   0.478  1.0265 -0.4564 -0.2963
 2622TIP3   OH229428   1.952   6.282   6.773 -0.1007 -0.0176  0.2249
 2622TIP3    H129429   1.937   6.244   6.686 -0.5689  0.8871 -0.1059
 2622TIP3    H229430   1.911   6.368   6.768 -0.3764 -0.0738  1.4529
 2623TIP3   OH229431   4.884   2.836   1.664  0.1727  0.3954 -0.1071
 2623TIP3    H129432   4.880   2.833   1.568  2.1120 -0.3931 -0.2035
 2623TIP3    H229433   4.973   2.809   1.685 -0.2578  0.4368  1.9452
 2624TIP3   OH229434   5.363   0.312   6.637  0.4144 -0.1369  0.0617
 2624TIP3    H129435   5.361   0.248   6.566  0.8130 -0.0940  0.0116
 2624TIP3    H229436   5.369   0.260   6.717  2.8191 -0.1444 -0.0659
 2625TIP3   OH229437   4.936   0.990   0.019  0.1578  0.4694  0.0412
 2625TIP3    H129438   4.881   0.959  -0.052  1.3833 -0.1135 -0.6753
 2625TIP3    H229439   4.951   1.082  -0.001 -1.2968  0.8984  0.7531
 2626TIP3   OH229440   0.403   3.494   5.868  0.1161 -0.1691  0.3352
 2626TIP3    H129441   0.469   3.463   5.930  0.2805 -1.5889 -0.5118
 2626TIP3    H229442   0.419   3.444   5.788 -1.5873 -0.1018 -0.0944
 2627TIP3   OH229443   6.678   6.397   1.604  0.1308  0.5512  0.6570
 2627TIP3    H129444   6.643   6.324   1.655  0.6579 -0.6729 -0.6877
 2627TIP3    H229445   6.752   6.429   1.656  0.1182 -0.0871  1.0745
 2628TIP3   OH229446   0.420   1.776   7.898 -0.0618  0.9353 -0.2159
 2628TIP3    H129447   0.341   1.767   7.845  0.4476  0.8497 -0.9919
 2628TIP3    H229448   0.489   1.794   7.834  0.7937 -0.3566  0.2925
 2629TIP3   OH229449   1.786   0.939   6.993 -0.0447  0.4727 -0.3310
 2629TIP3    H129450   1.854   0.941   7.061  0.3556  0.4005 -0.7219
 2629TIP3    H229451   1.831   0.905   6.916 -0.3868  0.9515 -0.7484
 2630TIP3   OH229452   3.776   3.367   7.437 -0.6802 -0.3637 -0.4311
 2630TIP3    H129453   3.812   3.362   7.525  0.6371 -2.2581 -0.9967
 2630TIP3    H229454   3.853   3.367   7.380 -1.5241 -0.4763 -1.6091
 2631TIP3   OH229455   4.531   5.950   0.279  0.2886 -0.0053  0.4343
 2631TIP3    H129456   4.549   5.995   0.197  0.3770 -0.9753 -0.0959
 2631TIP3    H229457   4.518   6.020   0.343 -1.3562  0.8067 -0.7187
 2632TIP3   OH229458   0.804   1.043   1.940  0.1073  0.2958 -0.7309
 2632TIP3    H129459   0.893   1.054   1.975 -0.0022 -1.0607  0.0329
 2632TIP3    H229460   0.748   1.037   2.018 -0.2016 -2.2996 -1.0622
 2633TIP3   OH229461   1.137   0.801   7.285  0.0073 -0.2314  0.3657
 2633TIP3    H129462   1.222   0.803   7.241 -0.0917  0.2448  0.1918
 2633TIP3    H229463   1.074   0.822   7.217 -0.1614  0.3633  0.6966
 2634TIP3   OH229464   3.936   1.985   0.083 -0.3387 -0.0759 -0.0946
 2634TIP3    H129465   3.851   1.961   0.047  0.0984 -0.1730 -1.1087
 2634TIP3    H229466   3.969   2.053   0.024  0.0535  0.3529  0.6018
 2635TIP3   OH229467   2.075   5.188   6.525 -0.2714  0.3559  0.0441
 2635TIP3    H129468   2.148   5.213   6.469  0.3335 -0.3425  0.5082
 2635TIP3    H229469   2.098   5.102   6.558 -0.7977  0.5935  1.0750
 2636TIP3   OH229470   0.340   1.172   7.959 -0.3488 -0.2160 -0.5689
 2636TIP3    H129471   0.270   1.132   8.011  0.4816  0.3254  1.0324
 2636TIP3    H229472   0.417   1.118   7.978  0.1356  0.4324 -0.6773
 2637TIP3   OH229473   6.865   5.080   6.964 -0.3872 -0.3677  0.6791
 2637TIP3    H129474   6.910   5.104   6.883  1.6760 -1.5948  1.4145
 2637TIP3    H229475   6.795   5.145   6.971  0.2750  0.6715 -1.3096
 2638TIP3   OH229476   2.713   3.938   1.650 -0.1059 -0.5872  0.3514
 2638TIP3    H129477   2.647   3.966   1.712 -0.1654  1.5767 -0.5843
 2638TIP3    H229478   2.682   3.971   1.565  0.4277 -2.6242 -0.7100
 2639TIP3   OH229479   5.381   4.448   0.866 -0.1905  0.4553 -0.3681
 2639TIP3    H129480   5.421   4.367   0.896  0.3419  0.2314 -1.6127
 2639TIP3    H229481   5.319   4.472   0.935 -1.4878 -1.8063 -0.6443
 2640TIP3   OH229482   0.569   6.940   7.117  0.2917 -0.2462 -0.1780
 2640TIP3    H129483   0.602   7.025   7.086  2.1490 -0.9792 -0.3320
 2640TIP3    H229484   0.532   6.899   7.039  0.9068 -0.2558 -0.4705
 2641TIP3   OH229485   3.624   0.986   1.373 -0.0808  0.4813 -0.6204
 2641TIP3    H129486   3.607   1.029   1.289  0.6745  0.4257 -0.8076
 2641TIP3    H229487   3.572   0.906   1.370  0.9407 -0.1665 -1.5849
 2642TIP3   OH229488   5.607   3.909   6.195 -0.7018  0.4148 -0.0616
 2642TIP3    H129489   5.607   4.005   6.194 -2.2691  0.4748  0.8978
 2642TIP3    H229490   5.563   3.884   6.113 -0.5300  0.5332 -0.1886
 2643TIP3   OH229491   3.788   1.266   0.249  0.8215 -0.6484  0.1045
 2643TIP3    H129492   3.879   1.250   0.273  1.1530  2.7826  1.7137
 2643TIP3    H229493   3.792   1.343   0.192 -1.0172 -1.0283 -0.6055
 2644TIP3   OH229494   1.837   4.458   7.745 -0.1805  0.5985 -0.0786
 2644TIP3    H129495   1.747   4.462   7.711 -0.2772  0.0798  0.1056
 2644TIP3    H229496   1.831   4.497   7.832 -0.1683  0.8389 -0.1854
 2645TIP3   OH229497   5.002   0.466   1.001  0.0370  0.5084  0.6542
 2645TIP3    H129498   5.056   0.509   1.068 -1.2306  0.4024  1.7888
 2645TIP3    H229499   4.989   0.378   1.035 -0.2795  0.3217  0.0510
 2646TIP3   OH229500   1.625   0.133   1.230  0.1941  0.1885 -0.2987
 2646TIP3    H129501   1.617   0.048   1.186  0.8651  0.6029 -1.2540
 2646TIP3    H229502   1.545   0.140   1.282 -0.1156 -0.7947 -0.6108
 2647TIP3   OH229503   6.789   3.840   0.282 -0.5861  0.4428  0.7115
 2647TIP3    H129504   6.749   3.881   0.205  0.9401  1.1129  0.2428
 2647TIP3    H229505   6.811   3.912   0.340 -1.0012  0.0007  1.4330
 2648TIP3   OH229506   3.903   4.292   0.032 -0.1230 -0.2339 -0.4475
 2648TIP3    H129507   3.957   4.274  -0.046  1.0045 -0.3941  0.3369
 2648TIP3    H229508   3.920   4.384   0.052  0.5390 -0.5061  0.2907
 2649TIP3   OH229509   0.998   3.758   0.273  0.2762 -0.3456 -0.0127
 2649TIP3    H129510   1.031   3.674   0.305  0.6147 -0.6344 -1.1089
 2649TIP3    H229511   1.075   3.814   0.269  0.2481 -0.3365 -0.4104
 2650TIP3   OH229512   6.408   4.730   7.330 -0.5270  0.3067 -0.7063
 2650TIP3    H129513   6.454   4.807   7.296  2.7110 -0.4364  1.5373
 2650TIP3    H229514   6.475   4.662   7.336 -2.0547 -1.1548  2.0458
 2651TIP3   OH229515   1.668   4.862   8.237 -0.3257  0.0139 -0.0753
 2651TIP3    H129516   1.590   4.916   8.251 -0.7457 -0.7379  0.5354
 2651TIP3    H229517   1.737   4.925   8.217 -0.6702  0.8262  1.2062
 2652TIP3   OH229518   4.772   5.524   6.342  0.8648  0.2441  0.2819
 2652TIP3    H129519   4.856   5.490   6.374  1.2129  2.0875  1.5052
 2652TIP3    H229520   4.766   5.491   6.252  2.2714 -0.9901  0.5926
 2653TIP3   OH229521   3.413   2.312   6.901 -0.5023 -0.1561  0.3382
 2653TIP3    H129522   3.369   2.296   6.817 -1.9472  2.2888  0.5385
 2653TIP3    H229523   3.344   2.306   6.966  0.2041  0.0657  1.1240
 2654TIP3   OH229524   0.704   3.160   8.079  0.0661 -0.3359  0.2881
 2654TIP3    H129525   0.798   3.160   8.093  0.0816 -0.0669  0.1950
 2654TIP3    H229526   0.677   3.251   8.095  0.5052  0.8173 -4.2506
 2655TIP3   OH229527   0.667   6.206   8.054 -0.5842 -0.0807 -0.4641
 2655TIP3    H129528   0.733   6.244   8.113 -0.1663 -0.9851 -0.3290
 2655TIP3    H229529   0.614   6.281   8.027  0.2265  0.6073 -0.2264
 2656TIP3   OH229530   6.597   5.774   6.991  1.3849  0.5905  0.4708
 2656TIP3    H129531   6.603   5.714   6.916 -0.1587 -2.6338  2.7396
 2656TIP3    H229532   6.681   5.763   7.036  0.9079 -0.3271  1.1625
 2657TIP3   OH229533   4.071   5.439   7.910  0.1712 -0.5588 -0.1441
 2657TIP3    H129534   4.122   5.386   7.849 -0.9739 -1.7204 -0.1337
 2657TIP3    H229535   3.994   5.466   7.859  0.5039  0.7328 -0.0085
 2658TIP3   OH229536   4.262   3.270   0.437 -0.3996 -0.2259  0.1054
 2658TIP3    H129537   4.317   3.250   0.362 -0.4370  1.3552 -0.3815
 2658TIP3    H229538   4.280   3.200   0.500 -1.4697 -2.4414 -1.9158
 2659TIP3   OH229539   4.819   5.169   1.051 -0.2002  0.6536  0.7571
 2659TIP3    H129540   4.737   5.206   1.019  0.1277  0.1186 -0.8130
 2659TIP3    H229541   4.792   5.087   1.094 -0.4962  0.3466  0.0223
 2660TIP3   OH229542   0.924   0.147   0.110  0.4286  0.2109  0.4669
 2660TIP3    H129543   0.850   0.154   0.171  0.8926  1.2890  0.9163
 2660TIP3    H229544   0.968   0.231   0.116  0.4010  0.3959 -1.4800
 2661TIP3   OH229545   2.955   0.911   7.756 -0.0210  0.1732 -0.6702
 2661TIP3    H129546   2.888   0.936   7.819  1.0335  0.8930  0.2003
 2661TIP3    H229547   3.038   0.918   7.804  0.5781 -2.2482 -1.2199
 2662TIP3   OH229548   3.483   3.305   7.660  0.7163 -0.4750 -0.4454
 2662TIP3    H129549   3.522   3.253   7.590  0.8726 -0.1555 -0.5937
 2662TIP3    H229550   3.544   3.297   7.733 -0.2607 -2.2226  0.2552
 2663TIP3   OH229551   5.094   0.690   1.755  0.1733 -0.1665  0.4295
 2663TIP3    H129552   5.065   0.613   1.804  2.2288 -2.1241 -1.1814
 2663TIP3    H229553   5.167   0.724   1.806 -1.4387  1.5207  1.7363
 2664TIP3   OH229554   6.411   4.092   7.780  0.0914 -0.9359  0.5413
 2664TIP3    H129555   6.491   4.113   7.829 -0.7290  0.1933  1.4350
 2664TIP3    H229556   6.439   4.024   7.718  1.6771 -0.7748  1.0233
 2665TIP3   OH229557   6.455   2.555   7.871 -0.9637  0.7811 -0.4871
 2665TIP3    H129558   6.427   2.598   7.952 -1.5876  0.8478 -0.7347
 2665TIP3    H229559   6.381   2.566   7.811 -1.3287 -1.0099 -0.4274
 2666TIP3   OH229560   3.690   0.739   0.438 -0.5379 -0.1657  0.5539
 2666TIP3    H129561   3.717   0.829   0.426  0.7008 -0.7354 -1.5090
 2666TIP3    H229562   3.656   0.713   0.352  0.9921 -2.2338  0.5061
 2667TIP3   OH229563   6.704   2.356   1.991 -0.4317 -0.1960 -0.2006
 2667TIP3    H129564   6.768   2.285   1.982 -0.9967 -0.8209  0.5483
 2667TIP3    H229565   6.690   2.363   2.085 -0.9288  0.4296 -0.3172
 2668TIP3   OH229566   4.772   3.522   7.374 -0.0072 -0.5600  0.5645
 2668TIP3    H129567   4.678   3.526   7.387  0.1080 -0.4897  1.4257
 2668TIP3    H229568   4.804   3.609   7.400  0.0340  0.3037 -2.1249
 2669TIP3   OH229569   2.488   0.446   7.007 -0.4312  0.0836  0.3880
 2669TIP3    H129570   2.543   0.405   6.940 -3.5449  0.7435 -2.8772
 2669TIP3    H229571   2.420   0.381   7.026  0.2746 -0.0263  2.9274
 2670TIP3   OH229572   4.764   0.942   0.488 -0.5822  0.1596  0.2257
 2670TIP3    H129573   4.682   0.938   0.439 -1.0441  2.1073  0.7605
 2670TIP3    H229574   4.825   0.984   0.429 -0.8872  1.6594  0.9263
 2671TIP3   OH229575   4.596   1.673   0.812  0.0618 -0.4193 -0.4428
 2671TIP3    H129576   4.638   1.648   0.730  1.6524 -0.8845  0.4715
 2671TIP3    H229577   4.560   1.760   0.795  0.6228 -0.3916 -1.5507
 2672TIP3   OH229578   5.209   4.614   1.331  0.1047 -0.3789  0.6756
 2672TIP3    H129579   5.195   4.708   1.347 -0.0282 -0.5125  1.3893
 2672TIP3    H229580   5.226   4.578   1.418  2.6239 -0.6167  0.1737
 2673TIP3   OH229581   5.945   1.279   0.589  0.1575  0.1425  0.0797
 2673TIP3    H129582   5.929   1.235   0.506  0.8036  1.3780 -0.7407
 2673TIP3    H229583   6.026   1.240   0.622 -1.3980 -2.1275  1.4266
 2674TIP3   OH229584   4.926   6.622   2.059 -0.1589  0.3003  0.1172
 2674TIP3    H129585   4.944   6.684   1.988  0.8575  0.5447  0.5665
 2674TIP3    H229586   4.911   6.678   2.135 -2.2780  0.0849 -0.0856
 2675TIP3   OH229587   1.487   4.729   0.994 -0.3312  0.0932  0.7947
 2675TIP3    H129588   1.419   4.663   1.000 -1.0720  0.8514  0.8918
 2675TIP3    H229589   1.569   4.680   1.001 -0.8245 -0.9703 -0.4703
 2676TIP3   OH229590   6.996   5.780   0.064 -0.7495  0.0639  0.0643
 2676TIP3    H129591   6.993   5.857   0.120 -2.1001  0.6553 -0.7732
 2676TIP3    H229592   6.966   5.708   0.121  0.5106  0.1385  0.8434
 2677TIP3   OH229593   5.215   2.231   0.381  0.1130 -0.2011 -0.3305
 2677TIP3    H129594   5.308   2.226   0.400  0.0203 -0.2699  0.1010
 2677TIP3    H229595   5.209   2.295   0.310  0.5432 -0.6421 -0.7751
 2678TIP3   OH229596   2.311   2.259   6.420  0.3441  0.2398 -0.0444
 2678TIP3    H129597   2.312   2.169   6.389 -0.7639  0.2147 -0.0319
 2678TIP3    H229598   2.242   2.302   6.369  0.9429  1.1146 -0.1380
 2679TIP3   OH229599   2.524   3.220   6.771  0.0040  0.1690  0.2638
 2679TIP3    H129600   2.565   3.299   6.737  1.7550  0.1435  2.1028
 2679TIP3    H229601   2.523   3.232   6.866  2.3630 -2.8362  0.8505
 2680TIP3   OH229602   4.267   3.371   0.771  0.2003  0.2391  0.0064
 2680TIP3    H129603   4.355   3.391   0.741 -0.1258  0.2340 -1.0121
 2680TIP3    H229604   4.279   3.308   0.842  1.0305  0.5605  0.1580
 2681TIP3   OH229605   6.442   0.484   0.466  0.0270  0.9924  0.0067
 2681TIP3    H129606   6.431   0.393   0.439  0.2349  0.5851  1.2194
 2681TIP3    H229607   6.493   0.524   0.396  0.9153 -0.1185 -0.0109
 2682TIP3   OH229608   5.170   3.304   1.389 -0.3466  0.7391  0.0945
 2682TIP3    H129609   5.123   3.379   1.425 -0.1086  0.3839  1.2016
 2682TIP3    H229610   5.239   3.286   1.454 -1.1439 -1.1625  0.4744
 2683TIP3   OH229611   0.091   6.384   7.792  0.4094  0.5230  0.6183
 2683TIP3    H129612   0.108   6.427   7.708  0.3686 -0.2796  0.1839
 2683TIP3    H229613   0.140   6.301   7.786  0.2432  0.3699  1.3028
 2684TIP3   OH229614   5.798   4.208   1.472 -0.0696 -0.7161  0.4260
 2684TIP3    H129615   5.725   4.228   1.530 -1.3082 -1.1300 -0.9325
 2684TIP3    H229616   5.822   4.291   1.433  0.3898 -0.5332  1.0780
 2685TIP3   OH229617   0.282   1.855   1.576 -0.2260  0.2810  0.8288
 2685TIP3    H129618   0.202   1.804   1.588 -1.4944  2.0496  0.3239
 2685TIP3    H229619   0.271   1.931   1.634  1.0049  0.6371  0.6297
 2686TIP3   OH229620   6.168   3.403   6.446 -0.7775  0.0711 -0.2261
 2686TIP3    H129621   6.098   3.446   6.397 -0.6473  1.5198  0.7659
 2686TIP3    H229622   6.150   3.310   6.439 -1.1818  0.2604 -2.3493
 2687TIP3   OH229623   2.083   2.066   6.862 -0.0888 -0.6109  0.0863
 2687TIP3    H129624   2.133   1.984   6.868  1.0708  0.0527 -0.1664
 2687TIP3    H229625   2.098   2.097   6.773 -0.8555 -0.3178  0.0476
 2688TIP3   OH229626   4.604   3.845   7.322 -0.2884  0.1195 -0.0749
 2688TIP3    H129627   4.514   3.816   7.310 -0.1978 -0.0557 -0.3466
 2688TIP3    H229628   4.645   3.831   7.236  0.2105 -0.5610  0.2627
 2689TIP3   OH229629   1.514   0.207   7.550  0.1190 -0.2955  0.0815
 2689TIP3    H129630   1.453   0.255   7.607 -0.3522 -1.8969  0.9891
 2689TIP3    H229631   1.466   0.127   7.527  1.8118 -1.5459  0.7305
 2690TIP3   OH229632   1.289   4.883   7.405 -0.1894  0.4879 -0.4514
 2690TIP3    H129633   1.364   4.844   7.359 -0.6514  0.6630 -1.3793
 2690TIP3    H229634   1.327   4.955   7.456  0.6975 -1.1920  1.3954
 2691TIP3   OH229635   3.335   5.020   7.600 -0.2664  0.5876  0.4002
 2691TIP3    H129636   3.288   5.026   7.517  0.3082  2.3636  0.1686
 2691TIP3    H229637   3.412   5.075   7.587  0.5075 -0.1660  1.6762
 2692TIP3   OH229638   0.228   5.915   0.268  0.0978 -0.7402 -0.3211
 2692TIP3    H129639   0.215   5.904   0.362 -1.9115  0.4739 -0.4084
 2692TIP3    H229640   0.148   5.956   0.237  0.2225 -2.1957 -2.7951
 2693TIP3   OH229641   0.822   5.760   6.538 -0.0730 -0.3490 -0.4708
 2693TIP3    H129642   0.799   5.734   6.627 -1.5749 -1.1706 -1.0649
 2693TIP3    H229643   0.884   5.692   6.509  0.1668 -0.2600 -0.1743
 2694TIP3   OH229644   5.004   4.030   1.190 -0.3913  0.1181 -0.6712
 2694TIP3    H129645   5.087   4.056   1.151 -1.0259  0.3573 -1.9022
 2694TIP3    H229646   5.024   3.948   1.236  0.6541  0.4962 -0.4286
 2695TIP3   OH229647   5.115   1.426   0.118 -0.3727 -0.3581  0.0786
 2695TIP3    H129648   5.122   1.406   0.024 -0.5641 -2.6899  0.5037
 2695TIP3    H229649   5.044   1.489   0.124  0.1724  0.4427 -1.4058
 2696TIP3   OH229650   2.273   0.703   1.335  0.2390 -0.0777  0.0360
 2696TIP3    H129651   2.304   0.792   1.352 -1.2884  0.0303  2.7837
 2696TIP3    H229652   2.225   0.710   1.253  1.5500  1.2268 -0.6718
 2697TIP3   OH229653   6.240   0.586   1.538  0.0319  0.2744  0.0967
 2697TIP3    H129654   6.176   0.549   1.599 -0.7861  0.3152 -0.7151
 2697TIP3    H229655   6.224   0.540   1.456  1.0827  0.2618 -0.1085
 2698TIP3   OH229656   2.893   4.944   0.389 -0.0936  0.3687  0.2585
 2698TIP3    H129657   2.877   4.943   0.483 -0.6357  0.2076  0.1690
 2698TIP3    H229658   2.963   4.880   0.376 -1.6788 -1.4900  0.2921
 2699TIP3   OH229659   1.146   2.138   8.334 -0.4362  0.0797  0.0785
 2699TIP3    H129660   1.064   2.134   8.383 -0.3922 -0.6081  0.0985
 2699TIP3    H229661   1.151   2.055   8.287  1.6558 -1.2389  2.3607
 2700TIP3   OH229662   2.913   1.598   1.071  0.1935 -0.3241  0.4353
 2700TIP3    H129663   2.943   1.541   1.141  1.1062 -0.2967  0.0720
 2700TIP3    H229664   2.989   1.611   1.015 -0.3989  0.0345 -0.3104
 2701TIP3   OH229665   0.773   3.112   1.115 -0.4136 -0.4294 -0.2467
 2701TIP3    H129666   0.756   3.018   1.123 -0.3757 -0.3643  0.8027
 2701TIP3    H229667   0.739   3.149   1.197  0.4405  0.3448 -0.2263
 2702TIP3   OH229668   5.925   4.672   7.730 -0.2088 -0.2820 -0.5154
 2702TIP3    H129669   5.890   4.668   7.641 -0.1581 -0.9297 -0.5109
 2702TIP3    H229670   5.893   4.592   7.772  0.8436 -0.6467 -0.3570
 2703TIP3   OH229671   2.866   3.699   6.694  0.4081 -0.0226 -0.4781
 2703TIP3    H129672   2.837   3.702   6.603  0.9244 -0.1244 -0.6522
 2703TIP3    H229673   2.886   3.790   6.717  2.8597 -0.2590 -1.3457
 2704TIP3   OH229674   5.040   3.458   1.699  0.4145 -0.5371 -0.0721
 2704TIP3    H129675   4.996   3.377   1.676  0.9740 -0.5822 -1.0061
 2704TIP3    H229676   5.074   3.442   1.787 -1.4543 -0.4744  0.7074
 2705TIP3   OH229677   6.921   0.716   7.328 -0.4749  0.3818  0.1328
 2705TIP3    H129678   6.921   0.727   7.423 -0.2027 -1.1223  0.3438
 2705TIP3    H229679   7.013   0.711   7.305 -0.5522  0.0195 -0.1031
 2706TIP3   OH229680   4.697   6.088   0.924  0.7199  0.3744  0.4003
 2706TIP3    H129681   4.757   6.072   0.850 -0.7852 -1.1480 -0.5833
 2706TIP3    H229682   4.722   6.022   0.989  0.6193  0.2523  0.3157
 2707TIP3   OH229683   6.915   2.103   1.563  0.2256  0.3446  0.2092
 2707TIP3    H129684   6.916   2.009   1.577 -2.2056  0.4968  1.9066
 2707TIP3    H229685   7.004   2.131   1.584  0.1826 -1.2048  2.8455
 2708TIP3   OH229686   3.806   5.116   6.687 -0.1841 -0.4724  0.4686
 2708TIP3    H129687   3.874   5.049   6.678  0.8927  0.8531 -2.6170
 2708TIP3    H229688   3.848   5.186   6.736 -0.0189 -0.5136  0.3872
 2709TIP3   OH229689   1.578   6.339   2.083  0.2950  0.4694  0.0532
 2709TIP3    H129690   1.641   6.272   2.108  0.0025 -0.3744 -1.3792
 2709TIP3    H229691   1.562   6.324   1.989 -1.5540  1.0663  0.2317
 2710TIP3   OH229692   1.716   4.473   7.174 -0.0431  0.1004 -0.3827
 2710TIP3    H129693   1.725   4.505   7.085  1.2595 -0.3488 -0.4224
 2710TIP3    H229694   1.627   4.499   7.200  0.4037  2.3358 -0.9456
 2711TIP3   OH229695   6.031   5.352   2.026  0.3606 -0.1151  0.0523
 2711TIP3    H129696   6.105   5.301   1.994  0.0599 -0.3739 -0.2419
 2711TIP3    H229697   6.033   5.433   1.974 -0.3280 -0.6779 -0.8976
 2712TIP3   OH229698   5.842   1.104   2.197  0.1067  0.5800 -0.2192
 2712TIP3    H129699   5.879   1.027   2.241 -3.0162 -1.5453 -1.0200
 2712TIP3    H229700   5.884   1.178   2.241  4.4396 -1.4191 -0.3887
 2713TIP3   OH229701   6.043   0.635   8.256  0.7173  0.4350  0.2709
 2713TIP3    H129702   6.098   0.609   8.182  0.1464  0.5248 -0.1938
 2713TIP3    H229703   6.037   0.730   8.249 -2.4027  0.2131 -1.8442
 2714TIP3   OH229704   4.913   5.882   1.601 -0.8375 -0.1201 -0.3522
 2714TIP3    H129705   4.923   5.949   1.534  0.1335 -1.1229 -1.2666
 2714TIP3    H229706   4.882   5.804   1.554 -0.4918 -0.7443  0.4127
 2715TIP3   OH229707   2.630   3.139   1.454 -0.1178 -0.2850  0.5140
 2715TIP3    H129708   2.616   3.070   1.518  0.1230  0.3405  1.2555
 2715TIP3    H229709   2.595   3.218   1.496 -1.6115 -0.1700 -0.8289
 2716TIP3   OH229710   3.282   2.518   7.173 -0.0077 -0.3439 -0.0830
 2716TIP3    H129711   3.193   2.483   7.166  0.6520 -1.8535 -1.3526
 2716TIP3    H229712   3.288   2.581   7.102  0.6735 -2.0199 -1.5765
 2717TIP3   OH229713   1.822   3.724   0.184  0.4887 -0.3049  0.2084
 2717TIP3    H129714   1.884   3.652   0.191  1.7643  0.8545  1.2869
 2717TIP3    H229715   1.876   3.802   0.177 -0.8465  0.5277 -1.9703
 2718TIP3   OH229716   3.561   1.188   0.082 -0.0252 -0.1389 -0.0877
 2718TIP3    H129717   3.642   1.212   0.127 -0.7928 -0.9293  1.7976
 2718TIP3    H229718   3.504   1.265   0.094  1.0045  1.2368 -3.0804
 2719TIP3   OH229719   2.382   4.499   7.733 -0.9053  0.0441 -0.2185
 2719TIP3    H129720   2.474   4.473   7.730 -0.1272  2.6056 -1.4031
 2719TIP3    H229721   2.381   4.575   7.791 -2.8002 -1.4833  1.9330
 2720TIP3   OH229722   2.365   6.604   1.757  0.0681  0.1608  0.6382
 2720TIP3    H129723   2.351   6.593   1.851  1.4943  0.1145  0.8750
 2720TIP3    H229724   2.442   6.661   1.751 -0.8624  1.3586 -0.5199
 2721TIP3   OH229725   5.270   2.958   7.863 -0.7906  0.2466  0.0831
 2721TIP3    H129726   5.242   2.952   7.772 -1.2989 -0.2454  0.2711
 2721TIP3    H229727   5.365   2.967   7.858 -0.5103 -2.2246 -0.4432
 2722TIP3   OH229728   2.373   0.401   0.979 -0.6796 -0.4729  0.0210
 2722TIP3    H129729   2.351   0.348   0.902 -0.7925 -1.0412  0.4416
 2722TIP3    H229730   2.389   0.488   0.943  4.6159 -1.6849 -1.5585
 2723TIP3   OH229731   1.066   5.293   2.037 -0.7315  0.3240 -0.3277
 2723TIP3    H129732   1.106   5.253   1.960 -0.6274  0.2282 -0.2242
 2723TIP3    H229733   0.972   5.293   2.018 -0.8455 -0.9885  0.1387
 2724TIP3   OH229734   2.096   5.028   1.992  0.1816  0.2177 -0.2594
 2724TIP3    H129735   2.111   4.934   2.004 -0.2158  0.3176  1.3004
 2724TIP3    H229736   2.007   5.041   2.025  0.6485  1.3207  0.6026
 2725TIP3   OH229737   1.599   6.041   1.352 -0.4825  0.6371 -0.2980
 2725TIP3    H129738   1.599   6.106   1.282  0.0635 -0.8964 -1.8082
 2725TIP3    H229739   1.552   6.083   1.424  1.0041  3.1855 -0.6868
 2726TIP3   OH229740   0.931   6.360   8.303  0.1019  0.5363 -0.1852
 2726TIP3    H129741   0.875   6.418   8.250 -0.9088  0.0015  0.2638
 2726TIP3    H229742   1.019   6.376   8.271 -0.3532  1.0967 -1.2181
 2727TIP3   OH229743   4.067   1.127   1.267  0.6880 -0.0863  0.1304
 2727TIP3    H129744   4.006   1.076   1.320  0.6033 -0.0393  0.0770
 2727TIP3    H229745   4.153   1.093   1.292  0.7279  0.6395  1.0650
 2728TIP3   OH229746   4.002   2.819   6.387 -0.3752 -0.1966  0.5035
 2728TIP3    H129747   4.083   2.822   6.336 -0.3832 -0.5504  0.4676
 2728TIP3    H229748   3.967   2.732   6.372 -0.8215 -0.0108  0.4336
 2729TIP3   OH229749   5.759   4.215   7.646  0.1374  0.0622  0.0711
 2729TIP3    H129750   5.741   4.138   7.592  2.0620 -0.3402 -0.0805
 2729TIP3    H229751   5.677   4.265   7.646 -1.7222 -2.7554  1.5547
 2730TIP3   OH229752   0.523   0.557   5.931  0.3458  0.1953 -0.0071
 2730TIP3    H129753   0.459   0.493   5.899  0.6329 -1.4336  2.3763
 2730TIP3    H229754   0.599   0.505   5.954  1.3115  1.6783  0.2800
 2731TIP3   OH229755   5.957   3.059   6.874 -0.1043 -0.0082  0.2394
 2731TIP3    H129756   5.938   3.145   6.836 -0.6555 -0.7152 -1.1336
 2731TIP3    H229757   6.052   3.052   6.872 -0.1431 -0.4808 -2.1197
 2732TIP3   OH229758   1.579   3.879   7.188  0.0828 -0.6532  0.1515
 2732TIP3    H129759   1.554   3.868   7.279 -0.1192 -0.8261  0.0758
 2732TIP3    H229760   1.512   3.832   7.138 -0.1459 -0.0597 -0.1163
 2733TIP3   OH229761   6.741   5.307   6.894  0.2823  0.4887  0.4760
 2733TIP3    H129762   6.771   5.286   6.806 -1.3617  1.3442 -0.3338
 2733TIP3    H229763   6.783   5.390   6.915 -0.4902  1.0449 -0.1337
 2734TIP3   OH229764   6.325   3.412   2.240  0.0938 -0.9515 -0.1463
 2734TIP3    H129765   6.284   3.498   2.232 -0.2313 -0.8241  2.3002
 2734TIP3    H229766   6.416   3.426   2.217  0.5565  0.5801  2.2802
 2735TIP3   OH229767   0.721   0.817   7.111 -0.1660 -0.1837 -0.0161
 2735TIP3    H129768   0.738   0.733   7.067  0.4315 -0.1912  0.2139
 2735TIP3    H229769   0.808   0.855   7.124 -0.1940 -0.7651  2.2942
 2736TIP3   OH229770   1.074   4.848   0.887  0.2485  0.5555  0.1241
 2736TIP3    H129771   0.997   4.899   0.911 -0.3165 -0.9325  1.7200
 2736TIP3    H229772   1.051   4.806   0.804 -2.3987 -2.9110  2.3173
 2737TIP3   OH229773   1.804   1.709   7.661 -0.2417  0.3359 -0.6211
 2737TIP3    H129774   1.783   1.767   7.734 -2.6311 -0.8181 -0.2822
 2737TIP3    H229775   1.770   1.754   7.584  0.9805  0.8927 -0.8585
 2738TIP3   OH229776   1.666   6.232   7.769  0.4348  0.5023  0.1028
 2738TIP3    H129777   1.655   6.210   7.862 -3.7861  0.3487 -0.2658
 2738TIP3    H229778   1.580   6.216   7.730  2.3072 -0.4771 -4.1256
 2739TIP3   OH229779   3.526   2.312   0.468  0.3037  0.0720  0.8700
 2739TIP3    H129780   3.496   2.292   0.557 -1.1707  0.4758  0.4968
 2739TIP3    H229781   3.526   2.227   0.424 -0.1105  0.0294  0.9427
 2740TIP3   OH229782   6.320   4.449   8.164 -0.3313  0.6304 -0.4341
 2740TIP3    H129783   6.311   4.542   8.184 -0.2864  0.4998  0.2251
 2740TIP3    H229784   6.240   4.427   8.117 -0.8353  0.7732  0.3280
 2741TIP3   OH229785   2.157   1.785   2.075 -0.0416  0.2083  0.4850
 2741TIP3    H129786   2.221   1.784   2.004 -0.9137 -1.2933 -0.3221
 2741TIP3    H229787   2.206   1.755   2.152  0.1659 -1.3388 -0.2124
 2742TIP3   OH229788   4.802   4.160   1.316  0.3871 -0.4174  0.2663
 2742TIP3    H129789   4.876   4.115   1.274  1.7082  1.3899  0.5657
 2742TIP3    H229790   4.726   4.109   1.289  1.6455 -1.8952 -0.7003
 2743TIP3   OH229791   6.495   3.304   1.172 -0.5121  0.0329  0.4644
 2743TIP3    H129792   6.492   3.392   1.210  0.0160 -0.3624  1.4542
 2743TIP3    H229793   6.416   3.261   1.205 -0.6756  0.0661  0.1256
 2744TIP3   OH229794   3.281   4.572   7.673  0.3405  0.3082 -0.2869
 2744TIP3    H129795   3.201   4.537   7.634 -1.3543  3.4773  0.0088
 2744TIP3    H229796   3.268   4.563   7.767  0.9285 -0.2666 -0.2501
 2745TIP3   OH229797   4.641   1.177   6.939 -0.3217 -0.0245 -0.2995
 2745TIP3    H129798   4.602   1.252   6.893 -1.7120  1.0337  2.3905
 2745TIP3    H229799   4.578   1.106   6.927 -0.1944 -0.0588 -0.8060
 2746TIP3   OH229800   1.685   5.118   1.242  0.4403 -0.1745  0.1847
 2746TIP3    H129801   1.768   5.150   1.209  0.6694 -1.5952 -0.7165
 2746TIP3    H229802   1.707   5.069   1.321  0.2195  0.9294  0.9553
 2747TIP3   OH229803   6.053   6.297   0.749 -0.2939  0.1058 -0.0608
 2747TIP3    H129804   6.082   6.315   0.838 -0.1032  2.1302 -0.4881
 2747TIP3    H229805   6.113   6.229   0.717  0.1761 -0.0218  1.0521
 2748TIP3   OH229806   4.967   1.248   7.598 -0.3385  0.9597  0.1821
 2748TIP3    H129807   4.981   1.342   7.604 -1.1883  1.0001  2.4550
 2748TIP3    H229808   5.055   1.212   7.588 -0.1236  2.0127 -2.9554
 2749TIP3   OH229809   1.003   1.130   0.172 -0.0037  0.4291 -0.3813
 2749TIP3    H129810   0.988   1.149   0.080 -0.9185  1.0826 -0.1188
 2749TIP3    H229811   1.041   1.211   0.207  1.6015 -0.2667 -0.4491
 2750TIP3   OH229812   4.564   5.404   7.803 -0.4288 -0.1203 -0.1733
 2750TIP3    H129813   4.575   5.311   7.785 -0.8610 -0.3180  0.5217
 2750TIP3    H229814   4.528   5.440   7.723  4.0840  0.4033 -2.2534
 2751TIP3   OH229815   4.460   2.993   7.025  0.0412  0.3187 -0.8355
 2751TIP3    H129816   4.392   2.927   7.038 -0.4380  0.8617 -0.5391
 2751TIP3    H229817   4.537   2.943   6.999 -0.8180 -0.2161 -2.5098
 2752TIP3   OH229818   0.792   0.836   6.347  0.0141 -0.1637 -0.8067
 2752TIP3    H129819   0.769   0.897   6.276 -1.5740 -1.2090 -1.2461
 2752TIP3    H229820   0.825   0.758   6.303  0.3717 -0.2887 -0.3292
 2753TIP3   OH229821   0.177   6.623   1.781  0.4329 -0.7987 -0.2529
 2753TIP3    H129822   0.173   6.529   1.796 -0.2465 -0.7732 -0.2635
 2753TIP3    H229823   0.271   6.642   1.776  0.5854 -1.3748  0.3428
 2754TIP3   OH229824   6.805   1.519   7.024 -0.1382 -0.1066  0.0929
 2754TIP3    H129825   6.817   1.586   7.091  1.4922 -0.1642 -0.0909
 2754TIP3    H229826   6.887   1.469   7.025 -1.1067 -1.7808 -0.1412
 2755TIP3   OH229827   0.938   0.746   0.770 -0.3504 -0.4512 -0.1625
 2755TIP3    H129828   0.991   0.725   0.847  0.3388  0.1411 -0.4570
 2755TIP3    H229829   0.852   0.767   0.804 -0.0611 -0.2348  0.4468
 2756TIP3   OH229830   3.863   5.613   6.592 -0.5089 -0.2233 -0.2469
 2756TIP3    H129831   3.810   5.560   6.532 -2.1315  0.5450  0.4343
 2756TIP3    H229832   3.854   5.703   6.558  0.7958 -0.1336 -0.3970
 2757TIP3   OH229833   5.261   0.999   1.392  0.3946 -0.8063  0.3956
 2757TIP3    H129834   5.249   0.987   1.298 -2.1821  0.9162  0.3988
 2757TIP3    H229835   5.322   1.072   1.399  1.6194 -1.7668  0.1393
 2758TIP3   OH229836   0.069   1.140   8.135 -0.0170 -0.2127 -0.3869
 2758TIP3    H129837  -0.016   1.109   8.168 -0.9323  2.3287 -0.1283
 2758TIP3    H229838   0.073   1.231   8.164  2.4198 -0.0065 -1.2071
 2759TIP3   OH229839   3.168   4.875   1.792 -0.1022 -0.4033 -0.5662
 2759TIP3    H129840   3.158   4.843   1.882 -0.6065  0.5287 -0.2717
 2759TIP3    H229841   3.167   4.970   1.801 -1.0487 -0.2912 -1.6518
 2760TIP3   OH229842   4.428   0.668   0.736 -0.1750  0.7604 -0.5178
 2760TIP3    H129843   4.411   0.585   0.691 -1.5993  1.5958 -1.5932
 2760TIP3    H229844   4.376   0.663   0.816 -0.6819  0.8239 -0.8394
 2761TIP3   OH229845   1.474   4.275   1.877 -0.1058  0.0954  0.5520
 2761TIP3    H129846   1.527   4.354   1.871 -1.0328  0.6752 -0.1631
 2761TIP3    H229847   1.410   4.293   1.945 -0.0058 -0.2449  0.7429
 2762TIP3   OH229848   4.168   2.181   1.978  0.6169  0.5334  0.8914
 2762TIP3    H129849   4.078   2.184   1.945  0.4247  2.1614  1.4702
 2762TIP3    H229850   4.169   2.107   2.038 -0.8820  1.5626  2.2838
 2763TIP3   OH229851   1.318   4.248   1.342 -0.1549  0.0980 -0.0394
 2763TIP3    H129852   1.292   4.257   1.434  1.6756 -0.4815  0.5831
 2763TIP3    H229853   1.266   4.175   1.309  1.2055 -1.6587  1.4331
 2764TIP3   OH229854   6.168   0.921   1.251 -0.1126  0.5868  0.5690
 2764TIP3    H129855   6.142   0.914   1.159  1.4651  1.1303  0.0577
 2764TIP3    H229856   6.087   0.905   1.300 -0.7424 -0.8632 -0.8717
 2765TIP3   OH229857   2.440   0.096   6.767 -0.5577  0.0537 -0.1196
 2765TIP3    H129858   2.492   0.163   6.723  0.1384 -0.0656  0.5121
 2765TIP3    H229859   2.466   0.101   6.859 -1.5433 -0.1232  0.1788
 2766TIP3   OH229860   1.357   4.015   6.595  1.0764 -0.7580 -0.5438
 2766TIP3    H129861   1.424   3.948   6.580  0.6961 -0.9543 -1.3920
 2766TIP3    H229862   1.329   4.042   6.508 -0.4728 -1.1943 -0.2140
 2767TIP3   OH229863   3.896   0.757   1.834  0.4458 -0.1611 -0.3133
 2767TIP3    H129864   3.943   0.828   1.877  0.5268 -0.3913 -0.0211
 2767TIP3    H229865   3.953   0.730   1.762  0.8972 -0.6385  0.2208
 2768TIP3   OH229866   0.205   0.014   1.173 -0.4583  0.5917  0.0768
 2768TIP3    H129867   0.201  -0.078   1.147 -1.1107  0.3725  0.9099
 2768TIP3    H229868   0.114   0.039   1.190 -0.4595  1.8407 -1.5973
 2769TIP3   OH229869   3.793   1.651   7.285  0.1006 -0.3943  0.0098
 2769TIP3    H129870   3.841   1.612   7.212  0.8899  2.2819 -1.0433
 2769TIP3    H229871   3.860   1.701   7.332 -1.4496  3.3912 -1.4413
 2770TIP3   OH229872   0.267   2.919   7.880 -0.2654 -0.7018  0.1262
 2770TIP3    H129873   0.321   2.845   7.855  1.7654  0.7112  0.0442
 2770TIP3    H229874   0.329   2.992   7.888 -1.9539  0.6720  1.5849
 2771TIP3   OH229875   5.276   1.628   0.198  0.3260 -0.0587  0.7977
 2771TIP3    H129876   5.252   1.702   0.141 -0.3980  0.1389  1.3481
 2771TIP3    H229877   5.224   1.555   0.165  0.8513 -0.2706  0.4169
 2772TIP3   OH229878   5.524   0.331   8.243  0.3404  0.2391 -0.3658
 2772TIP3    H129879   5.569   0.370   8.168  1.4329  1.4799  0.8713
 2772TIP3    H229880   5.482   0.253   8.208  1.6960  0.2031 -2.0450
 2773TIP3   OH229881   4.445   3.019   7.900 -0.3023  0.1425 -0.5315
 2773TIP3    H129882   4.510   3.073   7.945  0.1328 -1.1388  0.4443
 2773TIP3    H229883   4.418   3.072   7.824  1.2298  1.0623 -0.4808
 2774TIP3   OH229884   1.646   2.400   1.218  0.3522  0.5219  0.1237
 2774TIP3    H129885   1.585   2.453   1.168 -1.9490 -2.1299 -0.1247
 2774TIP3    H229886   1.690   2.346   1.153  0.0152 -0.3838  0.6285
 2775TIP3   OH229887   1.667   3.538   6.576 -0.3331 -0.2121 -0.7712
 2775TIP3    H129888   1.650   3.466   6.514 -0.5606 -1.6551  0.8901
 2775TIP3    H229889   1.756   3.523   6.605 -1.1166 -1.2391  1.2892
 2776TIP3   OH229890   1.770   0.693   6.259  0.2808  0.3503  0.2604
 2776TIP3    H129891   1.701   0.751   6.230 -1.0526 -0.1845  2.1678
 2776TIP3    H229892   1.785   0.634   6.185 -1.8716 -0.0134  0.0679
 2777TIP3   OH229893   5.657   5.244   7.032 -0.2005  0.4998  0.2212
 2777TIP3    H129894   5.704   5.272   7.111 -0.0902  0.6826  0.0926
 2777TIP3    H229895   5.699   5.162   7.008  1.1645  1.4544 -0.8169
 2778TIP3   OH229896   2.836   6.699   7.107  0.1005 -0.6263 -0.0472
 2778TIP3    H129897   2.878   6.625   7.151  1.5661 -0.0429 -0.3789
 2778TIP3    H229898   2.763   6.723   7.165  0.5929 -1.3049  0.8932
 2779TIP3   OH229899   5.200   3.461   0.640 -0.1565  0.5650 -0.0631
 2779TIP3    H129900   5.230   3.532   0.697  2.0957 -0.1174 -0.2763
 2779TIP3    H229901   5.211   3.382   0.694  0.2117  0.1117 -0.7898
 2780TIP3   OH229902   2.870   1.547   8.217  0.0123  0.2901 -0.8174
 2780TIP3    H129903   2.828   1.462   8.202  0.6789 -0.1492 -0.2361
 2780TIP3    H229904   2.798   1.610   8.212 -0.5629 -0.3541 -0.8055
 2781TIP3   OH229905   6.643   3.680   8.174  0.1831 -0.2390 -0.2822
 2781TIP3    H129906   6.720   3.622   8.168  2.4296  2.4367  0.6165
 2781TIP3    H229907   6.646   3.731   8.093 -0.9378 -0.3679 -0.4144
 2782TIP3   OH229908   6.717   1.809   0.416 -0.0617  0.9185  0.2800
 2782TIP3    H129909   6.677   1.813   0.329 -1.0820  2.2804  0.7626
 2782TIP3    H229910   6.664   1.745   0.463 -0.2444  1.0288  0.2291
 2783TIP3   OH229911   0.264   1.449   8.082  0.0127  0.4945 -0.2879
 2783TIP3    H129912   0.216   1.480   8.005  1.0360 -0.0634 -1.1955
 2783TIP3    H229913   0.301   1.365   8.054  0.7526  0.4842  0.6722
 2784TIP3   OH229914   0.908   5.798   1.891  0.4634  0.2417  0.1554
 2784TIP3    H129915   0.853   5.874   1.909 -0.1191 -0.3731  1.0653
 2784TIP3    H229916   0.947   5.775   1.975  0.0829 -0.8656  0.0551
 2785TIP3   OH229917   0.236   1.920   2.409 -0.0952 -0.3136 -0.4417
 2785TIP3    H129918   0.204   1.839   2.371  1.6388 -0.3003 -2.1294
 2785TIP3    H229919   0.288   1.893   2.485 -0.7546 -0.6424 -0.1025
 2786TIP3   OH229920   6.322   5.318   1.543  0.3566  0.2184 -0.9121
 2786TIP3    H129921   6.414   5.339   1.523  0.8699 -2.3579 -1.6762
 2786TIP3    H229922   6.284   5.400   1.573  3.7518  0.7637  2.7323
 2787TIP3   OH229923   4.648   0.020   0.799 -0.5815  0.2635  0.0004
 2787TIP3    H129924   4.573   0.044   0.744 -2.5837 -0.4798  2.2064
 2787TIP3    H229925   4.640  -0.076   0.808  0.3484  0.2360  0.6380
 2788TIP3   OH229926   6.575   4.661   0.320 -0.2499  0.5155 -0.3005
 2788TIP3    H129927   6.581   4.575   0.361 -1.5310  0.3256 -0.4638
 2788TIP3    H229928   6.483   4.687   0.332 -0.5787  0.6575 -2.5597
 2789TIP3   OH229929   3.983   3.677   7.755  0.2015  1.1822  0.5631
 2789TIP3    H129930   3.986   3.763   7.715 -0.4628  2.1281  2.4273
 2789TIP3    H229931   3.974   3.694   7.849 -1.0514 -0.8882  0.8901
 2790TIP3   OH229932   5.646   3.098   1.268  0.4688 -0.1295 -0.3072
 2790TIP3    H129933   5.560   3.060   1.287  0.3077  0.8083  0.9576
 2790TIP3    H229934   5.657   3.085   1.174 -2.2031  1.8941 -1.0491
 2791TIP3   OH229935   0.155   5.529   7.752 -0.5095  0.2451  0.1992
 2791TIP3    H129936   0.075   5.523   7.804 -1.0733 -2.1577 -0.8035
 2791TIP3    H229937   0.180   5.621   7.756 -2.8923  0.9084  1.1811
 2792TIP3   OH229938   1.900   6.940   6.734  0.1883 -0.5329  0.0144
 2792TIP3    H129939   1.914   6.949   6.828  1.4783  0.7894 -0.2656
 2792TIP3    H229940   1.984   6.964   6.694 -0.7336  0.3320 -1.5291
 2793TIP3   OH229941   0.484   5.609   0.431 -0.0721  0.6668 -0.3497
 2793TIP3    H129942   0.495   5.633   0.523 -1.3077  0.5098 -0.1478
 2793TIP3    H229943   0.552   5.659   0.385  1.3644 -0.1910  0.7630
 2794TIP3   OH229944   0.156   6.699   7.100  0.0383 -0.2179  0.2412
 2794TIP3    H129945   0.102   6.639   7.151 -0.8110 -0.3869 -0.8291
 2794TIP3    H229946   0.243   6.695   7.141 -0.2158 -1.5558  0.6762
 2795TIP3   OH229947   6.512   6.328   8.178 -0.8611  0.0380 -0.6732
 2795TIP3    H129948   6.424   6.354   8.208 -0.8021 -0.4087 -0.0904
 2795TIP3    H229949   6.532   6.389   8.108 -1.0475  1.0579  0.1469
 2796TIP3   OH229950   1.238   1.086   1.515  0.0874 -0.2796  1.0495
 2796TIP3    H129951   1.199   1.012   1.562  1.6217 -0.7801  1.5966
 2796TIP3    H229952   1.185   1.161   1.540 -1.6117 -1.2077  0.3451
 2797TIP3   OH229953   5.071   1.438   0.725 -0.5014  0.0956  0.2589
 2797TIP3    H129954   5.137   1.453   0.793  1.0787 -0.0739 -1.1826
 2797TIP3    H229955   5.037   1.525   0.706  2.0720  0.8290 -1.6051
 2798TIP3   OH229956   6.784   2.017   0.031 -0.2564 -0.0863 -0.7982
 2798TIP3    H129957   6.727   2.065  -0.029 -0.7939 -1.6839 -1.6234
 2798TIP3    H229958   6.792   2.075   0.107 -0.9570  1.2438 -1.6911
 2799TIP3   OH229959   4.770   2.874   6.382  0.2195 -0.1982 -0.0434
 2799TIP3    H129960   4.721   2.797   6.353  0.6594 -0.2139 -0.7994
 2799TIP3    H229961   4.860   2.855   6.357  0.6556 -0.2365  1.4579
 2800TIP3   OH229962   0.437   6.856   0.799  0.7372  0.4282  0.3466
 2800TIP3    H129963   0.383   6.832   0.724  1.5111  1.7199 -0.6862
 2800TIP3    H229964   0.467   6.773   0.835  0.2346 -0.2256 -0.6949
 2801TIP3   OH229965   4.164   1.940   2.178 -0.5721  0.2155  0.0370
 2801TIP3    H129966   4.241   1.896   2.141  0.5508  1.8685  0.2719
 2801TIP3    H229967   4.106   1.869   2.205  0.4733 -1.0741 -0.9677
 2802TIP3   OH229968   6.258   5.060   1.550  0.1938 -0.2613  0.2631
 2802TIP3    H129969   6.308   5.033   1.627  0.2096  0.6075  0.5730
 2802TIP3    H229970   6.265   5.155   1.549 -0.8430 -0.1692 -0.1123
 2803TIP3   OH229971   0.286   5.219   6.755  0.0329 -0.3318  0.0498
 2803TIP3    H129972   0.359   5.215   6.817  0.6056  0.8422 -0.5129
 2803TIP3    H229973   0.258   5.128   6.745  2.2038 -0.9995 -0.6380
 2804TIP3   OH229974   4.473   6.215   1.383 -0.3683  0.3501 -0.2439
 2804TIP3    H129975   4.488   6.123   1.407 -0.4447  0.0998 -1.0933
 2804TIP3    H229976   4.379   6.221   1.372 -0.3986  0.6273  0.1563
 2805TIP3   OH229977   1.432   2.739   2.321 -0.5656 -0.2879  0.6384
 2805TIP3    H129978   1.347   2.695   2.319 -0.9718  0.3429  2.4268
 2805TIP3    H229979   1.411   2.833   2.322  0.2215 -0.0677 -0.7624
 2806TIP3   OH229980   5.470   3.779   8.149  0.2905  0.3427 -0.2296
 2806TIP3    H129981   5.474   3.873   8.168 -3.7727  0.5901  0.3992
 2806TIP3    H229982   5.462   3.773   8.054 -0.0966  0.7189 -0.2242
 2807TIP3   OH229983   5.134   5.109   7.892  0.0367 -0.1262  0.0460
 2807TIP3    H129984   5.205   5.057   7.930 -2.2530 -1.5954  2.7666
 2807TIP3    H229985   5.073   5.044   7.857 -0.2281  1.0685 -1.8669
 2808TIP3   OH229986   4.660   5.416   7.098  0.5988  0.1426 -0.0789
 2808TIP3    H129987   4.659   5.322   7.116  0.3785  0.5725  2.5918
 2808TIP3    H229988   4.584   5.431   7.041 -0.0426 -1.1635  0.4017
 2809TIP3   OH229989   3.274   3.816   2.283 -0.0750  0.2072 -0.6151
 2809TIP3    H129990   3.363   3.843   2.306  0.5883 -1.8932 -0.5214
 2809TIP3    H229991   3.259   3.854   2.196  1.0586  0.2517 -0.8072
 2810TIP3   OH229992   5.483   0.896   6.865  0.3083  0.1717  0.2832
 2810TIP3    H129993   5.444   0.857   6.944 -2.0921  0.0288 -0.8949
 2810TIP3    H229994   5.523   0.823   6.819 -2.4419 -0.7268 -0.9171
 2811TIP3   OH229995   2.984   5.464   0.855 -0.1087 -0.4910 -0.1591
 2811TIP3    H129996   3.076   5.455   0.831 -0.0537 -0.7429  0.1491
 2811TIP3    H229997   2.966   5.558   0.845  0.6912 -0.1153  1.5837
 2812TIP3   OH229998   4.756   2.307   0.250  0.4985  0.8090 -0.6095
 2812TIP3    H129999   4.831   2.365   0.236 -0.5855  1.9105 -2.2154
 2812TIP3    H230000   4.730   2.323   0.340  1.5560  1.1737 -0.3478
 2813TIP3   OH230001   2.934   2.429   0.044 -0.4698 -0.3518  0.1950
 2813TIP3    H130002   3.009   2.385   0.084 -0.3519 -1.7529 -1.4136
 2813TIP3    H230003   2.914   2.501   0.103  1.3814 -0.6562  1.2939
 2814TIP3   OH230004   4.560   3.381   0.724 -0.5406 -0.9676  0.4224
 2814TIP3    H130005   4.598   3.403   0.809 -1.6109 -1.6173  1.1060
 2814TIP3    H230006   4.578   3.288   0.713  0.6187 -0.6396 -0.6378
 2815TIP3   OH230007   3.217   2.687   1.104 -0.0617  0.3554 -0.8563
 2815TIP3    H130008   3.250   2.722   1.021  3.2071  1.7410  0.8302
 2815TIP3    H230009   3.125   2.665   1.086  0.2629  1.3080 -4.5658
 2816TIP3   OH230010   6.429   5.629   7.748 -0.2296  0.1880  0.2311
 2816TIP3    H130011   6.480   5.630   7.829  0.2442 -0.2958 -0.0558
 2816TIP3    H230012   6.354   5.685   7.767 -0.3864 -0.3117  1.1752
 2817TIP3   OH230013   4.772   4.057   0.646  0.6230 -0.2512 -0.1714
 2817TIP3    H130014   4.861   4.032   0.670  0.9623  2.2803  1.6855
 2817TIP3    H230015   4.774   4.070   0.551  1.3191 -3.2867 -0.6578
 2818TIP3   OH230016   0.138   3.769   0.335  0.4904  0.3509  0.5199
 2818TIP3    H130017   0.064   3.743   0.390  0.9956 -2.4297  0.0533
 2818TIP3    H230018   0.104   3.768   0.246  0.8583 -0.0798  0.3778
 2819TIP3   OH230019   4.572   3.919   1.822  0.0154  0.4812  0.2014
 2819TIP3    H130020   4.552   3.966   1.902  0.5266  2.2948 -0.6879
 2819TIP3    H230021   4.491   3.923   1.771 -0.0626  0.0433  0.2892
 2820TIP3   OH230022   3.875   5.994   1.826 -0.2401  0.0220  0.0701
 2820TIP3    H130023   3.787   5.992   1.789 -0.2292 -0.7853  0.0789
 2820TIP3    H230024   3.862   5.998   1.920 -0.3462 -3.3512  0.3232
 2821TIP3   OH230025   4.160   1.683   6.736 -0.0012 -0.2611 -0.1119
 2821TIP3    H130026   4.105   1.634   6.797  0.1474 -0.4451 -0.1241
 2821TIP3    H230027   4.123   1.771   6.736 -1.6788 -0.8758 -1.7373
 2822TIP3   OH230028   3.148   5.655   7.570  0.1649  0.3261  0.4959
 2822TIP3    H130029   3.180   5.673   7.481 -0.8415 -0.0610  0.0416
 2822TIP3    H230030   3.083   5.723   7.586 -1.0420 -0.7216  0.1749
 2823TIP3   OH230031   2.361   1.992   1.995 -0.0024 -0.1544  0.9804
 2823TIP3    H130032   2.394   1.981   1.906 -1.2941 -2.2098  0.6808
 2823TIP3    H230033   2.285   2.050   1.985 -0.0875 -0.3009  0.7589
 2824TIP3   OH230034   4.610   2.417   7.203 -0.4032  1.0741  0.4325
 2824TIP3    H130035   4.582   2.337   7.157 -0.5236  1.4926 -0.2372
 2824TIP3    H230036   4.667   2.461   7.140  1.5118  0.4211  1.6371
 2825TIP3   OH230037   5.159   5.673   1.513 -0.5341  0.0516 -0.0801
 2825TIP3    H130038   5.170   5.768   1.506  0.6461  0.0481  1.3217
 2825TIP3    H230039   5.076   5.655   1.469  0.4851  1.3823 -2.7747
 2826TIP3   OH230040   3.982   2.509   0.671 -0.1368  0.0297 -0.0469
 2826TIP3    H130041   4.062   2.554   0.642 -0.2223 -0.0386 -0.3877
 2826TIP3    H230042   3.950   2.562   0.745 -0.7189  1.0323 -0.9932
 2827TIP3   OH230043   6.902   4.490   1.033 -0.0603 -0.3944  0.2202
 2827TIP3    H130044   6.961   4.450   1.097 -0.0288 -2.7681 -1.1598
 2827TIP3    H230045   6.819   4.500   1.080  0.4453 -0.4233  1.1469
 2828TIP3   OH230046   4.978   5.784   6.163 -0.0419  0.3425  0.1845
 2828TIP3    H130047   4.921   5.833   6.105 -0.2250  1.2817  1.1301
 2828TIP3    H230048   4.968   5.693   6.136  1.0571  0.8807 -2.2693
 2829TIP3   OH230049   2.184   5.164   1.773  0.4428 -0.2606  0.0279
 2829TIP3    H130050   2.151   5.133   1.857  0.1588  0.1184  0.0607
 2829TIP3    H230051   2.146   5.104   1.709 -0.3742  0.2027  0.0606
 2830TIP3   OH230052   6.397   2.863   8.060 -0.1128  0.0555  0.5545
 2830TIP3    H130053   6.389   2.861   7.964 -0.3653 -1.0742  0.5924
 2830TIP3    H230054   6.483   2.824   8.077  0.3052  1.0230  0.7655
 2831TIP3   OH230055   2.510   5.061   7.042 -0.1554  0.2843  0.3944
 2831TIP3    H130056   2.501   4.986   6.983 -0.5204  0.5137  0.1525
 2831TIP3    H230057   2.586   5.108   7.009 -0.5671  0.6036 -0.1142
 2832TIP3   OH230058   4.733   0.687   1.593  0.0091 -0.1399 -0.1713
 2832TIP3    H130059   4.735   0.647   1.680 -2.7587 -3.2826 -1.3081
 2832TIP3    H230060   4.799   0.756   1.596  0.1570 -0.2034  4.3044
 2833TIP3   OH230061   3.481   6.883   7.197  0.3635  0.5806  0.1640
 2833TIP3    H130062   3.392   6.848   7.200 -1.4381  4.6666  2.7720
 2833TIP3    H230063   3.527   6.838   7.268 -0.6696  0.6681  0.9116
 2834TIP3   OH230064   1.781   4.829   0.552  0.0957 -0.7407 -0.8568
 2834TIP3    H130065   1.869   4.829   0.515  1.0122 -0.8874  1.1566
 2834TIP3    H230066   1.752   4.738   0.548  1.2025 -1.2352  0.8873
 2835TIP3   OH230067   1.453   5.206   7.960  0.2981  0.0165 -0.0129
 2835TIP3    H130068   1.528   5.257   7.931  0.8581 -0.4820  0.5209
 2835TIP3    H230069   1.483   5.115   7.956 -0.8837 -0.3622 -1.5651
 2836TIP3   OH230070   0.669   4.385   0.595  0.1209 -0.1676 -0.2379
 2836TIP3    H130071   0.636   4.298   0.576  1.1263 -0.2393 -1.8056
 2836TIP3    H230072   0.765   4.376   0.591  0.2449  0.9686 -0.2977
 2837TIP3   OH230073   3.501   6.731   1.498 -0.1695 -0.1001 -0.3404
 2837TIP3    H130074   3.555   6.698   1.427 -1.6898 -1.9573 -0.7192
 2837TIP3    H230075   3.557   6.726   1.575  0.0886 -2.5545 -0.6029
 2838TIP3   OH230076   4.836   3.167   1.195  0.0175 -0.5853  0.0857
 2838TIP3    H130077   4.880   3.235   1.145  0.1473 -0.1560  0.7696
 2838TIP3    H230078   4.860   3.185   1.286 -0.8479 -0.8799  0.3813
 2839TIP3   OH230079   2.104   1.263   0.165 -0.2851  0.0868  0.5514
 2839TIP3    H130080   2.046   1.223   0.230  1.1335 -0.0455  1.7780
 2839TIP3    H230081   2.191   1.231   0.187  0.5088  1.6013 -0.2242
 2840TIP3   OH230082   1.263   4.680   6.746 -0.0725  0.4794  0.3552
 2840TIP3    H130083   1.269   4.776   6.749 -0.5724  0.4894  2.0274
 2840TIP3    H230084   1.181   4.663   6.701  1.0261  0.7623 -1.8651
 2841TIP3   OH230085   1.543   1.348   7.810 -0.1377 -0.9039 -0.1608
 2841TIP3    H130086   1.468   1.399   7.840  0.1136 -1.0074  0.6976
 2841TIP3    H230087   1.522   1.258   7.836  0.9096 -0.7243  1.4268
 2842TIP3   OH230088   4.570   5.706   5.951  0.0415 -0.1363  0.3348
 2842TIP3    H130089   4.491   5.661   5.982 -0.0764 -1.7134 -1.9576
 2842TIP3    H230090   4.537   5.784   5.907 -0.4050 -1.2475 -1.4043
 2843TIP3   OH230091   4.243   3.318   7.405 -0.2049 -0.0588 -0.7966
 2843TIP3    H130092   4.283   3.311   7.318  0.6055  1.1919 -0.5526
 2843TIP3    H230093   4.197   3.402   7.404 -3.2338 -1.5753 -1.1816
 2844TIP3   OH230094   2.810   5.186   2.063  0.5687  0.2439  0.2739
 2844TIP3    H130095   2.752   5.233   2.003  3.0673 -0.3502 -2.9476
 2844TIP3    H230096   2.883   5.247   2.077  1.9423 -1.1134 -0.6941
 2845TIP3   OH230097   6.659   3.135   0.546 -0.1023  0.7403  0.1485
 2845TIP3    H130098   6.592   3.201   0.562 -2.5500 -2.0888  2.9346
 2845TIP3    H230099   6.617   3.072   0.488  1.7841  1.0096 -1.5992
 2846TIP3   OH230100   2.527   0.979   1.613  0.3061 -0.3982 -0.8379
 2846TIP3    H130101   2.558   0.897   1.575  0.1187 -1.7683  1.7591
 2846TIP3    H230102   2.467   0.953   1.683 -0.3335  1.9862 -0.3957
 2847TIP3   OH230103   1.428   0.934   6.719 -0.2016 -0.1136  0.4763
 2847TIP3    H130104   1.461   0.866   6.777  0.5610 -1.1151 -1.0472
 2847TIP3    H230105   1.343   0.902   6.690  0.4221 -0.7666 -0.7192
 2848TIP3   OH230106   0.176   3.466   8.213 -0.6143  0.2994 -0.2360
 2848TIP3    H130107   0.222   3.510   8.284 -0.4523  0.2707 -0.3225
 2848TIP3    H230108   0.185   3.526   8.138 -0.7989  0.3381 -0.2290
 2849TIP3   OH230109   4.246   5.878   6.118  0.3599  0.5635  0.3200
 2849TIP3    H130110   4.291   5.955   6.083  0.5837  0.7518  1.0095
 2849TIP3    H230111   4.153   5.897   6.105  0.4461  0.5284 -0.3751
 2850TIP3   OH230112   1.903   1.822   1.487  0.1900 -0.0347  0.6331
 2850TIP3    H130113   1.978   1.825   1.546 -0.8279  0.6062  1.9382
 2850TIP3    H230114   1.828   1.843   1.542 -1.3585 -3.2541  0.0015
 2851TIP3   OH230115   6.766   0.081   0.411  0.0544 -0.1452 -0.2670
 2851TIP3    H130116   6.731   0.122   0.490  0.1762 -0.8092  0.1414
 2851TIP3    H230117   6.781   0.153   0.350  1.3041  0.5461  0.8137
 2852TIP3   OH230118   5.594   0.255   0.097  0.1310 -0.6019  0.0552
 2852TIP3    H130119   5.573   0.300   0.015 -0.4246 -0.5440  0.2275
 2852TIP3    H230120   5.569   0.164   0.080  2.1335 -1.0853 -0.6319
 2853TIP3   OH230121   6.462   2.885   1.094  0.5821  0.0056  0.0072
 2853TIP3    H130122   6.407   2.962   1.078  0.0057 -0.3326  0.3168
 2853TIP3    H230123   6.436   2.822   1.025  1.1574  0.1372 -0.3377
 2854TIP3   OH230124   1.440   1.572   0.502 -0.0207  0.3642 -0.4117
 2854TIP3    H130125   1.469   1.481   0.506  0.1110  0.4592  1.7173
 2854TIP3    H230126   1.360   1.569   0.450 -0.5969 -1.1584  0.4804
 2855TIP3   OH230127   0.804   5.682   6.805 -0.4404  0.3489  0.3364
 2855TIP3    H130128   0.740   5.618   6.834 -1.5357  0.0141 -2.5188
 2855TIP3    H230129   0.766   5.767   6.828 -0.0506  0.0841  2.0816
 2856TIP3   OH230130   5.192   2.965   1.184  0.2904  0.0773  0.4018
 2856TIP3    H130131   5.136   2.893   1.212 -1.4081  1.4984  0.8440
 2856TIP3    H230132   5.237   2.932   1.106  0.7074 -1.9403  1.4464
 2857TIP3   OH230133   6.094   5.023   1.083 -0.8543 -0.6003 -0.0945
 2857TIP3    H130134   6.119   4.941   1.040 -2.3058 -1.1650  0.0831
 2857TIP3    H230135   6.082   4.999   1.174 -0.7700 -0.0641  0.0599
 2858TIP3   OH230136   4.093   5.466   0.714 -0.4322 -0.0921 -0.1873
 2858TIP3    H130137   4.109   5.410   0.638 -1.9307  0.0659 -0.6543
 2858TIP3    H230138   4.147   5.543   0.699 -2.4039  0.9973 -2.3359
 2859TIP3   OH230139   4.822   1.284   6.661 -0.0726 -0.6918 -0.1048
 2859TIP3    H130140   4.752   1.336   6.623  1.7019  2.3458  0.4440
 2859TIP3    H230141   4.880   1.264   6.587  0.4680  0.2802  0.0356
 2860TIP3   OH230142   5.673   3.616   6.930  0.1056  0.8563 -0.5636
 2860TIP3    H130143   5.618   3.638   7.005  0.5017  1.4303 -0.4323
 2860TIP3    H230144   5.761   3.606   6.967  0.0284 -0.4727 -0.7036
 2861TIP3   OH230145   5.977   3.077   0.455  0.1150  0.1691  0.4155
 2861TIP3    H130146   5.989   3.169   0.480  1.2643 -0.3498  1.9221
 2861TIP3    H230147   5.913   3.080   0.384  0.2701  2.1488  0.2877
 2862TIP3   OH230148   4.400   0.239   8.022 -0.2451 -0.0056 -0.7715
 2862TIP3    H130149   4.330   0.188   8.062 -0.3874  0.6479 -0.1863
 2862TIP3    H230150   4.376   0.330   8.036  0.7895  0.2303 -0.4338
 2863TIP3   OH230151   0.157   0.575   0.116 -0.1228 -0.2282 -0.5688
 2863TIP3    H130152   0.120   0.492   0.086 -0.5198 -0.2020 -0.1617
 2863TIP3    H230153   0.244   0.552   0.148 -0.2851 -0.5130 -0.3278
 2864TIP3   OH230154   3.416   0.150   6.393 -0.0655 -0.2487 -0.1294
 2864TIP3    H130155   3.487   0.139   6.455 -0.1715 -2.2659 -0.3177
 2864TIP3    H230156   3.457   0.190   6.316  0.3989  0.6307  0.5534
 2865TIP3   OH230157   6.617   2.746   0.288  0.4551 -0.5436  0.5524
 2865TIP3    H130158   6.606   2.652   0.279  1.0248 -0.4344 -1.8064
 2865TIP3    H230159   6.706   2.763   0.258  0.6274  0.6947  1.6434
 2866TIP3   OH230160   6.462   4.671   6.657 -0.1455  0.2147 -0.2397
 2866TIP3    H130161   6.458   4.576   6.667 -1.2451  0.1682 -0.9787
 2866TIP3    H230162   6.470   4.704   6.747 -0.8119 -0.5255  0.1044
 2867TIP3   OH230163   1.239   0.941   6.153  0.2947  0.2020 -0.3109
 2867TIP3    H130164   1.224   1.018   6.207  0.0659  1.5968 -2.2611
 2867TIP3    H230165   1.153   0.900   6.142  0.3009  0.0668  0.1542
 2868TIP3   OH230166   1.235   3.603   0.832 -0.9269 -0.5442  0.4835
 2868TIP3    H130167   1.182   3.671   0.792 -0.2212  0.2942  0.9313
 2868TIP3    H230168   1.303   3.584   0.767 -0.1708  0.3472  0.9916
 2869TIP3   OH230169   5.409   2.995   1.380 -0.1327  0.2061 -0.1377
 2869TIP3    H130170   5.339   2.992   1.315 -0.6379 -0.8457  0.4343
 2869TIP3    H230171   5.370   2.958   1.459  1.7567 -2.7576 -0.4649
 2870TIP3   OH230172   3.094   0.417   0.916 -0.3202  0.4485 -0.3211
 2870TIP3    H130173   3.098   0.511   0.937  0.4315 -0.1883  2.8293
 2870TIP3    H230174   3.014   0.387   0.959 -1.3929 -0.1486 -2.5974
 2871TIP3   OH230175   1.565   6.214   0.206 -0.0976 -0.2540 -0.3850
 2871TIP3    H130176   1.472   6.213   0.228 -0.1467 -1.7143 -0.6099
 2871TIP3    H230177   1.575   6.290   0.148 -0.5345  1.7730  2.0498
 2872TIP3   OH230178   1.548   2.151   7.745  0.2479 -0.5937  0.2466
 2872TIP3    H130179   1.589   2.067   7.768  0.9096 -0.4396 -0.3322
 2872TIP3    H230180   1.544   2.151   7.650  1.0244  0.3772  0.1938
 2873TIP3   OH230181   4.310   0.787   6.039  0.2458  0.2625 -0.3142
 2873TIP3    H130182   4.253   0.864   6.045  0.6617  0.6696 -1.3104
 2873TIP3    H230183   4.260   0.717   6.079 -0.3771  0.9285  0.0999
 2874TIP3   OH230184   4.502   2.398   1.961  0.1394 -0.0650  0.0875
 2874TIP3    H130185   4.523   2.478   2.008  0.4849  1.1492 -1.9913
 2874TIP3    H230186   4.582   2.346   1.964  1.6493  1.8603 -2.6019
 2875TIP3   OH230187   3.212   5.820   7.345 -0.2591 -0.7493 -0.4176
 2875TIP3    H130188   3.132   5.826   7.294  0.3031 -1.2973 -1.3962
 2875TIP3    H230189   3.230   5.910   7.373 -0.1495 -0.2896 -1.8861
 2876TIP3   OH230190   4.464   2.834   6.499 -1.0161 -0.3689  0.3145
 2876TIP3    H130191   4.452   2.808   6.590 -1.3555  0.6408  0.5738
 2876TIP3    H230192   4.400   2.904   6.485 -0.2685  0.1973 -0.3908
 2877TIP3   OH230193   0.769   0.978   6.122 -0.0029 -0.3601 -0.5214
 2877TIP3    H130194   0.782   1.068   6.091 -0.8554  0.2666  0.8263
 2877TIP3    H230195   0.675   0.965   6.116  0.1135 -1.1732 -0.6634
 2878TIP3   OH230196   4.010   5.411   0.979  0.2916 -0.0510 -0.0378
 2878TIP3    H130197   4.030   5.419   0.886  0.8351 -1.3036 -0.0513
 2878TIP3    H230198   3.914   5.416   0.983  0.1620 -1.4166 -0.8479
 2879TIP3   OH230199   2.708   6.634   0.607 -0.2540 -0.0475 -0.0332
 2879TIP3    H130200   2.646   6.675   0.547 -3.0204 -0.7808  2.1163
 2879TIP3    H230201   2.757   6.572   0.553 -1.5689  0.3855 -1.7940
 2880TIP3   OH230202   3.870   6.481   8.398 -0.5582 -0.3400 -0.4297
 2880TIP3    H130203   3.796   6.478   8.337 -2.5132 -1.0299  1.8243
 2880TIP3    H230204   3.880   6.391   8.428  0.0220  0.0626  0.6340
 2881TIP3   OH230205   2.200   0.097   1.603  0.1141 -0.5001  0.7050
 2881TIP3    H130206   2.154   0.119   1.522  2.5739  0.5201 -0.5145
 2881TIP3    H230207   2.178   0.168   1.664  0.5607  0.3075 -0.0655
 2882TIP3   OH230208   2.066   1.936   7.922 -0.3237  0.0013  0.4821
 2882TIP3    H130209   2.066   1.998   7.849  0.1910 -0.9795 -0.3857
 2882TIP3    H230210   2.114   1.981   7.991  0.1806  0.5275 -0.1894
 2883TIP3   OH230211   3.310   0.243   5.793  0.3575 -0.1648  0.4824
 2883TIP3    H130212   3.366   0.310   5.753  0.5716 -1.5089 -1.6356
 2883TIP3    H230213   3.359   0.215   5.871  0.9120  1.1271  0.6379
 2884TIP3   OH230214   6.664   0.778   7.215  0.4951 -0.3993  0.1949
 2884TIP3    H130215   6.653   0.873   7.219  0.1929 -0.4213 -0.1006
 2884TIP3    H230216   6.746   0.762   7.263  1.3166  0.1459 -0.9826
 2885TIP3   OH230217   2.241   1.896   0.613  0.0719 -0.0695 -0.0679
 2885TIP3    H130218   2.220   1.932   0.526  1.1383  0.4571 -0.1178
 2885TIP3    H230219   2.158   1.897   0.660 -0.0447  2.0703 -0.2215
 2886TIP3   OH230220   1.900   3.759   6.557 -0.0928 -0.2015 -0.3272
 2886TIP3    H130221   1.821   3.766   6.610 -0.5177  0.7429 -1.0571
 2886TIP3    H230222   1.940   3.677   6.584 -0.2144  0.3256  1.5645
 2887TIP3   OH230223   4.822   5.615   8.186  0.2091  0.2417  0.1925
 2887TIP3    H130224   4.731   5.623   8.215  0.2360  0.3004  0.2598
 2887TIP3    H230225   4.858   5.703   8.194  0.5065  0.0643  0.9710
 2888TIP3   OH230226   2.337   5.137   8.170 -0.1751 -0.4019  0.5506
 2888TIP3    H130227   2.249   5.170   8.151  0.8150  1.9898 -0.1849
 2888TIP3    H230228   2.356   5.171   8.258  0.0431 -0.8557  0.6804
 2889TIP3   OH230229   1.568   3.223   7.651 -0.2220 -0.3374  0.0285
 2889TIP3    H130230   1.611   3.271   7.722 -0.4899  0.4243 -0.3092
 2889TIP3    H230231   1.604   3.135   7.656 -1.8983 -0.9976  2.6061
 2890TIP3   OH230232   4.782   1.745   8.287 -0.0130 -0.5681 -0.8112
 2890TIP3    H130233   4.844   1.813   8.262  0.1205 -0.6890 -0.8122
 2890TIP3    H230234   4.766   1.760   8.380 -0.9362  0.2224 -1.0805
 2891TIP3   OH230235   0.271   4.710   2.742 -0.0080  0.4624 -0.2137
 2891TIP3    H130236   0.226   4.688   2.660  1.5399  0.0654 -0.9822
 2891TIP3    H230237   0.343   4.767   2.716 -0.7000  2.0517  1.1321
 2892TIP3   OH230238   2.694   6.348   1.766 -0.2568  0.1436 -0.1255
 2892TIP3    H130239   2.788   6.364   1.780 -0.3898 -0.0682  1.1431
 2892TIP3    H230240   2.679   6.262   1.805 -1.1189  0.4865  0.3182
 2893TIP3   OH230241   2.710   1.670   0.633  0.1131  0.0367  0.2621
 2893TIP3    H130242   2.722   1.762   0.612  1.2960 -0.5184 -1.8337
 2893TIP3    H230243   2.625   1.647   0.596 -0.9695  0.5922  2.2323
 2894TIP3   OH230244   4.284   5.323   1.981 -0.0423 -0.2413 -0.0696
 2894TIP3    H130245   4.296   5.385   2.053 -0.5841 -1.5780  1.2289
 2894TIP3    H230246   4.226   5.256   2.017  1.1943 -1.9548 -1.1478
 2895TIP3   OH230247   1.401   4.610   2.043  0.1064  0.3535  0.1036
 2895TIP3    H130248   1.447   4.630   1.961  1.5500  0.1868  0.8394
 2895TIP3    H230249   1.426   4.681   2.102 -1.1978  0.6582  0.3134
 2896TIP3   OH230250   0.945   1.830   8.194  0.1413  0.3325  0.2903
 2896TIP3    H130251   1.014   1.874   8.144 -1.2348  0.9968 -1.1275
 2896TIP3    H230252   0.972   1.739   8.198  1.9344  0.8650  1.3032
 2897TIP3   OH230253   0.401   0.797   5.973  0.3424  0.0109  0.0247
 2897TIP3    H130254   0.474   0.854   5.995  0.7875 -0.9104  1.0581
 2897TIP3    H230255   0.440   0.709   5.967 -0.7136 -0.5352  0.8363
 2898TIP3   OH230256   1.145   3.821   8.165  0.0701  0.0728  0.1668
 2898TIP3    H130257   1.137   3.848   8.074 -0.6914 -1.0041 -0.1042
 2898TIP3    H230258   1.127   3.901   8.215 -0.1565  0.5259 -0.6139
 2899TIP3   OH230259   6.665   1.214   0.530 -0.0822  0.0665 -0.0427
 2899TIP3    H130260   6.634   1.124   0.545  1.4849 -0.6137 -0.6418
 2899TIP3    H230261   6.661   1.225   0.435 -2.2517  1.4240  0.1503
 2900TIP3   OH230262   6.971   3.697   7.143 -0.2025 -0.1600  0.1334
 2900TIP3    H130263   6.948   3.623   7.087 -1.2657  0.3022 -0.0819
 2900TIP3    H230264   7.037   3.662   7.203  0.5723 -0.7985 -1.0658
 2901TIP3   OH230265   3.100   0.331   8.393  0.5896 -0.3146  0.0032
 2901TIP3    H130266   3.075   0.414   8.354 -0.1170 -0.4700  0.1230
 2901TIP3    H230267   3.126   0.276   8.318 -0.3713 -0.4754 -0.2283
 2902TIP3   OH230268   3.322   6.308   8.137  0.5904 -0.6051 -0.6286
 2902TIP3    H130269   3.228   6.321   8.151  0.3993 -1.9248 -0.4685
 2902TIP3    H230270   3.328   6.218   8.104  1.9380 -1.2499  1.2037
 2903TIP3   OH230271   4.968   1.581   1.180 -0.1602 -0.0408  0.4116
 2903TIP3    H130272   5.017   1.504   1.208  0.5247  0.4330  0.5368
 2903TIP3    H230273   4.967   1.639   1.256 -1.4396 -0.2880  0.6090
 2904TIP3   OH230274   3.645   4.345   0.405  0.3410  0.3578 -0.3373
 2904TIP3    H130275   3.672   4.437   0.414  1.4003 -0.0979  1.6871
 2904TIP3    H230276   3.578   4.333   0.473  1.7270 -0.8523  0.8888
 2905TIP3   OH230277   2.790   2.875   0.246  0.0599 -0.1445 -0.7683
 2905TIP3    H130278   2.773   2.945   0.310 -1.1549 -0.2346 -0.9752
 2905TIP3    H230279   2.791   2.920   0.161  1.1396 -0.1086 -0.7507
 2906TIP3   OH230280   5.374   3.905   1.880  0.4552  0.0351 -0.0909
 2906TIP3    H130281   5.286   3.877   1.856  0.8823 -0.0786 -1.6092
 2906TIP3    H230282   5.403   3.839   1.943  0.5995 -1.7434 -1.9223
 2907TIP3   OH230283   0.091   2.786   7.331 -0.0116 -0.0342 -0.8760
 2907TIP3    H130284   0.125   2.796   7.420  2.2569  0.3991 -1.7153
 2907TIP3    H230285   0.074   2.692   7.323 -2.5807  0.1881  0.7211
 2908TIP3   OH230286   4.773   4.048   0.378 -0.4094 -0.3380 -0.2108
 2908TIP3    H130287   4.806   4.120   0.325  2.5003 -0.8794  0.6504
 2908TIP3    H230288   4.688   4.027   0.341  0.7569  0.3456 -3.6243
 2909TIP3   OH230289   1.270   3.185   1.287 -0.1545  0.1953  0.4213
 2909TIP3    H130290   1.315   3.120   1.340  0.1555  0.6454  0.7271
 2909TIP3    H230291   1.178   3.176   1.310  0.0067  0.5719  1.2547
 2910TIP3   OH230292   4.681   4.206   7.291 -0.0431  0.0030  0.0443
 2910TIP3    H130293   4.699   4.119   7.255 -0.5668 -0.7949  1.5739
 2910TIP3    H230294   4.707   4.198   7.383  0.6673  1.7357  0.0113
 2911TIP3   OH230295   3.968   4.461   1.516  0.0907  0.0443 -0.6062
 2911TIP3    H130296   3.946   4.522   1.445  0.7325  2.3519  1.0788
 2911TIP3    H230297   3.916   4.383   1.496 -2.3919  1.8399 -1.8078
 2912TIP3   OH230298   3.999   0.421   8.075 -0.8494 -0.3076 -0.4662
 2912TIP3    H130299   3.943   0.493   8.044  0.2787  0.6560 -0.3374
 2912TIP3    H230300   4.088   0.455   8.066 -0.3879 -0.7277  2.0106
 2913TIP3   OH230301   1.367   0.359   1.901 -0.0032  0.1522  0.1818
 2913TIP3    H130302   1.281   0.318   1.888  0.0820  0.3737 -1.3382
 2913TIP3    H230303   1.417   0.295   1.950 -0.5355 -0.6970 -0.3536
 2914TIP3   OH230304   5.248   0.738   6.005  0.2645 -0.4573  0.8358
 2914TIP3    H130305   5.329   0.786   5.989 -0.2352 -0.4538 -2.1828
 2914TIP3    H230306   5.179   0.805   6.003 -0.2044 -0.9450 -1.0799
 2915TIP3   OH230307   6.732   5.128   0.482  0.1265 -0.2979 -0.1107
 2915TIP3    H130308   6.668   5.057   0.494 -1.4330  0.9856 -0.4708
 2915TIP3    H230309   6.702   5.173   0.403  2.5606 -0.7140 -1.3695
 2916TIP3   OH230310   2.191   0.651   0.927  0.5142  0.6038  0.5632
 2916TIP3    H130311   2.198   0.739   0.964 -1.8958  1.0753  0.0914
 2916TIP3    H230312   2.130   0.605   0.986  0.8346 -0.3634  0.1546
 2917TIP3   OH230313   5.131   3.756   8.020  0.5431 -0.2785 -0.2388
 2917TIP3    H130314   5.200   3.805   7.976 -0.0151  0.7173 -0.0385
 2917TIP3    H230315   5.177   3.684   8.064  1.6382  1.0987  0.9659
 2918TIP3   OH230316   6.353   0.320   7.271  0.2224  0.7506  0.2400
 2918TIP3    H130317   6.405   0.385   7.224  1.2804  0.5397  1.1040
 2918TIP3    H230318   6.337   0.359   7.357  0.0042  0.2883  0.4150
 2919TIP3   OH230319   4.695   4.522   1.713 -0.1006  0.2202  0.1648
 2919TIP3    H130320   4.718   4.484   1.628 -1.7561  0.0132 -0.2264
 2919TIP3    H230321   4.772   4.572   1.738  0.4807  0.1799 -1.3969
 2920TIP3   OH230322   6.051   0.540   6.586  0.3505 -0.4538  0.2614
 2920TIP3    H130323   6.056   0.445   6.579  0.5952 -0.5296  1.2994
 2920TIP3    H230324   6.038   0.570   6.496  1.3476 -1.3933 -0.2214
 2921TIP3   OH230325   6.967   5.448   1.093  0.0717 -0.2245  0.1758
 2921TIP3    H130326   6.914   5.507   1.147 -0.3990 -0.3504 -0.1401
 2921TIP3    H230327   7.010   5.506   1.030 -0.7904 -0.2572 -0.4629
 2922TIP3   OH230328   3.758   5.349   7.252 -0.2800 -0.0385  0.0453
 2922TIP3    H130329   3.797   5.262   7.258 -0.7740 -0.3592 -0.9885
 2922TIP3    H230330   3.666   5.332   7.231 -0.2410  0.7273 -0.8448
 2923TIP3   OH230331   1.266   3.953   7.515 -0.4084  0.1723  0.1729
 2923TIP3    H130332   1.205   3.893   7.472  1.3547 -1.0490 -0.7659
 2923TIP3    H230333   1.222   4.038   7.512 -2.7924 -0.9163  1.1290
 2924TIP3   OH230334   5.558   0.615   8.305 -0.2176 -0.3349  0.1332
 2924TIP3    H130335   5.517   0.529   8.295 -1.3183  0.1421  0.3942
 2924TIP3    H230336   5.651   0.596   8.320 -0.3630 -1.4492 -0.3039
 2925TIP3   OH230337   6.956   0.750   0.732 -0.2815 -0.5714  0.1515
 2925TIP3    H130338   6.866   0.721   0.748  0.1934 -1.8517  0.7079
 2925TIP3    H230339   6.950   0.809   0.657 -1.6217 -0.3855  0.3805
 2926TIP3   OH230340   5.489   2.546   2.072 -0.0306 -0.1677 -0.3804
 2926TIP3    H130341   5.486   2.639   2.094  2.3426 -0.3168  0.8024
 2926TIP3    H230342   5.494   2.544   1.977 -1.5840  0.8056 -0.5282
 2927TIP3   OH230343   6.126   3.190   1.703 -0.1730  0.5863 -0.2992
 2927TIP3    H130344   6.217   3.199   1.732 -0.2800 -0.7248  0.5289
 2927TIP3    H230345   6.084   3.137   1.772 -2.0708  2.7673  0.3547
 2928TIP3   OH230346   6.277   3.046   0.974 -0.5855 -0.3482 -0.1026
 2928TIP3    H130347   6.251   2.972   0.921 -1.3500 -0.8357  0.9125
 2928TIP3    H230348   6.195   3.079   1.011 -0.1727  0.5331  0.0503
 2929TIP3   OH230349   4.411   3.620   0.940 -0.3984  0.8786 -0.7832
 2929TIP3    H130350   4.480   3.557   0.916 -1.9933 -1.4100  0.2443
 2929TIP3    H230351   4.435   3.650   1.027  0.3549  1.7578 -1.2661
 2930TIP3   OH230352   2.433   1.219   0.505 -0.0253  0.1401  0.0126
 2930TIP3    H130353   2.519   1.215   0.547  0.6080  2.3069 -0.9378
 2930TIP3    H230354   2.371   1.195   0.574  1.2858 -0.9098  0.8632
 2931TIP3   OH230355   0.656   5.767   0.253  0.0521 -0.1065  0.4977
 2931TIP3    H130356   0.684   5.853   0.282 -0.4143  0.2556 -0.0929
 2931TIP3    H230357   0.567   5.781   0.219  0.2453 -0.6730 -0.2722
 2932TIP3   OH230358   0.958   5.908   7.097 -0.3248  0.2705  0.3793
 2932TIP3    H130359   1.047   5.937   7.119 -0.0092  0.9683 -1.6471
 2932TIP3    H230360   0.926   5.972   7.034 -1.6548 -0.8601 -0.1612
 2933TIP3   OH230361   4.133   1.883   1.582  0.0381 -0.0205 -0.7450
 2933TIP3    H130362   4.153   1.870   1.674  0.2241  1.1913 -0.5973
 2933TIP3    H230363   4.205   1.936   1.548 -1.5216  2.2038 -0.8192
 2934TIP3   OH230364   6.861   2.529   1.770 -0.7989 -0.0297 -0.0433
 2934TIP3    H130365   6.808   2.519   1.849 -0.7473 -0.3692 -0.0470
 2934TIP3    H230366   6.809   2.583   1.711 -1.3632 -0.7685 -0.2397
 2935TIP3   OH230367   4.236   6.789   8.182  0.1888  0.4024  0.3596
 2935TIP3    H130368   4.254   6.748   8.266  1.4727 -0.5261 -0.3430
 2935TIP3    H230369   4.144   6.769   8.165 -0.1777  0.8770  1.6741
 2936TIP3   OH230370   0.182   4.075   0.987  0.3468  0.5838 -0.0687
 2936TIP3    H130371   0.173   3.979   0.989  3.1369  0.1967 -1.3478
 2936TIP3    H230372   0.217   4.097   1.074 -1.8889  0.7311  0.8558
 2937TIP3   OH230373   1.190   1.505   0.833 -0.3260  0.3622  0.0864
 2937TIP3    H130374   1.101   1.517   0.865 -0.1794  0.8010  0.3277
 2937TIP3    H230375   1.237   1.466   0.907 -0.0473  1.1518  0.3309
 2938TIP3   OH230376   0.188   0.922   1.695  0.2466 -0.2701  0.4159
 2938TIP3    H130377   0.124   0.993   1.706  0.1428 -0.6275  2.3632
 2938TIP3    H230378   0.162   0.856   1.758  1.3586 -1.3167 -0.1897
 2939TIP3   OH230379   4.832   3.519   6.868 -0.1481  0.0038  0.0384
 2939TIP3    H130380   4.810   3.430   6.840 -2.4850  0.9606 -1.4886
 2939TIP3    H230381   4.877   3.557   6.793  0.5017  0.2634  0.5468
 2940TIP3   OH230382   4.552   6.844   1.285  0.6178 -0.0067 -0.1015
 2940TIP3    H130383   4.643   6.821   1.264  0.8780  0.8768 -0.0157
 2940TIP3    H230384   4.533   6.917   1.226 -0.0403 -0.1884 -0.1133
 2941TIP3   OH230385   0.154   3.955   7.258  0.6895  0.3109  0.0350
 2941TIP3    H130386   0.141   3.863   7.238 -0.7722  0.6076 -0.4959
 2941TIP3    H230387   0.161   3.958   7.354 -1.2570 -0.1511  0.2256
 2942TIP3   OH230388   6.735   3.073   6.844  0.3070  0.1049  0.2465
 2942TIP3    H130389   6.713   3.111   6.929 -0.2518 -0.7712  0.5177
 2942TIP3    H230390   6.798   3.133   6.805 -1.8988  2.2946 -0.1818
 2943TIP3   OH230391   4.519   3.393   6.694 -0.7146 -0.8465 -0.0977
 2943TIP3    H130392   4.607   3.365   6.718 -0.4318  0.0626 -0.0076
 2943TIP3    H230393   4.518   3.387   6.598 -0.0156  0.5592 -0.2293
 2944TIP3   OH230394   3.925   5.963   6.704 -0.3031  0.1108 -0.2485
 2944TIP3    H130395   3.886   5.923   6.626  0.5597  2.0764 -1.7858
 2944TIP3    H230396   3.988   6.026   6.669 -0.7449  1.9394  2.0170
 2945TIP3   OH230397   4.562   3.454   0.440 -0.2643 -0.3194 -0.2718
 2945TIP3    H130398   4.527   3.402   0.513  3.9917 -2.5575  0.5059
 2945TIP3    H230399   4.571   3.542   0.475 -0.6228 -0.7924  1.0684
 2946TIP3   OH230400   1.363   1.160   0.383  0.1744 -0.0114 -0.6042
 2946TIP3    H130401   1.340   1.068   0.392 -1.5332  0.3917 -0.3091
 2946TIP3    H230402   1.304   1.193   0.315  0.0573  1.0619 -0.0123
 2947TIP3   OH230403   6.975   5.974   0.909  0.3861 -0.8031  0.3977
 2947TIP3    H130404   6.893   6.019   0.931 -0.5738 -3.0561  1.8124
 2947TIP3    H230405   7.038   6.045   0.893 -1.3923  1.0001  0.9961
 2948TIP3   OH230406   1.168   2.967   0.575 -0.5701 -0.6366 -1.0091
 2948TIP3    H130407   1.161   2.909   0.650  0.3487  0.2626 -0.1982
 2948TIP3    H230408   1.097   3.031   0.587  0.9034  0.8428  0.3453
 2949TIP3   OH230409   6.645   4.947   7.533 -0.2196 -0.1027  0.1754
 2949TIP3    H130410   6.563   4.966   7.579 -0.2495  0.4163 -0.0778
 2949TIP3    H230411   6.652   4.852   7.533 -2.5267 -0.4108 -2.6541
 2950TIP3   OH230412   5.944   0.496   1.172  0.3992  0.3617  0.2180
 2950TIP3    H130413   6.014   0.480   1.108  0.8082  0.7463  0.5666
 2950TIP3    H230414   5.939   0.415   1.223 -0.7273 -0.4131 -1.0291
 2951TIP3   OH230415   1.162   2.886   6.491 -0.3430 -0.1375 -0.7452
 2951TIP3    H130416   1.191   2.867   6.402  0.7893 -1.4252 -0.1463
 2951TIP3    H230417   1.079   2.839   6.499  0.5925 -1.8692 -0.4951
 2952TIP3   OH230418   6.817   0.174   2.249 -0.1819 -0.2156  0.0542
 2952TIP3    H130419   6.858   0.136   2.172 -0.6641 -1.2498  0.2832
 2952TIP3    H230420   6.855   0.126   2.323 -0.3551  0.1722  0.4051
 2953TIP3   OH230421   6.766   1.079   6.517  0.0752  0.4167  0.1125
 2953TIP3    H130422   6.791   1.098   6.607  1.1799  0.7159 -0.2511
 2953TIP3    H230423   6.789   0.987   6.505 -0.3747  0.2832  0.2204
 2954TIP3   OH230424   5.179   1.906   8.013 -0.3545 -0.5079  0.5078
 2954TIP3    H130425   5.231   1.826   8.008  0.3588  0.0032 -2.9815
 2954TIP3    H230426   5.239   1.971   8.051  0.6049 -0.6478 -0.7019
 2955TIP3   OH230427   5.889   2.156   6.348  0.3041  0.4776 -0.1831
 2955TIP3    H130428   5.957   2.219   6.325  0.8433 -0.2129 -0.4599
 2955TIP3    H230429   5.838   2.145   6.268 -0.7269  1.6995  0.2614
 2956TIP3   OH230430   6.107   6.286   7.245 -0.7349 -0.1035  0.4026
 2956TIP3    H130431   6.124   6.326   7.160 -1.5943 -0.7671 -0.0843
 2956TIP3    H230432   6.069   6.357   7.297 -1.2278  0.0093 -0.1066
 2957TIP3   OH230433   3.925   6.196   7.968  0.0494 -0.1141  0.3218
 2957TIP3    H130434   3.831   6.178   7.974  0.2299 -1.1212  0.4111
 2957TIP3    H230435   3.962   6.114   7.933  0.8276  0.4593 -0.2275
 2958TIP3   OH230436   4.993   6.793   6.830 -0.0363 -0.7690 -0.8840
 2958TIP3    H130437   4.926   6.743   6.783 -0.8333  3.0433 -4.3989
 2958TIP3    H230438   4.947   6.871   6.862  2.0849  0.4741 -0.6577
 2959TIP3   OH230439   6.695   5.397   7.362 -0.3415 -0.7684  0.0343
 2959TIP3    H130440   6.604   5.416   7.337 -0.8250 -0.9524  1.5380
 2959TIP3    H230441   6.687   5.343   7.441  1.0808  0.2492  0.9190
 2960TIP3   OH230442   5.774   1.953   1.644  0.1437  0.3860 -0.0103
 2960TIP3    H130443   5.858   1.999   1.638 -1.1142  2.6913 -2.4553
 2960TIP3    H230444   5.781   1.883   1.579  0.0339  0.8442 -0.5196
 2961TIP3   OH230445   5.609   6.755   6.486 -0.2109 -0.0168 -0.5138
 2961TIP3    H130446   5.672   6.727   6.419 -0.5380  1.8634 -1.6601
 2961TIP3    H230447   5.559   6.826   6.445 -2.1757 -0.5201  0.8403
 2962TIP3   OH230448   0.141   1.433   2.021 -0.1362  0.2098 -0.5115
 2962TIP3    H130449   0.171   1.401   1.936  1.2269  0.9894 -0.3504
 2962TIP3    H230450   0.192   1.512   2.036  0.1919 -0.3181  1.3774
 2963TIP3   OH230451   1.669   4.768   6.699 -0.4081  0.0983 -0.5583
 2963TIP3    H130452   1.650   4.730   6.785 -2.1179  0.6987 -0.6295
 2963TIP3    H230453   1.679   4.693   6.641  0.1091 -0.3001  0.0337
 2964TIP3   OH230454   1.537   1.986   6.605  0.6609  0.1259 -0.4825
 2964TIP3    H130455   1.500   2.074   6.601 -1.2158 -0.6425 -0.8446
 2964TIP3    H230456   1.614   1.990   6.548 -0.5460  1.0264 -2.1428
 2965TIP3   OH230457   5.628   6.962   1.590  0.1667 -0.5472  0.0989
 2965TIP3    H130458   5.566   6.960   1.517  0.3902  0.0387 -0.1061
 2965TIP3    H230459   5.572   6.970   1.668  0.0121  1.2945 -0.1596
 2966TIP3   OH230460   0.863   6.390   1.504 -0.2760  0.2227 -0.0880
 2966TIP3    H130461   0.818   6.332   1.443 -0.8229  0.6486 -0.0924
 2966TIP3    H230462   0.880   6.470   1.454 -2.1798  1.2166  0.7505
 2967TIP3   OH230463   5.468   0.095   0.463 -0.2406 -0.3347 -0.3671
 2967TIP3    H130464   5.382   0.111   0.423 -0.1224 -0.2965 -0.6069
 2967TIP3    H230465   5.449   0.086   0.556 -0.7068 -1.7907 -0.5777
 2968TIP3   OH230466   2.477   1.841   7.048  0.1437 -0.4033  0.2360
 2968TIP3    H130467   2.395   1.817   7.004  0.2263  2.7439 -1.9557
 2968TIP3    H230468   2.545   1.822   6.984  0.7277  0.4241  0.5989
 2969TIP3   OH230469   3.725   4.050   6.589 -0.2640 -0.5027 -0.1050
 2969TIP3    H130470   3.799   4.095   6.548 -0.3399  1.1286  1.4088
 2969TIP3    H230471   3.765   3.991   6.653 -0.1986 -2.0650 -1.5223
 2970TIP3   OH230472   3.029   6.072   7.314 -0.1338  0.3752 -0.7480
 2970TIP3    H130473   2.944   6.100   7.281 -0.4130  0.1745 -0.2198
 2970TIP3    H230474   3.055   6.141   7.375 -0.1069  0.2483 -0.6127
 2971TIP3   OH230475   6.306   2.450   8.138 -0.1786 -0.4063 -0.3061
 2971TIP3    H130476   6.355   2.460   8.219 -0.7879 -2.0298  0.3108
 2971TIP3    H230477   6.346   2.374   8.095 -0.4599 -0.1314 -1.0832
 2972TIP3   OH230478   5.676   2.106   0.758  0.2261  0.1951  0.2022
 2972TIP3    H130479   5.740   2.108   0.687 -0.7902 -0.1955 -0.7611
 2972TIP3    H230480   5.702   2.031   0.812 -0.1479 -0.7659 -0.9095
 2973TIP3   OH230481   6.924   4.599   7.325  0.4736 -0.5637 -0.6815
 2973TIP3    H130482   6.841   4.633   7.359  1.5518  1.9134 -0.2362
 2973TIP3    H230483   6.982   4.675   7.326  2.7656 -2.2129 -0.9526
 2974TIP3   OH230484   6.370   1.509   0.338 -0.2513 -0.2642  0.7308
 2974TIP3    H130485   6.433   1.439   0.320  0.9669  0.6701  1.2295
 2974TIP3    H230486   6.359   1.554   0.254  0.9549  0.5146  0.9716
 2975TIP3   OH230487   2.000   4.041   6.567  0.1104  0.3885 -0.2779
 2975TIP3    H130488   1.965   4.101   6.501 -2.3019 -0.0412  0.5079
 2975TIP3    H230489   1.937   3.970   6.570 -0.0266  0.5217  2.6553
 2976TIP3   OH230490   1.641   2.183   2.155  0.3717  0.0610 -0.7477
 2976TIP3    H130491   1.560   2.189   2.205  1.2569  1.5572  0.6058
 2976TIP3    H230492   1.643   2.093   2.124 -1.2082 -0.3512  0.2113
 2977TIP3   OH230493   6.941   4.118   2.330  0.2448  0.2704  0.3927
 2977TIP3    H130494   6.880   4.045   2.324 -0.4251  0.7723  0.8923
 2977TIP3    H230495   6.968   4.134   2.239 -0.9371  0.4941  0.0604
 2978TIP3   OH230496   0.720   0.159   1.620  0.4480 -0.5632 -0.6379
 2978TIP3    H130497   0.788   0.183   1.684  0.8804 -0.8165 -0.9983
 2978TIP3    H230498   0.642   0.145   1.673  0.2708  1.2273 -0.3675
 2979TIP3   OH230499   3.582   1.329   5.783  0.7279  0.5057 -0.2374
 2979TIP3    H130500   3.593   1.275   5.861  0.2833 -0.6416 -0.9360
 2979TIP3    H230501   3.576   1.418   5.816  0.5407  0.0412  1.0387
 2980TIP3   OH230502   2.517   4.720   1.082 -0.2211 -0.1636 -0.0055
 2980TIP3    H130503   2.535   4.626   1.091  1.3672  0.0759 -0.3199
 2980TIP3    H230504   2.423   4.728   1.098 -0.1034 -1.5717  1.7565
 2981TIP3   OH230505   3.226   1.632   0.259  0.2127 -0.2730 -0.0573
 2981TIP3    H130506   3.284   1.660   0.188  1.4852  1.1281  1.4521
 2981TIP3    H230507   3.248   1.689   0.332 -2.3161 -0.4554  0.9546
 2982TIP3   OH230508   5.040   0.568   1.286  0.4656  0.0456  0.1150
 2982TIP3    H130509   4.981   0.507   1.330  0.5649  0.0848  0.3036
 2982TIP3    H230510   5.126   0.549   1.324  0.5383  0.1274 -0.0117
 2983TIP3   OH230511   2.724   5.999   7.331  0.0071  0.4593  0.1451
 2983TIP3    H130512   2.688   5.918   7.365  1.7954 -0.1880  0.6019
 2983TIP3    H230513   2.763   5.975   7.247  0.6259  0.8044  0.3242
 2984TIP3   OH230514   3.673   4.659   7.774  0.0120 -0.0721 -0.4100
 2984TIP3    H130515   3.721   4.577   7.785  1.1788  0.4182 -1.5981
 2984TIP3    H230516   3.722   4.706   7.707 -0.6133  1.6201  0.2754
 2985TIP3   OH230517   6.393   3.419   8.394  0.2811 -0.4520 -0.1782
 2985TIP3    H130518   6.363   3.459   8.313  1.7847 -0.6116 -0.8454
 2985TIP3    H230519   6.431   3.491   8.445 -0.9531 -0.2914  0.5540
 2986TIP3   OH230520   3.499   3.502   0.539 -0.0415 -0.2125 -0.4851
 2986TIP3    H130521   3.496   3.426   0.481  0.3205  0.4432 -1.3960
 2986TIP3    H230522   3.551   3.566   0.491  3.2518 -0.7906  1.9656
 2987TIP3   OH230523   1.821   4.860   1.378 -0.3832 -0.5170  0.0303
 2987TIP3    H130524   1.772   4.780   1.357 -0.8225 -0.0317 -0.8997
 2987TIP3    H230525   1.880   4.873   1.303  3.2835 -2.5664  2.2956
 2988TIP3   OH230526   5.334   0.596   1.422  0.2678  0.2920 -0.6451
 2988TIP3    H130527   5.422   0.585   1.459 -0.5001  0.8149  1.4710
 2988TIP3    H230528   5.297   0.669   1.470 -2.1420 -1.3446  0.1618
 2989TIP3   OH230529   5.036   0.058   0.068 -0.0155 -0.4538  0.2609
 2989TIP3    H130530   4.960   0.044   0.011  0.2337  0.2217 -0.2522
 2989TIP3    H230531   5.112   0.036   0.014  0.1601 -1.2129  0.8012
 2990TIP3   OH230532   1.603   2.407   6.452 -0.1524 -0.4634  0.8889
 2990TIP3    H130533   1.540   2.347   6.493  1.2489 -3.8550 -1.4832
 2990TIP3    H230534   1.588   2.398   6.358  1.2034  1.7934  0.3706
 2991TIP3   OH230535   2.759   6.767   0.170  0.1527 -0.3803 -0.3263
 2991TIP3    H130536   2.831   6.721   0.127  1.2769 -1.0654  2.1460
 2991TIP3    H230537   2.768   6.858   0.140  0.4624 -0.9421 -2.0161
 2992TIP3   OH230538   6.949   5.185   1.367  0.5060 -0.4076  0.2016
 2992TIP3    H130539   7.027   5.178   1.312  1.2018  0.3749  1.0406
 2992TIP3    H230540   6.955   5.273   1.405 -1.9606  0.5449 -1.4084
 2993TIP3   OH230541   4.048   2.708   7.515  0.0953  0.2624 -0.0372
 2993TIP3    H130542   4.025   2.697   7.607  2.3640 -0.2756  0.5478
 2993TIP3    H230543   4.140   2.682   7.511 -0.4100 -1.5559 -2.8114
 2994TIP3   OH230544   4.608   6.496   0.762  0.3453  0.0732 -0.0479
 2994TIP3    H130545   4.668   6.487   0.836  0.0510  0.5389  0.2576
 2994TIP3    H230546   4.659   6.472   0.686  1.1118  1.0773  0.1288
 2995TIP3   OH230547   5.174   4.118   8.151 -1.2470  0.1166 -0.1903
 2995TIP3    H130548   5.221   4.149   8.074 -0.7555 -0.5650 -0.1733
 2995TIP3    H230549   5.161   4.024   8.135  1.7461 -0.8092  1.9645
 2996TIP3   OH230550   4.220   2.916   1.708 -0.8880  0.1207  0.1387
 2996TIP3    H130551   4.292   2.978   1.714  0.6506 -1.3789 -1.4306
 2996TIP3    H230552   4.168   2.930   1.787  0.0927  2.4917  0.4260
 2997TIP3   OH230553   2.384   6.679   6.630  0.7772 -0.7504 -0.1542
 2997TIP3    H130554   2.324   6.741   6.591  1.3158  0.0115  0.1994
 2997TIP3    H230555   2.431   6.640   6.556  1.7071  0.5917 -0.2972
 2998TIP3   OH230556   6.003   1.683   1.438 -0.1799 -0.0958 -0.1369
 2998TIP3    H130557   6.096   1.663   1.431  0.0816  0.6295  0.9875
 2998TIP3    H230558   5.993   1.770   1.399 -0.5835 -0.5820 -1.1728
 2999TIP3   OH230559   0.243   3.223   0.421 -0.8426 -0.0704  0.2977
 2999TIP3    H130560   0.314   3.227   0.356 -1.5788 -0.7621 -0.5798
 2999TIP3    H230561   0.164   3.219   0.368 -1.6215  1.5649  1.2597
 3000TIP3   OH230562   0.127   1.066   7.132 -0.3008 -0.2712 -0.6910
 3000TIP3    H130563   0.045   1.021   7.109  0.0074 -0.4167 -1.5526
 3000TIP3    H230564   0.106   1.117   7.210 -0.8933 -1.2353 -0.2120
 3001TIP3   OH230565   6.129   6.386   7.004 -0.7630  0.7268  0.0103
 3001TIP3    H130566   6.200   6.428   6.954 -0.3017 -0.5329 -0.4217
 3001TIP3    H230567   6.076   6.342   6.938 -0.7644 -0.0504  0.5211
 3002TIP3   OH230568   6.685   1.893   7.367  0.0375 -0.8414 -0.3717
 3002TIP3    H130569   6.695   1.954   7.440 -2.2718  0.7518 -1.2283
 3002TIP3    H230570   6.642   1.817   7.405 -1.5420  0.1490 -0.0665
 3003TIP3   OH230571   3.971   4.213   0.908  0.6001 -0.2170  0.2154
 3003TIP3    H130572   4.044   4.223   0.846  0.8145 -1.7812  0.1855
 3003TIP3    H230573   3.904   4.167   0.858 -0.4180  1.1413  0.2656
 3004TIP3   OH230574   6.651   6.397   8.399  0.4258  0.0618  0.5302
 3004TIP3    H130575   6.579   6.386   8.462 -0.2251 -0.4928 -0.2791
 3004TIP3    H230576   6.626   6.341   8.326  1.1139  0.7750 -0.2617
 3005TIP3   OH230577   3.692   5.922   0.009 -0.1911  0.6545  0.3656
 3005TIP3    H130578   3.653   6.009   0.015  0.4931  1.1234 -1.2576
 3005TIP3    H230579   3.770   5.934  -0.046 -0.9079 -1.1965 -1.2104
 3006TIP3   OH230580   2.847   1.577   7.495  0.4707 -0.0665  0.1374
 3006TIP3    H130581   2.907   1.532   7.554  1.1717  0.1139 -0.4199
 3006TIP3    H230582   2.805   1.644   7.549  0.3520 -0.5596  0.6672
 3007TIP3   OH230583   1.405   6.204   7.639 -0.2043  0.0472  0.1891
 3007TIP3    H130584   1.402   6.297   7.620 -0.4988  0.6221  2.6844
 3007TIP3    H230585   1.321   6.170   7.609 -1.0189  1.0486  1.2542
 3008TIP3   OH230586   5.321   1.238   6.387  0.3759  0.0814  0.4280
 3008TIP3    H130587   5.340   1.145   6.392  0.0230  0.0155  0.5728
 3008TIP3    H230588   5.368   1.268   6.309  1.4330  0.0198  1.0241
 3009TIP3   OH230589   6.008   2.466   0.876  0.1366  0.6088  0.5108
 3009TIP3    H130590   5.951   2.389   0.882  2.2619 -1.1837 -0.9334
 3009TIP3    H230591   6.019   2.495   0.967 -1.4797 -0.1423  0.9923
 3010TIP3   OH230592   4.862   2.760   7.305 -0.5326 -0.2909 -0.2371
 3010TIP3    H130593   4.800   2.690   7.288 -1.6268  0.6569 -0.2688
 3010TIP3    H230594   4.808   2.835   7.330  0.6988 -0.0792  2.0996
 3011TIP3   OH230595   5.609   2.512   1.806  0.3608  0.5368  0.0222
 3011TIP3    H130596   5.604   2.606   1.788  0.2810  0.7706  1.2181
 3011TIP3    H230597   5.700   2.489   1.789  0.1344  0.5678 -1.4052
 3012TIP3   OH230598   5.976   4.897   6.316 -0.0287 -0.3988 -0.1368
 3012TIP3    H130599   5.889   4.903   6.355 -0.7666 -0.9043 -1.6542
 3012TIP3    H230600   6.028   4.963   6.363 -1.3197  0.1587  0.5368
 3013TIP3   OH230601   3.783   2.232   1.483 -0.0227  1.1276  0.3114
 3013TIP3    H130602   3.772   2.245   1.388 -1.6107 -1.6152  0.0229
 3013TIP3    H230603   3.876   2.213   1.493  0.0081  0.5261 -0.8584
 3014TIP3   OH230604   4.440   4.216   7.538  0.0847  0.1378  0.5560
 3014TIP3    H130605   4.414   4.230   7.447  0.8813  1.6227  0.5312
 3014TIP3    H230606   4.429   4.301   7.580 -1.3866 -0.7928  2.1653
 3015TIP3   OH230607   5.616   4.563   0.082  0.0791 -0.4316 -0.1328
 3015TIP3    H130608   5.687   4.585   0.022 -0.7864  1.1146 -0.6512
 3015TIP3    H230609   5.650   4.583   0.169  0.6506 -0.7396 -0.2868
 3016TIP3   OH230610   6.073   0.656   7.831  0.5396  0.2304  0.3774
 3016TIP3    H130611   6.148   0.599   7.812  0.3321 -0.6050  1.9159
 3016TIP3    H230612   6.113   0.742   7.846  1.0313  0.1211 -0.2406
 3017TIP3   OH230613   3.540   5.928   7.436  0.5521 -0.1772  0.1706
 3017TIP3    H130614   3.576   5.889   7.357 -3.7026 -2.7622 -0.8092
 3017TIP3    H230615   3.562   5.866   7.506  0.8069  0.0051  0.2570
 3018TIP3   OH230616   5.867   4.176   2.080  0.2039 -0.0202  0.3699
 3018TIP3    H130617   5.880   4.271   2.076 -0.8219  0.1199 -0.0127
 3018TIP3    H230618   5.815   4.163   2.159  0.3435 -0.2597  0.4199
 3019TIP3   OH230619   3.244   6.709   0.058 -0.0916  0.4644 -0.2186
 3019TIP3    H130620   3.319   6.740   0.007  3.2894 -2.4850  2.3529
 3019TIP3    H230621   3.210   6.787   0.101  1.9505  1.8980 -1.0513
 3020TIP3   OH230622   1.488   6.264   0.673  0.0288 -0.0614 -0.0769
 3020TIP3    H130623   1.558   6.271   0.608 -0.1717 -0.8857 -0.4013
 3020TIP3    H230624   1.492   6.173   0.703  0.7519  0.5582  1.8242
 3021TIP3   OH230625   4.213   0.179   7.481 -0.6492  0.3938 -0.8588
 3021TIP3    H130626   4.296   0.180   7.433 -0.1039 -1.8493 -0.0953
 3021TIP3    H230627   4.149   0.148   7.417 -0.0080 -2.1436 -0.3757
 3022TIP3   OH230628   1.202   4.912   0.027 -0.8339 -0.4947  0.1806
 3022TIP3    H130629   1.145   4.988   0.018  0.0100  0.0066 -1.2768
 3022TIP3    H230630   1.282   4.947   0.067  0.1439 -0.2607 -1.8654
 3023TIP3   OH230631   0.760   1.534   6.222 -0.0282  0.3204  0.1506
 3023TIP3    H130632   0.778   1.615   6.176 -0.3957 -0.5558 -1.6104
 3023TIP3    H230633   0.780   1.465   6.159 -1.6226 -0.9004  0.8993
 3024TIP3   OH230634   0.419   3.816   1.532  0.3579 -0.1946  0.1342
 3024TIP3    H130635   0.355   3.869   1.484 -1.6092 -0.5267  2.2423
 3024TIP3    H230636   0.448   3.872   1.604  0.8421 -0.8047  0.4222
 3025TIP3   OH230637   4.091   4.949   1.374  0.4708 -0.0719  0.5373
 3025TIP3    H130638   4.022   4.953   1.440 -0.0820  0.8462 -0.0757
 3025TIP3    H230639   4.044   4.936   1.291  1.0964 -0.3418  0.2225
 3026TIP3   OH230640   0.379   2.722   6.663 -0.5965  0.4005 -0.1479
 3026TIP3    H130641   0.285   2.727   6.644 -0.1969  0.8113 -2.3105
 3026TIP3    H230642   0.397   2.629   6.674 -1.4186  0.3930  1.4975
 3027TIP3   OH230643   3.498   0.435   7.666  0.4666 -0.1650  0.0297
 3027TIP3    H130644   3.559   0.467   7.600  0.2900  1.0105  0.4038
 3027TIP3    H230645   3.470   0.350   7.634  0.6036  0.2566 -1.2684
 3028TIP3   OH230646   4.868   5.159   1.786 -0.3989 -0.1856 -0.1562
 3028TIP3    H130647   4.902   5.181   1.872  0.2274  0.4374 -0.5542
 3028TIP3    H230648   4.773   5.161   1.796 -0.3469  1.2195  0.2025
 3029TIP3   OH230649   5.248   4.205   6.125  0.5084  0.4046 -0.4739
 3029TIP3    H130650   5.308   4.259   6.073  0.8350  0.1559 -0.3611
 3029TIP3    H230651   5.215   4.140   6.063 -0.9313  1.5394 -0.9474
 3030TIP3   OH230652   6.990   1.258   0.635 -0.4450  0.0117  0.2398
 3030TIP3    H130653   6.964   1.335   0.685 -0.3017  0.6033 -0.5728
 3030TIP3    H230654   6.914   1.200   0.639 -1.5212  1.2317 -1.1391
 3031TIP3   OH230655   4.709   2.897   7.947  0.3563 -0.7107 -0.1183
 3031TIP3    H130656   4.657   2.817   7.945  0.1694 -0.5731 -0.9142
 3031TIP3    H230657   4.740   2.903   8.038 -1.6119 -0.4019  0.5822
 3032TIP3   OH230658   4.628   4.074   6.255 -0.0886  0.0938 -0.2327
 3032TIP3    H130659   4.534   4.060   6.249 -0.2779  1.6555 -1.7007
 3032TIP3    H230660   4.663   4.043   6.172  1.3575 -4.1101  1.6301
 3033TIP3   OH230661   6.977   4.208   0.842 -0.2757 -0.1406  0.6712
 3033TIP3    H130662   6.949   4.289   0.887  1.2642  0.6248  0.3116
 3033TIP3    H230663   7.047   4.173   0.897  1.7263  0.8756 -1.1134
 3034TIP3   OH230664   2.418   3.959   0.163 -0.0785  0.2083  0.2990
 3034TIP3    H130665   2.366   3.891   0.207  1.6966 -0.7829  0.9459
 3034TIP3    H230666   2.439   4.022   0.231  0.5678 -0.0152  0.3075
 3035TIP3   OH230667   5.176   0.478   6.302 -0.4184 -0.2230  0.2088
 3035TIP3    H130668   5.126   0.557   6.322  0.2756  0.1035  0.6951
 3035TIP3    H230669   5.127   0.407   6.343 -1.6610 -0.2218 -1.1777
 3036TIP3   OH230670   0.121   2.268   2.052 -0.1705 -0.3514 -0.1613
 3036TIP3    H130671   0.068   2.204   2.098 -0.3895  0.5521  0.8746
 3036TIP3    H230672   0.096   2.259   1.960 -0.6210 -1.3349  0.0529
 3037TIP3   OH230673   5.229   0.359   0.511  0.1377 -0.6759 -0.2800
 3037TIP3    H130674   5.301   0.414   0.541 -0.0662 -0.5588  0.0025
 3037TIP3    H230675   5.254   0.270   0.536 -0.5721 -0.4567  1.3605
 3038TIP3   OH230676   1.819   5.501   8.374  1.1271 -0.2154 -0.2043
 3038TIP3    H130677   1.752   5.437   8.352  0.0562  0.4457  0.9826
 3038TIP3    H230678   1.901   5.453   8.370  0.7431 -0.7694 -2.8467
 3039TIP3   OH230679   4.613   3.336   1.627  0.5248 -0.2023 -0.0306
 3039TIP3    H130680   4.632   3.404   1.563  0.7830 -1.2345 -1.0944
 3039TIP3    H230681   4.662   3.362   1.705 -1.2189  2.0185  0.4092
 3040TIP3   OH230682   3.439   4.669   0.145  0.3764 -0.2586 -0.1415
 3040TIP3    H130683   3.427   4.723   0.067 -1.1354  1.2693  1.0823
 3040TIP3    H230684   3.534   4.663   0.156  0.7613  4.3003  1.0051
 3041TIP3   OH230685   0.546   0.616   0.946  0.2566  0.4527  0.0759
 3041TIP3    H130686   0.589   0.604   1.031  1.3692 -0.7143 -0.6183
 3041TIP3    H230687   0.458   0.647   0.968 -0.1736 -1.7393  1.7521
 3042TIP3   OH230688   1.166   1.965   8.103 -0.8629 -1.0187 -0.5740
 3042TIP3    H130689   1.202   1.893   8.051  2.7030  1.4663 -1.9494
 3042TIP3    H230690   1.178   2.042   8.048 -1.5527  1.1028  2.0631
 3043TIP3   OH230691   1.557   1.118   0.712  0.1666  0.0948  0.1352
 3043TIP3    H130692   1.500   1.191   0.736 -1.0863 -0.9495  0.4666
 3043TIP3    H230693   1.501   1.040   0.720  1.0267 -0.7723 -1.6400
 3044TIP3   OH230694   3.979   5.735   1.601  0.0828  0.4269 -0.1932
 3044TIP3    H130695   4.026   5.653   1.587 -1.4400 -0.8128  1.4580
 3044TIP3    H230696   3.979   5.747   1.696 -4.0529 -0.4833  0.1326
 3045TIP3   OH230697   3.622   0.437   7.408  0.4695  0.5657 -0.1186
 3045TIP3    H130698   3.677   0.382   7.352 -0.6151 -0.3343 -0.3412
 3045TIP3    H230699   3.606   0.516   7.356 -1.9109 -0.9407 -1.8849
 3046TIP3   OH230700   0.279   1.979   0.812 -0.3402  0.3051  0.2858
 3046TIP3    H130701   0.269   2.007   0.721 -0.9766  1.5415  0.7092
 3046TIP3    H230702   0.339   2.043   0.850  0.0157 -0.2721  0.7116
 3047TIP3   OH230703   5.002   4.204   7.102 -0.2813 -1.0155 -0.1282
 3047TIP3    H130704   5.037   4.189   7.190 -0.0443 -0.7838 -0.1796
 3047TIP3    H230705   5.077   4.238   7.053 -0.0805 -2.2917 -0.7459
 3048TIP3   OH230706   3.759   6.598   0.348  1.0059  0.1150 -0.2137
 3048TIP3    H130707   3.714   6.559   0.273  0.1997  0.6778 -0.0287
 3048TIP3    H230708   3.708   6.570   0.424  0.8318  0.9526 -0.0200
 3049TIP3   OH230709   6.252   2.688   0.675  0.4719 -0.3509  0.5904
 3049TIP3    H130710   6.268   2.772   0.631 -0.6646 -0.5725 -0.3007
 3049TIP3    H230711   6.314   2.687   0.748  2.0875  0.2450 -0.7172
 3050TIP3   OH230712   4.805   4.665   1.221 -0.1952  0.0899 -0.0579
 3050TIP3    H130713   4.783   4.573   1.202  2.6319 -0.8557  0.7290
 3050TIP3    H230714   4.812   4.668   1.317 -2.4150  1.7503  0.1225
 3051TIP3   OH230715   5.536   6.908   7.103 -0.2587 -0.3579  0.5520
 3051TIP3    H130716   5.519   6.928   7.011 -0.6037 -0.4805  0.5887
 3051TIP3    H230717   5.598   6.835   7.100  0.2286  0.0540  0.4195
 3052TIP3   OH230718   6.025   6.720   6.727  0.1511  0.5680  0.1135
 3052TIP3    H130719   6.093   6.752   6.787  1.6252 -1.8490 -0.1161
 3052TIP3    H230720   5.957   6.685   6.784  1.7356 -2.1042  0.5369
 3053TIP3   OH230721   3.885   5.538   2.107  0.3114  0.0421  0.0809
 3053TIP3    H130722   3.798   5.500   2.097  0.5505 -0.4251 -0.2216
 3053TIP3    H230723   3.941   5.465   2.133  1.2126 -0.3204 -2.5631
 3054TIP3   OH230724   5.140   2.403   7.355  0.3914  0.5595 -0.5207
 3054TIP3    H130725   5.063   2.411   7.300 -0.2784 -1.6750 -0.0024
 3054TIP3    H230726   5.206   2.457   7.312 -1.0786  1.5577 -1.6262
 3055TIP3   OH230727   3.108   1.875   7.756  0.0196  0.0270  0.2992
 3055TIP3    H130728   3.085   1.890   7.664 -1.3179 -1.8400  0.2601
 3055TIP3    H230729   3.133   1.783   7.760  2.4119  0.6421  1.4280
 3056TIP3   OH230730   4.705   5.483   6.074 -0.3461  0.2728  0.2443
 3056TIP3    H130731   4.640   5.413   6.080 -0.4065  0.4398  2.4040
 3056TIP3    H230732   4.663   5.552   6.024 -1.8839  0.3715  1.5945
 3057TIP3   OH230733   1.419   6.596   6.718 -0.0468 -0.1140 -0.0306
 3057TIP3    H130734   1.340   6.600   6.665  1.2161 -0.1334 -2.0163
 3057TIP3    H230735   1.488   6.573   6.656  1.7636  1.3058  1.3481
 3058TIP3   OH230736   1.433   5.779   1.326  0.3021  0.4683  0.4082
 3058TIP3    H130737   1.400   5.802   1.412  1.7357  0.7252  0.9207
 3058TIP3    H230738   1.475   5.859   1.294  1.5645 -0.1964  0.3572
 3059TIP3   OH230739   3.316   0.964   1.158  0.1553 -0.4676 -0.6560
 3059TIP3    H130740   3.315   1.024   1.084  1.5324  1.2902  0.6619
 3059TIP3    H230741   3.379   0.896   1.132 -0.8025 -0.9355 -1.8323
 3060TIP3   OH230742   1.695   4.121   7.006 -0.0295 -0.2216  0.3422
 3060TIP3    H130743   1.600   4.130   7.002  0.0196  0.3086  0.2581
 3060TIP3    H230744   1.722   4.114   6.914  0.0767  0.3791  0.3252
 3061TIP3   OH230745   1.292   1.103   8.369  0.4424 -0.3716  0.3902
 3061TIP3    H130746   1.370   1.081   8.318  1.8846  1.2399  1.7775
 3061TIP3    H230747   1.284   1.032   8.432 -0.7968 -1.8791 -1.3513
 3062TIP3   OH230748   3.200   1.284   6.361  0.0849 -0.1164 -0.2169
 3062TIP3    H130749   3.116   1.281   6.407  0.2461  0.0830  0.0967
 3062TIP3    H230750   3.178   1.273   6.269 -0.5114  2.0148 -0.3813
 3063TIP3   OH230751   5.423   0.148   0.746 -0.5915  0.0752  0.2383
 3063TIP3    H130752   5.451   0.235   0.717 -0.5502  0.2873  0.9076
 3063TIP3    H230753   5.344   0.164   0.797 -0.4415 -0.2574  0.5753
 3064TIP3   OH230754   3.537   4.483   7.006  0.7133  0.5307 -0.6150
 3064TIP3    H130755   3.525   4.403   7.057 -0.3936  1.6342  0.9638
 3064TIP3    H230756   3.457   4.491   6.954  0.2344  1.2393  0.2000
 3065TIP3   OH230757   5.029   6.007   7.762 -0.0095 -0.2340 -0.2854
 3065TIP3    H130758   5.103   6.005   7.822  1.0370  0.6702 -1.4913
 3065TIP3    H230759   5.067   6.031   7.678 -1.6949  0.4746 -0.8923
 3066TIP3   OH230760   0.035   1.759   1.018  0.1610  0.3957  0.2771
 3066TIP3    H130761  -0.041   1.768   0.961  0.4046  2.2753  0.1798
 3066TIP3    H230762   0.043   1.845   1.061  0.7386 -0.5651  2.1915
 3067TIP3   OH230763   6.003   3.641   7.760 -0.1324 -0.5870  0.7482
 3067TIP3    H130764   5.953   3.706   7.808 -1.0725 -1.0201  0.3748
 3067TIP3    H230765   5.944   3.610   7.692  1.5822  0.9898 -1.6173
 3068TIP3   OH230766   6.575   4.293   0.974 -0.1362 -0.6806 -0.2739
 3068TIP3    H130767   6.483   4.305   1.000 -0.5953 -0.3146 -1.9670
 3068TIP3    H230768   6.624   4.348   1.035 -1.2897  1.2563 -1.0179
 3069TIP3   OH230769   2.657   1.387   6.858 -0.8148 -0.5055 -0.3866
 3069TIP3    H130770   2.566   1.415   6.846 -1.4320 -2.3829 -0.4709
 3069TIP3    H230771   2.694   1.451   6.918 -2.3277  0.0514  0.0051
 3070TIP3   OH230772   6.107   6.271   0.031  0.0007  0.5701 -0.2984
 3070TIP3    H130773   6.092   6.214  -0.044 -0.6362  0.7010 -0.2805
 3070TIP3    H230774   6.090   6.216   0.108 -0.5798  0.7632 -0.2805
 3071TIP3   OH230775   0.253   0.810   7.973  0.1977 -0.8629 -0.6411
 3071TIP3    H130776   0.162   0.812   7.944 -0.4014 -0.7379  1.1729
 3071TIP3    H230777   0.304   0.821   7.892 -1.3991  3.5175 -1.3100
 3072TIP3   OH230778   0.782   2.179   0.164 -0.4596 -0.9424  0.3367
 3072TIP3    H130779   0.833   2.133   0.098 -0.8214  0.2676 -0.8228
 3072TIP3    H230780   0.846   2.202   0.232  0.1364 -1.1938 -0.1339
 3073TIP3   OH230781   5.667   0.702   7.915  0.3386 -0.2530 -0.1961
 3073TIP3    H130782   5.692   0.697   7.823 -1.0017 -0.6380 -0.5647
 3073TIP3    H230783   5.608   0.777   7.920 -0.5466 -0.9427  0.0863
 3074TIP3   OH230784   0.841   2.953   6.708  0.2439 -0.4683 -0.1633
 3074TIP3    H130785   0.832   2.991   6.621 -1.2798 -1.7831 -0.6342
 3074TIP3    H230786   0.920   2.993   6.744 -1.2856  3.2572 -0.5135
 3075TIP3   OH230787   0.713   3.477   1.594 -0.3308 -0.2461  0.1425
 3075TIP3    H130788   0.794   3.455   1.548 -0.4936  1.3584 -0.9814
 3075TIP3    H230789   0.742   3.514   1.677  0.1327  0.6399 -0.3967
 3076TIP3   OH230790   2.816   4.810   8.163  0.2909 -0.1215 -0.6608
 3076TIP3    H130791   2.823   4.902   8.190  2.3814 -0.2358 -0.5992
 3076TIP3    H230792   2.768   4.768   8.234  1.1540  0.5661  0.3749
 3077TIP3   OH230793   3.399   0.564   6.475 -0.0912  0.2814 -0.4964
 3077TIP3    H130794   3.415   0.534   6.385  0.7380  2.2427 -1.0361
 3077TIP3    H230795   3.479   0.541   6.522  0.9024  2.2952 -1.1150
 3078TIP3   OH230796   5.385   5.335   0.998  0.3160 -0.8659 -0.1148
 3078TIP3    H130797   5.380   5.291   0.913 -0.6571  1.5041 -1.3904
 3078TIP3    H230798   5.452   5.403   0.986 -1.2524  0.8248  0.2813
 3079TIP3   OH230799   2.954   5.735   0.836  0.1573  0.1072 -0.3926
 3079TIP3    H130800   2.971   5.780   0.753 -1.2173 -2.1649 -2.0170
 3079TIP3    H230801   2.859   5.733   0.843  0.1264 -2.7425 -0.6036
 3080TIP3   OH230802   2.357   4.832   6.915 -0.5586 -0.4219 -0.1456
 3080TIP3    H130803   2.357   4.743   6.879  0.9522 -0.5953  0.2083
 3080TIP3    H230804   2.287   4.831   6.980  0.4639 -1.8811  1.0122
 3081TIP3   OH230805   0.226   3.576   1.237  0.8068  0.2171 -0.7029
 3081TIP3    H130806   0.187   3.489   1.223 -0.5838  0.4781  1.1928
 3081TIP3    H230807   0.298   3.561   1.297 -0.6069  0.5543  1.1540
 3082TIP3   OH230808   4.697   0.678   7.381  0.6459  0.0288  0.0575
 3082TIP3    H130809   4.779   0.708   7.343  0.4027 -2.0250 -2.3566
 3082TIP3    H230810   4.714   0.587   7.406 -0.8166 -0.3956 -0.3849
 3083TIP3   OH230811   0.350   6.329   1.464  0.1857 -0.1186  0.4068
 3083TIP3    H130812   0.309   6.295   1.384  1.2242 -0.8564  0.1745
 3083TIP3    H230813   0.282   6.384   1.503 -0.2335  0.5116 -1.1333
 3084TIP3   OH230814   6.433   1.091   1.405 -0.0070 -0.5189  0.2718
 3084TIP3    H130815   6.424   1.093   1.310  0.3620  0.3818  0.2547
 3084TIP3    H230816   6.527   1.098   1.421 -0.0089 -1.3335  0.6918
 3085TIP3   OH230817   3.390   0.325   0.955 -0.3579 -0.2537  0.3257
 3085TIP3    H130818   3.400   0.237   0.993 -0.3843 -0.9257 -1.1443
 3085TIP3    H230819   3.306   0.356   0.987 -0.7172 -1.0991  0.2203
 3086TIP3   OH230820   5.042   1.593   7.610  0.3997 -0.3017 -0.2180
 3086TIP3    H130821   5.123   1.642   7.628  0.1982 -0.2879  0.7012
 3086TIP3    H230822   5.048   1.570   7.517  1.1845  0.2050 -0.3021
 3087TIP3   OH230823   5.753   2.503   0.031 -0.2197  0.0127 -0.8570
 3087TIP3    H130824   5.707   2.567   0.085  1.0185 -0.3177  0.6487
 3087TIP3    H230825   5.829   2.477   0.083  0.4444 -1.1331 -2.3168
 3088TIP3   OH230826   2.970   1.592   0.389  0.7654 -0.2981 -0.1641
 3088TIP3    H130827   2.978   1.655   0.461 -0.8160  1.1103 -1.1445
 3088TIP3    H230828   3.056   1.593   0.347  1.8862 -1.5168  1.9320
 3089TIP3   OH230829   1.982   2.409   7.010  0.0381 -0.2358 -0.5295
 3089TIP3    H130830   2.024   2.350   7.072  1.7787  1.5385  0.0659
 3089TIP3    H230831   1.962   2.487   7.061  0.2103  0.7232 -1.8789
 3090TIP3   OH230832   3.212   1.628   7.668 -0.2995 -0.2102  0.0016
 3090TIP3    H130833   3.153   1.556   7.687  1.3716 -1.5897  0.2236
 3090TIP3    H230834   3.286   1.588   7.623  0.4497  1.4591 -0.3565
 3091TIP3   OH230835   4.716   2.574   1.767 -0.4304 -0.4090 -0.2193
 3091TIP3    H130836   4.750   2.486   1.784 -1.7817 -0.8078  0.6157
 3091TIP3    H230837   4.686   2.604   1.853 -0.3693  0.7034 -0.5790
 3092TIP3   OH230838   2.675   4.940   0.181 -0.6403 -0.3960 -0.6613
 3092TIP3    H130839   2.686   5.030   0.151 -2.5837  0.2633  0.4422
 3092TIP3    H230840   2.742   4.930   0.249 -0.3100  0.1726 -0.8957
 3093TIP3   OH230841   2.318   5.245   0.053 -0.0329 -0.0801 -0.4987
 3093TIP3    H130842   2.230   5.277   0.035  0.4429  0.2725 -2.4880
 3093TIP3    H230843   2.364   5.319   0.092 -0.9602 -0.7020  1.9469
 3094TIP3   OH230844   4.055   2.173   1.555  0.3958  0.0819 -0.2618
 3094TIP3    H130845   4.089   2.181   1.644 -0.9303  0.7292  0.2096
 3094TIP3    H230846   4.118   2.117   1.511  1.3024  0.0888  0.9659
 3095TIP3   OH230847   5.636   5.291   6.704 -0.2037 -0.4502  0.5951
 3095TIP3    H130848   5.717   5.302   6.753 -0.5417  0.6796  0.9399
 3095TIP3    H230849   5.567   5.318   6.765 -0.7121 -0.0360 -0.1449
 3096TIP3   OH230850   6.610   2.194   0.846  0.4559 -0.3705  0.2837
 3096TIP3    H130851   6.580   2.105   0.827 -2.8529  0.7487 -0.4841
 3096TIP3    H230852   6.649   2.224   0.764  2.5063 -1.3648  0.8387
 3097TIP3   OH230853   0.202   4.678   1.187  0.1983 -0.0256 -0.0220
 3097TIP3    H130854   0.189   4.674   1.282 -1.3632  1.4741 -0.1201
 3097TIP3    H230855   0.140   4.615   1.151  1.5966 -1.4632 -0.0642
 3098TIP3   OH230856   4.922   1.721   7.872 -0.1242 -0.5674  0.3614
 3098TIP3    H130857   4.942   1.806   7.911  1.0332 -1.1837  1.1752
 3098TIP3    H230858   4.952   1.728   7.782 -2.1357  0.6203 -0.2809
 3099TIP3   OH230859   4.601   5.482   0.738 -0.3425  0.2224 -0.7283
 3099TIP3    H130860   4.631   5.465   0.827  0.0873  0.9517 -0.7190
 3099TIP3    H230861   4.680   5.511   0.691 -0.7762  0.9474 -1.0376
 3100TIP3   OH230862   0.553   3.861   0.384  0.1515 -0.2734  0.3053
 3100TIP3    H130863   0.563   3.837   0.477  0.0744 -1.0973  0.1052
 3100TIP3    H230864   0.613   3.802   0.338  0.0825  0.0399 -0.1855
 3101TIP3   OH230865   6.421   1.122   1.110  0.1878  0.8290 -0.3769
 3101TIP3    H130866   6.328   1.099   1.114  0.2791  0.4719 -0.2603
 3101TIP3    H230867   6.460   1.054   1.055  0.1582  1.7170 -1.5319
 3102TIP3   OH230868   2.812   6.772   0.807 -0.1560 -0.0450 -0.2317
 3102TIP3    H130869   2.772   6.716   0.741 -1.9454 -0.1594  0.8851
 3102TIP3    H230870   2.904   6.744   0.809 -0.5586 -1.5618 -1.1228
 3103TIP3   OH230871   3.187   6.638   0.545 -0.0099 -0.0240 -0.9899
 3103TIP3    H130872   3.260   6.598   0.593 -0.1236  0.6177 -0.2452
 3103TIP3    H230873   3.228   6.703   0.488 -0.0342  0.8303 -0.0579
 3104TIP3   OH230874   1.521   4.885   0.448 -0.1889 -0.0916  0.0211
 3104TIP3    H130875   1.604   4.883   0.497  0.1529 -1.2840 -0.5691
 3104TIP3    H230876   1.535   4.825   0.375 -1.8415 -0.9191  0.3383
 3105TIP3   OH230877   3.600   6.397   6.452 -0.0095  0.2476  0.1692
 3105TIP3    H130878   3.596   6.325   6.390  1.4822  0.3487 -0.0894
 3105TIP3    H230879   3.557   6.470   6.407  0.1453  0.0343 -0.3303
 3106TIP3   OH230880   5.461   1.334   7.681  0.2053  0.0964 -0.5493
 3106TIP3    H130881   5.530   1.273   7.704  1.6378  1.9040  0.2260
 3106TIP3    H230882   5.490   1.373   7.598  0.1905  0.9169 -0.1810
 3107TIP3   OH230883   4.848   0.040   2.019 -0.5724 -0.1636  0.2483
 3107TIP3    H130884   4.888   0.116   1.978  0.2635  0.2588  1.7331
 3107TIP3    H230885   4.907  -0.033   1.998 -0.8498 -0.2161 -0.3609
 3108TIP3   OH230886   2.294   3.229   0.581  0.2349 -0.2441  0.1011
 3108TIP3    H130887   2.344   3.279   0.516 -0.3995  0.9981  0.5408
 3108TIP3    H230888   2.268   3.294   0.646 -2.6518 -0.6278 -0.5320
 3109TIP3   OH230889   5.933   2.258   0.013  0.2025  0.0100  0.2428
 3109TIP3    H130890   6.005   2.233   0.071 -0.0779 -1.0613  0.1343
 3109TIP3    H230891   5.969   2.329  -0.040  0.8927  0.0826  0.7892
 3110TIP3   OH230892   1.029   5.203   6.833 -0.0545  0.4425 -0.4893
 3110TIP3    H130893   1.082   5.282   6.842 -0.9230  0.8859  1.0270
 3110TIP3    H230894   0.940   5.235   6.823 -0.6141 -0.3299  1.6361
 3111TIP3   OH230895   5.510   1.727   6.340  0.1672 -0.9972 -0.8839
 3111TIP3    H130896   5.599   1.755   6.362  0.6176 -1.8228 -1.6151
 3111TIP3    H230897   5.455   1.800   6.367  1.0948 -0.3674 -0.6506
 3112TIP3   OH230898   5.811   0.332   0.769  0.4076  0.1152 -0.1693
 3112TIP3    H130899   5.894   0.291   0.796  0.0270 -0.1210  0.7009
 3112TIP3    H230900   5.755   0.324   0.846 -0.3233  0.5591 -0.6435
 3113TIP3   OH230901   5.261   4.223   7.898  0.7057  0.6882  0.1526
 3113TIP3    H130902   5.169   4.236   7.872  0.3348  1.3958  1.7443
 3113TIP3    H230903   5.310   4.234   7.816 -0.4373  2.6446 -0.3318
 3114TIP3   OH230904   4.520   2.544   0.586 -0.4831 -0.4543  0.1814
 3114TIP3    H130905   4.550   2.459   0.554  1.5042  0.5817 -0.9060
 3114TIP3    H230906   4.561   2.554   0.672 -2.2514 -1.3467  1.1827
 3115TIP3   OH230907   1.824   2.600   7.318 -0.8294 -0.2833  0.0641
 3115TIP3    H130908   1.824   2.591   7.223  0.5363  0.7430 -0.0586
 3115TIP3    H230909   1.802   2.513   7.351  0.9237 -1.2270 -1.1631
 3116TIP3   OH230910   4.571   1.985   0.805  0.0394  0.1907  0.4877
 3116TIP3    H130911   4.555   2.029   0.721 -1.4291  0.8933  1.1020
 3116TIP3    H230912   4.570   2.056   0.869  0.9964 -0.3591  1.1266
 3117TIP3   OH230913   1.023   5.528   1.803  0.1827 -0.0778  0.0570
 3117TIP3    H130914   0.962   5.490   1.866 -0.0420 -0.7088 -0.5276
 3117TIP3    H230915   1.017   5.471   1.727  0.6888  0.4921 -0.4176
 3118TIP3   OH230916   4.877   3.370   2.245 -0.5125  0.0414 -0.0606
 3118TIP3    H130917   4.867   3.353   2.151 -1.6379  1.4579 -0.2139
 3118TIP3    H230918   4.795   3.339   2.284 -0.6899  0.8884  0.2483
 3119TIP3   OH230919   2.504   0.170   1.097 -0.1341  1.0614  0.3675
 3119TIP3    H130920   2.501   0.251   1.045  0.3013 -0.4204 -2.1508
 3119TIP3    H230921   2.562   0.190   1.170 -1.9215  3.7042  1.1884
 3120TIP3   OH230922   6.202   0.712   6.954 -0.2719 -0.0768  0.2386
 3120TIP3    H130923   6.212   0.687   7.046 -2.1498 -3.5193 -0.2991
 3120TIP3    H230924   6.284   0.755   6.931  0.8202 -0.4083  3.1319
 3121TIP3   OH230925   1.967   6.781   7.748 -0.8854  0.4555 -0.0114
 3121TIP3    H130926   1.988   6.856   7.804  0.0012 -0.4087  0.8550
 3121TIP3    H230927   2.043   6.723   7.755 -1.3383 -0.3012 -1.0600
 3122TIP3   OH230928   2.027   0.494   8.049 -0.5075 -1.2415  0.8377
 3122TIP3    H130929   2.101   0.436   8.031 -0.8774 -1.6439  0.5947
 3122TIP3    H230930   2.020   0.495   8.144 -0.2740 -1.3094  0.8567
 3123TIP3   OH230931   0.151   0.376   7.728  0.0760  0.1087  0.4277
 3123TIP3    H130932   0.213   0.382   7.655  1.1230 -0.3248  1.2615
 3123TIP3    H230933   0.104   0.294   7.713  0.1354  0.1276  0.1383
 3124TIP3   OH230934   6.060   5.243   1.342 -0.8716  0.1615 -0.2257
 3124TIP3    H130935   6.118   5.309   1.304  1.2575 -2.0137 -1.0180
 3124TIP3    H230936   6.049   5.270   1.433 -0.9522  2.1423 -0.7882
 3125TIP3   OH230937   6.893   1.505   0.831  0.4908 -0.2160  0.7063
 3125TIP3    H130938   6.808   1.498   0.788  1.0960 -0.2445 -0.5449
 3125TIP3    H230939   6.898   1.597   0.859 -1.1318 -0.8532  3.4488
 3126TIP3   OH230940   0.759   6.635   0.814  0.0572  0.5346  0.2156
 3126TIP3    H130941   0.848   6.634   0.848  0.5159  0.0672 -0.9480
 3126TIP3    H230942   0.714   6.565   0.861  0.7950 -0.3831 -0.4131
 3127TIP3   OH230943   3.652   3.252   1.785  0.3417 -0.0036 -0.2539
 3127TIP3    H130944   3.694   3.194   1.849 -0.6532 -1.8082 -1.1418
 3127TIP3    H230945   3.721   3.268   1.720  0.1063 -1.9347 -1.0619
 3128TIP3   OH230946   5.040   1.106   1.526  0.4124 -0.6364  0.3075
 3128TIP3    H130947   5.109   1.063   1.475  0.7323  0.6151 -0.3611
 3128TIP3    H230948   5.076   1.192   1.546 -0.1186 -0.7438  1.8250
 3129TIP3   OH230949   5.194   1.001   1.135 -0.4819  0.7561  0.7085
 3129TIP3    H130950   5.225   1.066   1.071  1.6270 -0.5255  0.3416
 3129TIP3    H230951   5.104   0.982   1.108 -1.0945  3.3256  0.7058
 3130TIP3   OH230952   2.548   2.705   0.476  0.9231  0.2795 -0.1013
 3130TIP3    H130953   2.582   2.691   0.564  0.4851  1.5250  0.2875
 3130TIP3    H230954   2.472   2.647   0.470  0.8605  0.3119  0.3883
 3131TIP3   OH230955   1.510   1.552   8.230 -0.0043  0.1505  0.4062
 3131TIP3    H130956   1.572   1.481   8.242  0.1244  0.0142 -0.9216
 3131TIP3    H230957   1.425   1.513   8.249  0.2475  0.2775  1.9926
 3132TIP3   OH230958   6.418   3.881   7.592 -0.4105 -0.2237  0.2261
 3132TIP3    H130959   6.341   3.832   7.565 -1.1120  1.1499 -0.3776
 3132TIP3    H230960   6.466   3.897   7.511  0.2118 -0.5568  0.5202
 3133TIP3   OH230961   0.787   1.774   0.121 -0.1210  0.6803 -0.0237
 3133TIP3    H130962   0.745   1.832   0.184 -0.3287  1.3181 -0.7293
 3133TIP3    H230963   0.797   1.691   0.168 -0.1691  1.1680  0.8726
 3134TIP3   OH230964   5.952   3.158   7.751 -0.9177  0.0717  0.1350
 3134TIP3    H130965   6.000   3.180   7.830 -3.7251  0.4736  1.8545
 3134TIP3    H230966   5.942   3.063   7.754  1.5152 -0.3400 -1.4213
 3135TIP3   OH230967   0.950   2.311   0.375  0.3851  0.6603 -0.5303
 3135TIP3    H130968   0.863   2.339   0.402 -0.5107 -2.8316  0.7820
 3135TIP3    H230969   1.009   2.349   0.440 -0.0197  3.1111 -1.4693
 3136TIP3   OH230970   6.898   1.568   8.360  0.1496  0.4854 -0.2014
 3136TIP3    H130971   6.989   1.554   8.331  0.2029  0.2938  0.0544
 3136TIP3    H230972   6.855   1.483   8.348  0.0091  0.5729 -0.3113
 3137TIP3   OH230973   2.013   0.866   6.855 -0.6422 -0.1114 -0.0159
 3137TIP3    H130974   2.079   0.917   6.809  0.9989 -2.2222 -0.1515
 3137TIP3    H230975   2.029   0.883   6.948  1.3464 -1.9021  0.0535
 3138TIP3   OH230976   4.682   2.794   7.036  0.3011  0.4729  0.1032
 3138TIP3    H130977   4.650   2.776   7.125  1.3617 -1.6673  0.1169
 3138TIP3    H230978   4.759   2.737   7.027  0.5740  1.1124 -1.9740
 3139TIP3   OH230979   4.720   3.066   7.369 -0.3773  0.2228 -0.2109
 3139TIP3    H130980   4.702   3.088   7.278  0.5867 -1.0410 -0.7269
 3139TIP3    H230981   4.765   3.143   7.403  1.2469 -0.1310 -1.4499
 3140TIP3   OH230982   2.243   3.612   1.367  0.3703  0.6092 -0.0441
 3140TIP3    H130983   2.226   3.572   1.282  0.1115 -1.3531  0.8625
 3140TIP3    H230984   2.339   3.619   1.372  0.4368 -0.1644 -0.1288
 3141TIP3   OH230985   1.995   4.488   0.876  0.0345  0.5136  0.1829
 3141TIP3    H130986   2.011   4.434   0.954  0.5276  0.4608  0.0494
 3141TIP3    H230987   1.938   4.434   0.821  0.8182 -0.0328 -0.1100
 3142TIP3   OH230988   1.548   3.736   1.747 -0.1118  0.2394  0.5728
 3142TIP3    H130989   1.577   3.758   1.836  2.7777  1.2596 -0.4933
 3142TIP3    H230990   1.532   3.820   1.705  0.4851 -0.1365 -0.4426
 3143TIP3   OH230991   2.183   1.807   0.091 -0.5724  0.1575 -0.0958
 3143TIP3    H130992   2.262   1.767   0.128 -0.7785 -0.3438 -0.1873
 3143TIP3    H230993   2.112   1.774   0.145 -0.6598  1.1320  0.3987
 3144TIP3   OH230994   5.370   6.192   7.480  0.3486  0.0902  0.1431
 3144TIP3    H130995   5.380   6.111   7.431  0.9076 -0.0463  0.4786
 3144TIP3    H230996   5.276   6.206   7.484  0.2174  2.0484 -4.1631
 3145TIP3   OH230997   5.549   0.676   0.885 -0.1420  0.2717  0.3513
 3145TIP3    H130998   5.471   0.654   0.937  0.3127  1.5835  1.6555
 3145TIP3    H230999   5.611   0.711   0.949  0.0184  3.0801 -1.2021
 3146TIP3   OH231000   5.189   5.793   0.897 -0.0477  0.0139  0.2343
 3146TIP3    H131001   5.198   5.722   0.961  2.5022 -1.1172 -1.2319
 3146TIP3    H231002   5.097   5.791   0.872 -0.4803 -1.4016  1.7503
 3147TIP3   OH231003   4.476   3.889   7.924  0.3123  0.0556  0.2865
 3147TIP3    H131004   4.512   3.837   7.995  0.9408  0.0304 -0.0479
 3147TIP3    H231005   4.551   3.932   7.883  0.1944 -1.2848 -1.4606
 3148TIP3   OH231006   6.328   4.777   0.282  0.5306  0.1105 -0.0041
 3148TIP3    H131007   6.290   4.692   0.304  1.5825 -0.0686  1.2507
 3148TIP3    H231008   6.317   4.785   0.187  0.0183 -1.2168 -0.0713
 3149TIP3   OH231009   0.807   3.899   6.827 -0.5431 -0.3911 -0.4386
 3149TIP3    H131010   0.811   3.811   6.790  0.7249 -0.7962  0.5844
 3149TIP3    H231011   0.785   3.886   6.919 -2.8949  0.5519 -0.8073
 3150TIP3   OH231012   0.634   2.295   0.555  0.1222  0.1494  0.1093
 3150TIP3    H131013   0.628   2.297   0.650 -0.2606 -0.9326  0.1152
 3150TIP3    H231014   0.675   2.211   0.534  0.9149  0.7045 -0.6538
 3151TIP3   OH231015   0.478   1.437   0.658  0.1682 -0.4567  0.2451
 3151TIP3    H131016   0.516   1.351   0.676  0.7070 -0.6240 -1.4846
 3151TIP3    H231017   0.383   1.423   0.660  0.2369 -1.6234 -2.1211
 3152TIP3   OH231018   4.356   2.320   0.578  0.2591 -0.0179 -0.1746
 3152TIP3    H131019   4.354   2.261   0.653  1.2489 -0.6623 -0.6392
 3152TIP3    H231020   4.309   2.398   0.607 -4.4911 -2.3507 -0.7514
 3153TIP3   OH231021   2.308   2.031   1.703 -0.3050  0.0517  0.2692
 3153TIP3    H131022   2.392   2.044   1.660 -0.9449  0.0779 -1.0336
 3153TIP3    H231023   2.268   2.118   1.705 -0.5682 -0.0685  0.2907
 3154TIP3   OH231024   3.489   1.504   0.476 -0.1975 -0.2254 -0.3286
 3154TIP3    H131025   3.577   1.515   0.512  0.2549 -0.0061 -1.4760
 3154TIP3    H231026   3.454   1.593   0.467 -1.0631 -0.3539  1.3273
 3155TIP3   OH231027   1.982   6.424   0.693  0.0531 -0.0847 -0.2576
 3155TIP3    H131028   1.991   6.379   0.609 -1.1059 -0.5800 -0.1386
 3155TIP3    H231029   1.910   6.486   0.680 -0.6814 -0.7319  0.5875
 3156TIP3   OH231030   2.977   3.093   1.642 -0.0061 -0.0828  0.6230
 3156TIP3    H131031   2.940   3.074   1.728  1.1185 -0.6076  1.0102
 3156TIP3    H231032   2.957   3.015   1.590  1.4248 -0.8405  1.1454
 3157TIP3   OH231033   5.736   6.654   6.733  0.2426 -0.6375  0.0087
 3157TIP3    H131034   5.664   6.705   6.697  1.1531 -0.6580 -1.9459
 3157TIP3    H231035   5.762   6.595   6.662  2.3473 -0.4456  0.5568
 3158TIP3   OH231036   6.894   5.969   8.278  0.3182  0.0892 -0.4188
 3158TIP3    H131037   6.935   5.924   8.352  1.0227  1.3602 -0.0066
 3158TIP3    H231038   6.830   6.028   8.318  0.2999  0.3783 -0.8665
 3159TIP3   OH231039   4.608   4.291   1.884  0.0050 -0.5303  0.3393
 3159TIP3    H131040   4.589   4.317   1.974  0.0600 -0.1859  0.2529
 3159TIP3    H231041   4.634   4.372   1.840 -1.5466 -0.3848 -0.3904
 3160TIP3   OH231042   6.912   4.784   7.744  0.6237 -0.2630  0.3236
 3160TIP3    H131043   6.904   4.802   7.838 -0.0735 -0.6570  0.3469
 3160TIP3    H231044   7.006   4.780   7.728  0.7544  0.1551  0.9368
 3161TIP3   OH231045   0.627   4.949   7.463  0.1063 -0.3794  0.1603
 3161TIP3    H131046   0.573   5.024   7.488  0.0902 -0.8307  1.5989
 3161TIP3    H231047   0.589   4.918   7.380 -0.5021  0.5906  0.0646
 3162TIP3   OH231048   4.881   6.056   7.435 -0.0162  0.0828  0.8246
 3162TIP3    H131049   4.922   5.969   7.439  0.1452 -0.0272 -1.6185
 3162TIP3    H231050   4.791   6.041   7.464  0.4622 -0.5192  2.1056
 3163TIP3   OH231051   0.034   2.598   7.688 -0.0066  0.1215  0.2707
 3163TIP3    H131052  -0.039   2.596   7.627  0.6020  0.6175 -0.4905
 3163TIP3    H231053   0.091   2.668   7.656  0.2243  0.5339  1.5278
 3164TIP3   OH231054   0.686   1.336   0.400 -0.5070 -0.0162  0.9308
 3164TIP3    H131055   0.756   1.304   0.457  0.3338 -0.3602 -0.2718
 3164TIP3    H231056   0.613   1.276   0.415  0.5646 -1.6806 -0.2148
 3165TIP3   OH231057   4.388   3.405   8.359 -0.3013  0.2802 -0.1679
 3165TIP3    H131058   4.430   3.328   8.320  0.4884  0.4067  0.4033
 3165TIP3    H231059   4.306   3.372   8.396  0.2678 -0.3966  0.5103
 3166TIP3   OH231060   5.963   3.274   0.816  0.8598 -0.0959 -0.2206
 3166TIP3    H131061   6.013   3.255   0.896  1.4965  2.0965 -0.0300
 3166TIP3    H231062   6.027   3.264   0.746  0.8615  0.0910 -0.2451
 3167TIP3   OH231063   0.594   6.451   7.529 -0.2377  0.0793  0.0543
 3167TIP3    H131064   0.579   6.530   7.580 -1.8846 -0.1363 -0.0452
 3167TIP3    H231065   0.506   6.420   7.505  0.0577 -3.4421  2.6219
 3168TIP3   OH231066   3.452   0.649   0.133 -0.0585  0.5284  0.0845
 3168TIP3    H131067   3.521   0.691   0.081 -1.2641  2.2216 -0.2322
 3168TIP3    H231068   3.423   0.717   0.193 -1.9351  0.0879 -0.2770
 3169TIP3   OH231069   2.381   3.106   0.120  0.1040 -0.2903 -0.0924
 3169TIP3    H131070   2.383   3.072   0.210 -0.8980 -1.2989 -0.4293
 3169TIP3    H231071   2.412   3.196   0.128  0.4491 -0.4938  1.1979
 3170TIP3   OH231072   0.654   5.014   7.825  0.1117 -0.0894  0.1917
 3170TIP3    H131073   0.688   5.091   7.780 -0.7147  0.5232  0.5865
 3170TIP3    H231074   0.704   5.010   7.907 -0.5554  0.6500  0.6474
 3171TIP3   OH231075   1.212   5.705   7.871 -0.3352  0.1602 -0.2030
 3171TIP3    H131076   1.168   5.788   7.891 -2.3335 -0.9910  0.3941
 3171TIP3    H231077   1.149   5.656   7.819  0.6483 -1.1595 -0.2087
 3172TIP3   OH231078   2.231   2.150   2.232 -0.1231 -0.3642  0.8967
 3172TIP3    H131079   2.170   2.080   2.208  0.7543 -0.0556 -2.7689
 3172TIP3    H231080   2.311   2.105   2.259  0.4510 -0.8915 -1.4734
 3173TIP3   OH231081   4.956   0.955   1.020 -0.0288 -1.1062  0.2311
 3173TIP3    H131082   4.888   1.023   1.024  0.6836 -0.3956  0.4892
 3173TIP3    H231083   4.990   0.960   0.931  0.6951 -0.4403  0.5321
 3174TIP3   OH231084   6.442   5.421   0.006  0.6001 -0.5708  0.3773
 3174TIP3    H131085   6.415   5.329   0.009  1.6079 -0.8436  1.8366
 3174TIP3    H231086   6.366   5.470   0.036  0.7028 -1.0972  1.5345
 3175TIP3   OH231087   0.134   3.401   7.520 -0.3773 -0.0782 -0.0406
 3175TIP3    H131088   0.041   3.411   7.539 -0.5812  0.2908 -1.1627
 3175TIP3    H231089   0.138   3.331   7.454 -0.1772  1.9550 -2.3082
 3176TIP3   OH231090   4.928   5.853   8.285 -0.1138 -0.5188  0.3941
 3176TIP3    H131091   4.999   5.877   8.345 -0.2118 -1.1039  0.7528
 3176TIP3    H231092   4.944   5.906   8.207 -0.1969  0.5372  1.0741
 3177TIP3   OH231093   5.452   2.454   0.349  0.1256 -0.1771  0.1973
 3177TIP3    H131094   5.460   2.498   0.264 -0.6035  0.8097  0.6086
 3177TIP3    H231095   5.440   2.362   0.328  0.6513 -0.0429 -0.7422
 3178TIP3   OH231096   3.750   0.921   7.957  0.2080  0.3648 -0.2387
 3178TIP3    H131097   3.787   0.994   7.907 -0.3639  1.3187  0.6773
 3178TIP3    H231098   3.656   0.924   7.937 -0.0110  0.6931  0.7844
 3179TIP3   OH231099   0.601   3.189   6.771 -0.3696 -0.0023 -0.3465
 3179TIP3    H131100   0.678   3.211   6.718 -1.1087 -1.5551 -2.1800
 3179TIP3    H231101   0.546   3.136   6.713 -1.8569 -0.6949  1.5867
 3180TIP3   OH231102   6.669   6.339   0.557 -0.1583  0.3481 -0.6042
 3180TIP3    H131103   6.580   6.303   0.559 -0.1219  0.2538 -0.6928
 3180TIP3    H231104   6.691   6.353   0.649  0.1432 -0.6218 -0.5171
 3181TIP3   OH231105   5.592   5.538   1.071  0.2659 -0.6148 -0.2637
 3181TIP3    H131106   5.628   5.511   1.156 -0.8228  1.2025  0.8371
 3181TIP3    H231107   5.669   5.567   1.021  0.6030  2.2128  1.6579
 3182TIP3   OH231108   2.976   5.628   0.024 -0.0068  0.1213  0.2765
 3182TIP3    H131109   2.932   5.660   0.103 -3.9165  0.6672 -1.8462
 3182TIP3    H231110   2.923   5.554  -0.004  1.0645  0.1413 -2.0026
 3183TIP3   OH231111   1.252   1.884   6.865  0.6023  0.1143  0.1036
 3183TIP3    H131112   1.333   1.854   6.906  0.6237  1.4144  1.0688
 3183TIP3    H231113   1.186   1.875   6.935  0.1772  0.2667 -0.2734
 3184TIP3   OH231114   6.825   6.947   0.047  0.1788 -0.3317  0.4952
 3184TIP3    H131115   6.751   6.919  -0.007  0.9179 -0.4926 -0.4535
 3184TIP3    H231116   6.867   6.865   0.075  0.2934 -0.2306  0.6223
 3185TIP3   OH231117   3.459   3.564   6.612  0.6472 -0.2244  0.2710
 3185TIP3    H131118   3.517   3.606   6.549 -0.2482  1.1899  0.3341
 3185TIP3    H231119   3.516   3.509   6.666  2.0675  1.7459  0.8677
 3186TIP3   OH231120   3.210   2.672   1.385 -0.4121  0.0319 -0.4784
 3186TIP3    H131121   3.203   2.674   1.289 -0.0376  0.0371 -0.5056
 3186TIP3    H231122   3.283   2.613   1.403  0.7454  1.4575 -0.2644
 3187TIP3   OH231123   3.727   6.452   7.696 -0.3157  0.7620 -0.0463
 3187TIP3    H131124   3.816   6.469   7.726 -0.4906  4.1826 -0.9864
 3187TIP3    H231125   3.704   6.530   7.644 -4.0506  0.3148  0.6449
 3188TIP3   OH231126   5.879   5.866   1.096 -0.4432  0.4840  0.4380
 3188TIP3    H131127   5.891   5.840   1.187  0.0164 -2.4674 -0.3304
 3188TIP3    H231128   5.964   5.901   1.069 -0.0906 -0.1382  0.7338
 3189TIP3   OH231129   1.604   3.542   7.906  0.7116 -0.5129 -0.4103
 3189TIP3    H131130   1.516   3.512   7.926  0.7323 -1.3870 -1.4911
 3189TIP3    H231131   1.594   3.634   7.882  0.2235 -0.3894  0.2507
 3190TIP3   OH231132   6.813   5.554   0.139 -0.6064 -0.0002 -0.6147
 3190TIP3    H131133   6.749   5.623   0.155  0.5263  0.6269  1.6236
 3190TIP3    H231134   6.771   5.475   0.175 -0.1912  0.4010  0.8128
 3191TIP3   OH231135   5.061   4.753   0.568  0.2939  0.3595  0.4350
 3191TIP3    H131136   5.080   4.718   0.655  1.9976  0.5752  0.1822
 3191TIP3    H231137   5.098   4.841   0.570 -1.3299  1.0844  0.0891
 3192TIP3   OH231138   2.057   3.403   8.391 -0.0473 -0.7098 -0.5316
 3192TIP3    H131139   1.993   3.410   8.320  1.2008 -1.1620 -1.7563
 3192TIP3    H231140   2.029   3.468   8.455 -1.8541 -1.0620 -0.9046
 3193TIP3   OH231141   3.305   2.468   1.546 -0.7881  0.6368  0.1724
 3193TIP3    H131142   3.330   2.546   1.596 -0.1693  0.2757  0.4361
 3193TIP3    H231143   3.389   2.428   1.521 -1.0807 -0.6714  1.1739
 3194TIP3   OH231144   3.572   3.424   6.824 -0.1055 -0.1131  0.1051
 3194TIP3    H131145   3.489   3.435   6.871  0.2191  0.9354  0.4686
 3194TIP3    H231146   3.633   3.481   6.870  0.4993  0.0942 -0.9199
 3195TIP3   OH231147   1.045   4.342   6.644 -0.1685 -0.3845  0.3427
 3195TIP3    H131148   0.967   4.297   6.611  0.3886 -0.6208 -0.7064
 3195TIP3    H231149   1.024   4.435   6.639  0.1781 -0.3658 -1.5039
 3196TIP3   OH231150   5.091   2.412   0.918 -0.4574  0.1924 -0.3476
 3196TIP3    H131151   5.129   2.354   0.984  0.3061  0.9271 -0.1323
 3196TIP3    H231152   5.099   2.363   0.836 -1.8885 -0.9480  0.1514
 3197TIP3   OH231153   0.427   1.208   0.431 -0.2857 -0.1022  0.1629
 3197TIP3    H131154   0.353   1.269   0.437 -1.0456 -1.0347  0.6209
 3197TIP3    H231155   0.434   1.170   0.519  0.3767 -0.4479 -0.0336
 3198TIP3   OH231156   1.490   6.327   6.893 -0.0328  0.0029 -0.2595
 3198TIP3    H131157   1.525   6.395   6.836  0.3484 -1.0096 -1.2700
 3198TIP3    H231158   1.504   6.360   6.982  0.5284  1.0382 -0.7203
 3199TIP3   OH231159   2.246   5.449   7.166 -0.0946  0.0261  0.7745
 3199TIP3    H131160   2.259   5.538   7.134 -0.1364  0.3862  1.7410
 3199TIP3    H231161   2.160   5.424   7.132 -0.6077  0.7945  1.4706
 3200TIP3   OH231162   4.908   5.661   1.201  0.1281  0.7163 -0.2778
 3200TIP3    H131163   4.869   5.609   1.130 -0.3342 -1.1457  1.2605
 3200TIP3    H231164   4.999   5.633   1.205 -0.0801  0.1140  0.4496
 3201TIP3   OH231165   2.234   2.336   7.782 -0.6631 -0.0400  0.6807
 3201TIP3    H131166   2.275   2.274   7.843 -0.2570 -0.1111  0.3429
 3201TIP3    H231167   2.305   2.396   7.759 -0.7540 -0.1577  0.0907
 3202TIP3   OH231168   0.278   4.204   7.893  0.7472  0.0133  0.4933
 3202TIP3    H131169   0.371   4.183   7.881  0.9423  0.0190  1.7915
 3202TIP3    H231170   0.275   4.300   7.887  0.7368 -0.0237 -0.0907
 3203TIP3   OH231171   3.581   6.700   7.391 -0.5408 -0.2372  0.3669
 3203TIP3    H131172   3.661   6.665   7.431  0.1573  2.7490  1.9098
 3203TIP3    H231173   3.514   6.634   7.409  0.8012 -1.1715  2.3086
 3204TIP3   OH231174   1.194   1.652   7.039  0.2610 -0.2175  0.3587
 3204TIP3    H131175   1.243   1.614   7.112  0.7365 -0.5664 -0.1350
 3204TIP3    H231176   1.158   1.577   6.993  1.2595 -0.0937 -0.6648
 3205TIP3   OH231177   6.446   0.584   7.138  0.1243  0.6551  0.5753
 3205TIP3    H131178   6.382   0.597   7.209 -1.0810  1.0325 -0.5418
 3205TIP3    H231179   6.492   0.667   7.132  0.4661  0.5097  1.1326
 3206TIP3   OH231180   0.422   6.587   0.948  0.4101  0.7097  0.4875
 3206TIP3    H131181   0.443   6.556   1.037  0.2541  1.6190  0.8447
 3206TIP3    H231182   0.397   6.507   0.901  1.1339  0.1176  1.0683
 3207TIP3   OH231183   1.441   5.639   1.042 -0.0281 -0.1154 -0.8846
 3207TIP3    H131184   1.487   5.683   1.113  0.4959 -1.4459 -0.3614
 3207TIP3    H231185   1.378   5.703   1.011 -0.1103  0.5818  0.6274
 3208TIP3   OH231186   2.433   5.559   0.117  0.2470 -0.1081 -0.1509
 3208TIP3    H131187   2.364   5.576   0.180 -0.0159 -2.0996  0.1510
 3208TIP3    H231188   2.507   5.611   0.148 -0.1362 -0.4101  1.3345
 3209TIP3   OH231189   2.441   5.795   7.554 -0.6488 -0.3655 -0.6738
 3209TIP3    H131190   2.413   5.738   7.625  0.4246  0.1926  0.2229
 3209TIP3    H231191   2.512   5.746   7.511 -1.2067 -0.6452 -1.2906
 3210TIP3   OH231192   0.857   0.444   1.970  0.4824  0.1296  0.3612
 3210TIP3    H131193   0.878   0.355   1.939 -1.6193 -0.9208  1.7028
 3210TIP3    H231194   0.806   0.482   1.898 -1.1370 -0.9046  0.8905
 3211TIP3   OH231195   6.380   1.481   6.918  0.2613  0.4146  0.6132
 3211TIP3    H131196   6.347   1.440   6.838 -0.5642  1.1118  0.5847
 3211TIP3    H231197   6.333   1.564   6.923  0.7751  0.6583  1.4895
 3212TIP3   OH231198   4.552   5.674   1.273  0.3143  0.1668 -0.1730
 3212TIP3    H131199   4.615   5.630   1.331  0.4225  1.1692  0.4889
 3212TIP3    H231200   4.469   5.669   1.319  0.2758  0.4354 -0.2109
 3213TIP3   OH231201   0.850   5.833   5.820  0.3033 -0.0700  0.4477
 3213TIP3    H131202   0.874   5.743   5.843  1.5325  0.1693  0.1766
 3213TIP3    H231203   0.869   5.840   5.726  0.0207  0.4183  0.4221
 3214TIP3   OH231204   2.407   6.065   7.511 -0.3600 -0.1770  0.1203
 3214TIP3    H131205   2.336   6.035   7.454  0.5556 -0.6359 -0.8073
 3214TIP3    H231206   2.440   5.984   7.551  0.9036 -0.2394 -0.9654
 3215TIP3   OH231207   5.666   4.505   0.766  0.2919 -0.2329  0.0832
 3215TIP3    H131208   5.589   4.554   0.796  0.4064 -0.8562  1.5040
 3215TIP3    H231209   5.653   4.417   0.803  1.8768 -0.2409  0.6938
 3216TIP3   OH231210   0.147   4.331   0.633 -0.6051 -0.1868  0.1669
 3216TIP3    H131211   0.072   4.305   0.687  0.3564 -2.9209  0.3508
 3216TIP3    H231212   0.122   4.307   0.544 -0.7979  1.0152 -0.1203
 3217TIP3   OH231213   0.238   2.571   2.471 -0.6288 -0.3373 -0.5241
 3217TIP3    H131214   0.260   2.639   2.407  0.4586 -0.4421 -0.2706
 3217TIP3    H231215   0.279   2.601   2.552 -0.2091 -1.2576 -0.3905
 3218TIP3   OH231216   6.304   1.153   0.406 -0.7358 -0.2949 -0.9402
 3218TIP3    H131217   6.224   1.136   0.456 -0.0017 -0.3242  0.2562
 3218TIP3    H231218   6.360   1.077   0.425 -0.0259  0.2242 -0.9399
 3219TIP3   OH231219   3.618   1.567   6.280 -0.7553  0.2326 -0.2054
 3219TIP3    H131220   3.698   1.572   6.332 -0.7496 -0.0712 -0.1811
 3219TIP3    H231221   3.552   1.535   6.341 -1.4440  2.6026  0.3754
 3220TIP3   OH231222   0.400   4.760   6.854  0.1914  0.7969 -0.6713
 3220TIP3    H131223   0.337   4.699   6.816  0.9409  0.1315 -0.8723
 3220TIP3    H231224   0.459   4.782   6.781 -0.1385  1.8670 -0.6339
 3221TIP3   OH231225   4.640   5.940   7.427  0.2833 -0.1770  0.7147
 3221TIP3    H131226   4.600   5.858   7.396 -0.0935  0.6042 -0.9979
 3221TIP3    H231227   4.566   5.997   7.446  0.5424  0.3462  0.1887
 3222TIP3   OH231228   2.057   4.102   6.874  0.2415 -0.3792 -0.0331
 3222TIP3    H131229   2.024   4.013   6.888  0.1796 -0.6175 -1.4986
 3222TIP3    H231230   2.005   4.136   6.801  1.4977  0.1618 -0.7186
 3223TIP3   OH231231   2.610   3.412   0.848 -0.1006 -0.5334  0.0582
 3223TIP3    H131232   2.620   3.329   0.895  0.1475  0.3500  1.6276
 3223TIP3    H231233   2.652   3.397   0.763 -0.6758 -2.2145  0.0370
 3224TIP3   OH231234   4.969   0.914   7.561  0.2169 -0.0318 -0.0596
 3224TIP3    H131235   4.985   0.970   7.636  0.3321 -0.7789  0.4877
 3224TIP3    H231236   4.976   0.825   7.596  1.3729 -0.4106 -1.1735
 3225TIP3   OH231237   2.416   4.305   2.407 -0.1197 -0.0592  0.1730
 3225TIP3    H131238   2.322   4.291   2.407 -0.3504  1.2093 -0.9714
 3225TIP3    H231239   2.451   4.234   2.353 -0.7034  0.7603 -1.3499
 3226TIP3   OH231240   3.309   0.739   6.009 -0.5481  0.0270 -0.1827
 3226TIP3    H131241   3.325   0.832   6.020  1.7048 -0.0915 -1.7738
 3226TIP3    H231242   3.392   0.704   5.976 -0.9291 -2.7680  1.5290
 3227TIP3   OH231243   0.049   3.738   0.735  0.4971  0.0089  0.0220
 3227TIP3    H131244   0.135   3.701   0.717 -0.5333 -2.4257 -0.4213
 3227TIP3    H231245   0.055   3.770   0.825  2.2320  1.2192 -0.4747
 3228TIP3   OH231246   2.229   5.905   7.392  0.0567 -0.7463  0.1762
 3228TIP3    H131247   2.288   5.839   7.428 -1.8090 -1.7430  1.5479
 3228TIP3    H231248   2.159   5.854   7.350 -1.8950  0.2635  2.0385
 3229TIP3   OH231249   4.862   6.698   6.475  0.8040 -0.4797  0.0089
 3229TIP3    H131250   4.788   6.699   6.414  1.2965 -0.7979 -0.6148
 3229TIP3    H231251   4.933   6.657   6.425  2.0709  1.7765 -0.2181
 3230TIP3   OH231252   2.939   2.835   1.856  0.2813  0.4162  0.3061
 3230TIP3    H131253   3.034   2.826   1.858  0.2916  0.5420  0.3820
 3230TIP3    H231254   2.923   2.924   1.889  0.2191  0.9315 -1.0367
 3231TIP3   OH231255   4.753   6.864   7.234  0.3807 -0.0938 -0.1566
 3231TIP3    H131256   4.836   6.905   7.260  0.7282 -1.0719  0.3099
 3231TIP3    H231257   4.754   6.779   7.277 -0.4125 -0.5254 -0.9692
 3232TIP3   OH231258   4.399   1.420   2.423 -1.0037 -0.0861  0.2505
 3232TIP3    H131259   4.455   1.387   2.353 -1.5969 -1.5501  0.4339
 3232TIP3    H231260   4.425   1.512   2.433  0.3857 -0.3533 -0.6044
 3233TIP3   OH231261   4.409   6.535   1.865 -0.4073 -0.1691  0.0502
 3233TIP3    H131262   4.389   6.443   1.881  0.0760 -0.2078  0.4294
 3233TIP3    H231263   4.337   6.566   1.809 -1.0732 -0.5258  0.7018
 3234TIP3   OH231264   3.808   2.479   0.396 -0.1320  0.3069 -0.1109
 3234TIP3    H131265   3.861   2.519   0.464  1.3633 -2.0546  0.2297
 3234TIP3    H231266   3.776   2.397   0.434 -1.5905  0.2419 -1.3330
 3235TIP3   OH231267   6.817   5.750   6.707  0.1681 -0.2489  0.1348
 3235TIP3    H131268   6.891   5.711   6.754 -1.3391 -1.4996  1.5599
 3235TIP3    H231269   6.815   5.841   6.737 -0.1161 -0.7527  1.7269
 3236TIP3   OH231270   1.671   5.626   0.508 -0.3213  0.4142 -0.1378
 3236TIP3    H131271   1.635   5.570   0.576  1.5096 -1.6969 -0.7969
 3236TIP3    H231272   1.722   5.692   0.555  0.6263 -0.8037  0.5765
 3237TIP3   OH231273   4.225   3.766   6.274  0.5107  0.2905  0.0990
 3237TIP3    H131274   4.194   3.703   6.209  1.4142 -0.3940  0.3027
 3237TIP3    H231275   4.254   3.711   6.348  1.0143  0.9619  0.4140
 3238TIP3   OH231276   2.426   3.435   0.443 -0.3644 -0.1151  0.3406
 3238TIP3    H131277   2.385   3.512   0.484 -0.1176  0.1109  0.1661
 3238TIP3    H231278   2.453   3.466   0.357  1.5296  0.1725  1.0006
 3239TIP3   OH231279   0.287   4.517   7.942  0.0429 -0.2792  0.1247
 3239TIP3    H131280   0.329   4.589   7.989  0.4467 -0.9196  0.7638
 3239TIP3    H231281   0.194   4.523   7.966  0.1751 -0.3336  0.6645
 3240TIP3   OH231282   0.077   6.976   6.422 -0.4665  0.7896 -0.0084
 3240TIP3    H131283  -0.018   6.987   6.420 -0.3722  1.5281 -1.1442
 3240TIP3    H231284   0.106   7.004   6.336  0.5868 -1.3414 -0.4143
 3241TIP3   OH231285   1.147   2.245   7.301  0.3379  0.0774  0.3848
 3241TIP3    H131286   1.229   2.197   7.303  1.2516  1.0993 -3.5992
 3241TIP3    H231287   1.082   2.181   7.272  1.2570  0.5724 -3.3648
 3242TIP3   OH231288   0.659   3.666   1.229  0.1441 -0.3647 -0.8787
 3242TIP3    H131289   0.625   3.649   1.141  0.4831 -0.3818 -1.0096
 3242TIP3    H231290   0.687   3.757   1.227  1.0729 -0.6419 -1.1050
 3243TIP3   OH231291   1.673   5.527   0.240 -0.0856  0.3371  0.2990
 3243TIP3    H131292   1.744   5.580   0.204 -2.3536  2.7329 -0.8960
 3243TIP3    H231293   1.682   5.537   0.335  1.0088  0.7728  0.1650
 3244TIP3   OH231294   2.125   2.687   1.823 -0.7259 -0.4149 -0.5107
 3244TIP3    H131295   2.216   2.702   1.850 -1.0688 -1.0475  1.0716
 3244TIP3    H231296   2.105   2.762   1.767  1.3554 -1.2000 -2.4738
 3245TIP3   OH231297   4.727   2.794   7.604 -0.2012 -0.5541 -0.0825
 3245TIP3    H131298   4.649   2.739   7.602 -0.6335  0.0396  0.1508
 3245TIP3    H231299   4.694   2.884   7.595  0.4306 -0.2837  0.2056
 3246TIP3   OH231300   1.012   3.878   1.454 -0.1664  0.4414  0.4277
 3246TIP3    H131301   0.999   3.795   1.409  0.4035  0.1505  0.7799
 3246TIP3    H231302   0.962   3.870   1.535 -1.3277  1.0289 -0.2069
 3247TIP3   OH231303   0.261   0.087   8.211  0.2016 -0.7398  0.5214
 3247TIP3    H131304   0.279   0.052   8.124 -0.6060 -0.3019  0.1766
 3247TIP3    H231305   0.342   0.132   8.236  1.0706 -2.3208  0.7395
 3248TIP3   OH231306   1.018   6.086   1.973 -0.0177 -0.3075 -0.2192
 3248TIP3    H131307   0.954   6.114   1.907  0.8622  2.4192 -0.0277
 3248TIP3    H231308   1.095   6.141   1.956  1.4181 -1.8385  1.0551
 3249TIP3   OH231309   2.672   3.365   0.555  0.0996 -0.3125 -0.8839
 3249TIP3    H131310   2.716   3.424   0.494 -1.5420 -0.8078 -2.6575
 3249TIP3    H231311   2.580   3.367   0.528 -1.2730  1.4045  3.2066
 3250TIP3   OH231312   4.654   5.637   7.630 -0.3797  0.0208 -0.3769
 3250TIP3    H131313   4.573   5.653   7.582 -0.8648 -0.2423  0.3333
 3250TIP3    H231314   4.628   5.635   7.722  0.6698  1.3762 -0.0166
 3251TIP3   OH231315   1.812   3.619   2.201 -0.3703  0.1622 -0.6461
 3251TIP3    H131316   1.907   3.623   2.212 -0.2073  0.7940 -2.0755
 3251TIP3    H231317   1.792   3.525   2.199 -0.3262 -0.1410  3.3354
 3252TIP3   OH231318   4.265   3.303   1.537 -0.2930 -0.1990  0.2043
 3252TIP3    H131319   4.197   3.236   1.535  0.5528 -1.1383  1.4142
 3252TIP3    H231320   4.328   3.271   1.601  0.8616  1.0645 -0.2543
 3253TIP3   OH231321   4.602   2.588   0.853 -0.0462 -0.3502  0.3063
 3253TIP3    H131322   4.620   2.518   0.917  1.2083 -0.8493 -0.5557
 3253TIP3    H231323   4.688   2.611   0.818 -0.6508  0.3115 -0.7990
 3254TIP3   OH231324   1.524   3.811   0.675 -0.1791  0.0591  0.1386
 3254TIP3    H131325   1.590   3.796   0.607 -0.8364  0.0305 -0.4961
 3254TIP3    H231326   1.575   3.820   0.756  0.6061  0.0824 -0.3516
 3255TIP3   OH231327   1.818   1.094   0.635 -0.2425  0.2314 -0.1711
 3255TIP3    H131328   1.726   1.107   0.659 -0.0955 -0.0195  0.5722
 3255TIP3    H231329   1.815   1.039   0.557 -0.7282  0.5122 -0.3589
 3256TIP3   OH231330   0.526   2.701   0.069  0.1946  0.5597 -0.0285
 3256TIP3    H131331   0.479   2.658   0.141 -0.1378  0.7312 -0.1429
 3256TIP3    H231332   0.465   2.698  -0.004  0.4277  0.6375 -0.2250
 3257TIP3   OH231333   5.562   5.885   0.330  0.0335  0.0215  0.7056
 3257TIP3    H131334   5.635   5.945   0.315  0.7702 -1.0238 -0.0633
 3257TIP3    H231335   5.576   5.851   0.418  1.8829 -1.9585 -0.2589
 3258TIP3   OH231336   4.995   4.587   6.509 -0.0418 -0.2463 -0.0441
 3258TIP3    H131337   5.001   4.544   6.594 -0.8663 -2.5102 -1.0586
 3258TIP3    H231338   4.905   4.622   6.507 -0.0726 -0.3283 -0.0644
 3259TIP3   OH231339   0.023   5.971   6.771 -0.1844  0.4896  0.2307
 3259TIP3    H131340  -0.058   6.021   6.765 -0.7433 -0.2991  0.9382
 3259TIP3    H231341   0.076   6.002   6.698 -0.4629  2.1792  0.7052
 3260TIP3   OH231342   6.790   3.759   2.464  0.1343 -0.5733 -0.5468
 3260TIP3    H131343   6.796   3.813   2.385 -0.7806 -0.6208 -0.6494
 3260TIP3    H231344   6.823   3.674   2.437  1.9341 -0.0168 -0.2943
 3261TIP3   OH231345   3.625   4.422   2.166 -1.0967 -0.3741 -0.0720
 3261TIP3    H131346   3.701   4.480   2.176 -2.8604  1.7147  2.6493
 3261TIP3    H231347   3.641   4.352   2.228 -0.8232 -0.6438 -0.4412
 3262TIP3   OH231348   5.573   3.954   7.193  0.3730  0.3415 -0.4618
 3262TIP3    H131349   5.497   3.979   7.244  0.5482  0.1363 -0.0941
 3262TIP3    H231350   5.578   3.859   7.202  1.4046  0.4756  0.5731
 3263TIP3   OH231351   0.237   6.783   1.060 -0.4055 -0.3217  0.2446
 3263TIP3    H131352   0.148   6.782   1.025 -0.7561 -1.7579  1.0841
 3263TIP3    H231353   0.286   6.724   1.002  0.8410  2.7169 -2.0740
 3264TIP3   OH231354   1.117   6.258   7.896  0.0179  0.6796  0.0088
 3264TIP3    H131355   1.171   6.275   7.973  3.1532 -1.0109 -1.6219
 3264TIP3    H231356   1.056   6.189   7.925 -0.7828  1.9766  1.6352
 3265TIP3   OH231357   5.304   5.456   0.690  0.0255 -0.6330 -0.0413
 3265TIP3    H131358   5.361   5.379   0.688 -0.0637 -0.8667  2.4877
 3265TIP3    H231359   5.360   5.526   0.724 -0.9670 -0.7683  2.0704
 3266TIP3   OH231360   5.435   0.572   0.381 -0.3191  0.5699 -0.1110
 3266TIP3    H131361   5.530   0.574   0.394 -0.1223 -0.0914 -1.2816
 3266TIP3    H231362   5.405   0.659   0.407  0.7801  1.1929 -0.8613
 3267TIP3   OH231363   4.465   0.957   2.088 -0.2734 -0.2970 -0.3459
 3267TIP3    H131364   4.508   1.042   2.089  3.3065 -1.9436 -0.0440
 3267TIP3    H231365   4.384   0.970   2.139  0.5366  2.6756  0.3548
 3268TIP3   OH231366   2.444   3.632   7.233  0.2181  0.5735 -0.9888
 3268TIP3    H131367   2.387   3.687   7.180  0.6077  1.4522 -0.5274
 3268TIP3    H231368   2.519   3.688   7.253  0.1810  0.1965  0.3004
 3269TIP3   OH231369   5.954   2.538   7.434 -0.4355 -0.1809  0.4205
 3269TIP3    H131370   5.866   2.533   7.395 -0.5678 -2.5163  0.8780
 3269TIP3    H231371   5.977   2.447   7.452  1.7651  0.4545  1.0741
 3270TIP3   OH231372   0.277   3.615   0.631 -0.0819  0.7021  0.2546
 3270TIP3    H131373   0.320   3.550   0.576  0.6057 -0.6857  2.3259
 3270TIP3    H231374   0.346   3.678   0.653  0.3581 -0.1903  1.5881
 3271TIP3   OH231375   3.431   4.770   7.553  0.0918 -0.5876  0.6610
 3271TIP3    H131376   3.379   4.845   7.581 -0.7257 -1.2361  0.9192
 3271TIP3    H231377   3.386   4.694   7.589  1.0151 -1.2004  0.5728
 3272TIP3   OH231378   6.548   0.969   0.482 -0.0291  0.1821  0.3500
 3272TIP3    H131379   6.485   0.898   0.479  0.0365  0.0831  1.1845
 3272TIP3    H231380   6.621   0.938   0.428 -0.5341  0.1547 -0.3325
 3273TIP3   OH231381   1.135   5.281   1.273 -0.2482  0.4617 -0.4785
 3273TIP3    H131382   1.143   5.375   1.258 -0.3369  0.5667  0.0873
 3273TIP3    H231383   1.209   5.260   1.330 -0.3614  0.2342 -0.4154
 3274TIP3   OH231384   0.047   3.736   7.630 -0.0513  0.4560  0.1205
 3274TIP3    H131385   0.054   3.719   7.536  2.4871  0.1359  0.3025
 3274TIP3    H231386   0.079   3.826   7.640 -0.0229  0.3807  0.7102
 3275TIP3   OH231387   4.420   6.962   6.840 -0.0712 -0.3452  0.0161
 3275TIP3    H131388   4.441   6.871   6.860  0.2182 -0.3081 -0.1130
 3275TIP3    H231389   4.390   6.960   6.749 -0.9291 -0.4435  0.2960
 3276TIP3   OH231390   0.716   1.493   6.475 -0.2865  0.1355  0.1856
 3276TIP3    H131391   0.733   1.526   6.386 -0.0200 -0.4912 -0.0064
 3276TIP3    H231392   0.701   1.399   6.462  4.9508 -1.1671  1.2949
 3277TIP3   OH231393   1.762   2.411   0.466  0.7797 -0.3726 -0.2888
 3277TIP3    H131394   1.789   2.334   0.417 -0.8304 -0.7695 -0.5998
 3277TIP3    H231395   1.836   2.429   0.524  0.7887 -2.7612  0.5434
 3278TIP3   OH231396   5.443   6.957   1.108  0.4274 -0.4094 -1.0536
 3278TIP3    H131397   5.498   7.034   1.090  1.5807 -1.4289 -2.1642
 3278TIP3    H231398   5.419   6.925   1.021  0.5645 -1.7137 -0.6273
 3279TIP3   OH231399   4.188   0.882   0.300 -0.5742 -0.6435  0.2894
 3279TIP3    H131400   4.105   0.840   0.277 -0.3975 -0.0133 -1.7031
 3279TIP3    H231401   4.245   0.864   0.225  0.0772  1.5634  0.1994
 3280TIP3   OH231402   3.179   0.127   7.339 -0.2919 -0.0662 -0.0594
 3280TIP3    H131403   3.252   0.138   7.278 -0.2798  1.1895  0.1608
 3280TIP3    H231404   3.108   0.090   7.287 -0.1678  0.6715 -0.7610
 3281TIP3   OH231405   6.759   4.888   6.546  0.7803  0.1011  0.3767
 3281TIP3    H131406   6.735   4.919   6.458 -1.1205 -1.7280  0.1866
 3281TIP3    H231407   6.695   4.929   6.604  1.0397  0.0433  0.7047
 3282TIP3   OH231408   0.904   5.717   7.557 -0.1292  0.2129  0.3635
 3282TIP3    H131409   0.896   5.743   7.465  0.0157  0.6281  0.4674
 3282TIP3    H231410   0.908   5.799   7.605 -0.6672 -0.0055  0.7856
 3283TIP3   OH231411   2.230   2.703   0.554 -0.7000 -0.2560 -0.4106
 3283TIP3    H131412   2.208   2.724   0.463 -1.1804  2.1031  0.1658
 3283TIP3    H231413   2.246   2.788   0.594  1.1164 -1.3575  1.3423
 3284TIP3   OH231414   0.868   3.123   7.773 -0.7614 -0.0799  0.8717
 3284TIP3    H131415   0.928   3.183   7.817  0.6302 -1.1228  0.4662
 3284TIP3    H231416   0.812   3.089   7.844 -0.3866  0.3275  1.3739
 3285TIP3   OH231417   2.778   2.538   0.440  0.1132  0.4771 -0.4193
 3285TIP3    H131418   2.843   2.565   0.375  0.0780  0.6653 -0.3770
 3285TIP3    H231419   2.710   2.605   0.434 -0.7747 -0.4698 -1.4776
 3286TIP3   OH231420   6.889   0.887   6.766  0.2037  0.3158 -0.7348
 3286TIP3    H131421   6.898   0.982   6.758  0.0651  0.3326 -0.6919
 3286TIP3    H231422   6.925   0.853   6.684  0.1341  0.4118 -0.8061
 3287TIP3   OH231423   6.172   3.592   7.087  0.3428 -0.3432  0.1648
 3287TIP3    H131424   6.209   3.606   7.174  0.7716  1.8893 -0.2988
 3287TIP3    H231425   6.233   3.637   7.028 -0.1311 -1.4998 -1.2591
 3288TIP3   OH231426   2.797   6.633   6.770 -0.2326  0.1032  0.0981
 3288TIP3    H131427   2.845   6.629   6.687 -1.0001  0.6031 -0.3808
 3288TIP3    H231428   2.852   6.687   6.827  0.0109  0.2578 -0.2803
 3289TIP3   OH231429   6.610   0.286   7.512 -0.0977 -0.0137  0.5258
 3289TIP3    H131430   6.594   0.379   7.498 -5.6330 -0.8631 -1.2816
 3289TIP3    H231431   6.654   0.256   7.432 -0.9391  0.6483 -0.2061
 3290TIP3   OH231432   2.031   5.827   7.053 -0.2025 -0.2228 -0.3601
 3290TIP3    H131433   2.013   5.851   7.143 -0.9056 -2.0400  0.0295
 3290TIP3    H231434   2.011   5.905   7.002  1.4988  1.2727  1.1524
 3291TIP3   OH231435   0.052   1.143   0.030  0.6675  0.2471 -0.1489
 3291TIP3    H131436   0.031   1.206  -0.039  2.7242  1.3776  0.1859
 3291TIP3    H231437  -0.000   1.065   0.008 -1.1855  1.6738 -1.1350
 3292TIP3   OH231438   2.927   4.201   7.350 -0.2198  0.5981  0.4564
 3292TIP3    H131439   2.889   4.127   7.303  0.5715  0.9458 -0.7697
 3292TIP3    H231440   2.885   4.278   7.311  1.2710  0.9546 -0.5380
 3293TIP3   OH231441   3.222   0.924   7.235  0.4187  0.3973 -0.1236
 3293TIP3    H131442   3.266   0.882   7.309  1.3461 -0.7528 -1.2676
 3293TIP3    H231443   3.204   1.013   7.264 -0.4972 -0.4093  1.9749
 3294TIP3   OH231444   2.490   3.016   7.991 -0.2141 -0.4535  0.5424
 3294TIP3    H131445   2.492   3.102   8.034 -0.4538 -0.7711  1.2091
 3294TIP3    H231446   2.397   2.993   7.990 -0.1880 -0.5404  0.0200
 3295TIP3   OH231447   3.002   6.214   1.714 -0.2680  0.3921 -0.0397
 3295TIP3    H131448   3.017   6.200   1.808  0.8369  0.3823 -0.2060
 3295TIP3    H231449   2.965   6.302   1.709  0.7368  0.8593  0.3319
 3296TIP3   OH231450   4.367   6.614   7.828  0.3133  0.0397  0.5351
 3296TIP3    H131451   4.289   6.600   7.881 -0.6923  0.7451 -0.6744
 3296TIP3    H231452   4.386   6.707   7.836 -0.4305  0.3645 -1.0325
 3297TIP3   OH231453   3.245   2.821   6.692  0.1055 -0.2915  0.3556
 3297TIP3    H131454   3.218   2.730   6.679  0.6392 -0.3392 -0.4072
 3297TIP3    H231455   3.325   2.830   6.642 -1.3686  1.3545 -1.8791
 3298TIP3   OH231456   2.347   1.260   1.658 -0.3468 -0.5443 -0.0093
 3298TIP3    H131457   2.375   1.171   1.636 -1.3142 -0.6110 -1.1252
 3298TIP3    H231458   2.324   1.256   1.751 -0.9011 -1.6128 -0.1774
 3299TIP3   OH231459   1.293   3.275   6.858  0.1006 -0.3567  0.0790
 3299TIP3    H131460   1.246   3.350   6.893 -0.2165 -1.4472  2.1590
 3299TIP3    H231461   1.240   3.246   6.784 -0.4703  0.6991  0.0592
 3300TIP3   OH231462   6.641   4.580   7.912 -0.0332 -0.0229  0.2980
 3300TIP3    H131463   6.608   4.504   7.960  1.6397 -1.0992 -0.1466
 3300TIP3    H231464   6.728   4.596   7.950  0.7430 -0.0344 -1.3936
 3301TIP3   OH231465   6.740   1.264   1.265 -0.3562 -0.2506  0.1852
 3301TIP3    H131466   6.773   1.351   1.286 -0.5783  0.0978 -0.8629
 3301TIP3    H231467   6.746   1.216   1.347 -1.9606  1.2797  1.2700
 3302TIP3   OH231468   0.292   3.750   7.000  0.6534  0.4677 -0.2405
 3302TIP3    H131469   0.214   3.805   6.998 -0.9275 -1.4567  2.4094
 3302TIP3    H231470   0.356   3.798   6.947 -2.3366  1.9943 -2.8316
 3303TIP3   OH231471   4.507   6.648   7.248 -0.2083  0.4580  0.2298
 3303TIP3    H131472   4.576   6.583   7.236 -0.7599 -0.6396  2.4662
 3303TIP3    H231473   4.434   6.599   7.285 -1.1484  2.1216  0.6719
 3304TIP3   OH231474   1.756   1.045   1.108 -0.0555 -0.1142 -0.0183
 3304TIP3    H131475   1.776   1.105   1.036  1.3272 -1.4486 -0.8034
 3304TIP3    H231476   1.718   0.968   1.065  1.3870 -1.1978  0.5616
 3305TIP3   OH231477   2.166   2.441   2.543 -0.5597  0.2749 -0.1841
 3305TIP3    H131478   2.143   2.410   2.456  1.1858 -0.4726 -0.4116
 3305TIP3    H231479   2.105   2.397   2.602 -0.9366 -0.1753 -0.9076
 3306TIP3   OH231480   1.360   6.478   1.051 -0.3725  0.2718 -0.7255
 3306TIP3    H131481   1.288   6.465   0.990 -0.2237  0.7304 -1.0042
 3306TIP3    H231482   1.320   6.473   1.138 -0.6387 -0.0424 -0.8648
 3307TIP3   OH231483   6.180   6.558   6.299  0.0165 -0.8117 -0.4100
 3307TIP3    H131484   6.124   6.608   6.240  0.3973  1.8071  1.2518
 3307TIP3    H231485   6.119   6.515   6.359 -0.3490  0.8018  0.4521
 3308TIP3   OH231486   1.855   6.363   8.063  0.1669  0.3095  0.1557
 3308TIP3    H131487   1.888   6.375   7.974 -0.1450 -0.1783 -0.0251
 3308TIP3    H231488   1.791   6.293   8.056 -1.4263  1.7006  0.3923
 3309TIP3   OH231489   6.049   5.620   1.887  0.0944  0.5961  0.1444
 3309TIP3    H131490   6.014   5.706   1.910  0.3746  0.0043  3.2869
 3309TIP3    H231491   6.143   5.626   1.905 -0.0385 -0.6050  1.4906
 3310TIP3   OH231492   2.183   3.587   7.978 -0.0482 -0.2821 -0.3746
 3310TIP3    H131493   2.142   3.500   7.968 -1.8307  0.4366  0.2087
 3310TIP3    H231494   2.217   3.607   7.891  2.7992 -2.6389  0.0331
 3311TIP3   OH231495   4.823   0.534   0.687 -0.3014 -0.1437 -0.1108
 3311TIP3    H131496   4.890   0.593   0.653  1.0418 -1.4524  0.1183
 3311TIP3    H231497   4.814   0.557   0.779  0.0046 -0.0967 -0.0915
 3312TIP3   OH231498   0.162   5.151   8.359 -0.1146 -0.4962 -0.4929
 3312TIP3    H131499   0.131   5.115   8.442 -0.3329  2.4912  0.8630
 3312TIP3    H231500   0.258   5.141   8.364 -0.1811 -1.1187 -0.3045
 3313TIP3   OH231501   2.172   2.602   6.269  0.2080 -0.4357  0.4144
 3313TIP3    H131502   2.251   2.603   6.324  0.6794  0.0948 -0.2505
 3313TIP3    H231503   2.145   2.510   6.267  1.3662 -0.7905 -0.1134
 3314TIP3   OH231504   6.620   1.035   6.989 -0.7112  0.0481 -0.2606
 3314TIP3    H131505   6.573   1.059   7.069 -1.1973 -2.8746  0.4365
 3314TIP3    H231506   6.559   1.051   6.918 -0.2804  2.6674 -0.1287
 3315TIP3   OH231507   4.214   5.025   8.044 -0.3344  0.2589  0.3674
 3315TIP3    H131508   4.264   5.082   7.985 -2.8969  0.6865 -1.5825
 3315TIP3    H231509   4.151   4.981   7.987 -4.0113  1.7893  2.9047
 3316TIP3   OH231510   6.208   4.104   7.471 -0.1440  0.2489  0.3241
 3316TIP3    H131511   6.289   4.061   7.497 -0.1260  0.2417  0.2555
 3316TIP3    H231512   6.184   4.157   7.547  2.1535  3.6294 -1.0634
 3317TIP3   OH231513   3.413   3.278   2.301 -0.4421 -0.2153  0.0233
 3317TIP3    H131514   3.411   3.190   2.338 -1.7965  0.1556  0.8908
 3317TIP3    H231515   3.440   3.334   2.374  0.7903  0.0589 -0.6219
 3318TIP3   OH231516   4.448   3.617   7.770  0.0184 -0.4439 -0.1926
 3318TIP3    H131517   4.544   3.619   7.775 -0.0361 -0.4067  1.4227
 3318TIP3    H231518   4.421   3.703   7.802 -0.5626 -0.6805 -0.0483
 3319TIP3   OH231519   1.467   1.780   6.339  0.5296 -0.7911 -0.0754
 3319TIP3    H131520   1.550   1.765   6.293  1.1825 -1.9261  1.3835
 3319TIP3    H231521   1.413   1.828   6.276  1.1151 -2.8185 -2.2779
 3320TIP3   OH231522   2.296   6.359   0.674  0.4860 -0.0320 -0.1689
 3320TIP3    H131523   2.258   6.276   0.645  0.0896  0.3765 -0.8420
 3320TIP3    H231524   2.221   6.412   0.699  0.6856  0.3679 -0.4073
 3321TIP3   OH231525   6.500   1.928   0.754 -0.6027  0.3608  0.4493
 3321TIP3    H131526   6.439   1.997   0.781 -1.5155 -0.0724 -0.4290
 3321TIP3    H231527   6.445   1.851   0.741  0.4297 -0.6125  1.6059
 3322TIP3   OH231528   3.628   6.346   6.792  0.4182 -0.8659  0.0622
 3322TIP3    H131529   3.618   6.410   6.863  2.8688  0.9952 -1.1485
 3322TIP3    H231530   3.572   6.380   6.722  0.0007 -1.2829  0.1923
 3323TIP3   OH231531   6.519   6.265   7.202 -0.0265  0.0684  0.0706
 3323TIP3    H131532   6.571   6.185   7.200  2.1202  1.3442  1.3280
 3323TIP3    H231533   6.554   6.318   7.131  0.4822  0.9782  0.9793
 3324TIP3   OH231534   6.827   3.489   1.296  0.0500  0.5676 -0.0598
 3324TIP3    H131535   6.878   3.487   1.214  1.7087 -0.2000  0.9278
 3324TIP3    H231536   6.765   3.561   1.284  0.9865  1.1789 -1.5876
 3325TIP3   OH231537   5.034   3.982   0.752 -0.2815  0.8288  0.1223
 3325TIP3    H131538   5.112   4.031   0.727  1.7085 -0.8950  2.4023
 3325TIP3    H231539   5.067   3.895   0.776 -3.0656 -0.3185  0.2194
 3326TIP3   OH231540   1.400   1.822   1.596  0.0846  0.0304 -0.4043
 3326TIP3    H131541   1.450   1.903   1.588  0.5586  0.1878  2.7630
 3326TIP3    H231542   1.458   1.754   1.564  1.8554  0.4078  1.7620
 3327TIP3   OH231543   1.463   1.082   6.331 -0.3465  0.0174  0.7151
 3327TIP3    H131544   1.533   1.125   6.282  1.0479 -0.4719  2.1675
 3327TIP3    H231545   1.383   1.123   6.300  0.4867  0.0652 -1.5704
 3328TIP3   OH231546   4.615   4.388   1.403  0.1718  0.7319  0.1606
 3328TIP3    H131547   4.703   4.349   1.402  0.2682  0.5974 -3.8012
 3328TIP3    H231548   4.560   4.323   1.447  1.5020 -0.8278 -0.3883
 3329TIP3   OH231549   6.800   0.653   1.068  0.6097 -0.5978 -0.7848
 3329TIP3    H131550   6.881   0.703   1.059  1.0678 -1.3993 -1.2851
 3329TIP3    H231551   6.753   0.696   1.139  2.2893 -1.1666  0.7478
 3330TIP3   OH231552   5.574   4.015   7.774  0.4113 -0.7551  0.1236
 3330TIP3    H131553   5.665   4.042   7.763  0.2628 -0.1043  0.4545
 3330TIP3    H231554   5.579   3.920   7.789  0.9942 -0.7956 -0.3080
 3331TIP3   OH231555   1.859   0.331   1.175 -0.0941 -0.0110 -0.2238
 3331TIP3    H131556   1.793   0.262   1.171  0.4634 -0.5878  0.3407
 3331TIP3    H231557   1.883   0.335   1.268 -0.2721  1.0901 -0.2131
 3332TIP3   OH231558   1.685   2.411   7.059 -0.2823 -0.2129  0.2683
 3332TIP3    H131559   1.758   2.353   7.038 -0.1422  0.3889 -0.9651
 3332TIP3    H231560   1.723   2.499   7.061 -0.8019  0.0152  0.5156
 3333TIP3   OH231561   6.911   5.700   1.687 -0.3575 -0.0535 -0.5117
 3333TIP3    H131562   6.884   5.632   1.749 -1.3448  0.8895  0.1353
 3333TIP3    H231563   6.837   5.761   1.686  0.1082  0.5205 -1.8029
 3334TIP3   OH231564   3.216   1.463   8.362 -0.5730 -0.2020 -0.0667
 3334TIP3    H131565   3.233   1.427   8.450  0.9466  0.2702 -0.1326
 3334TIP3    H231566   3.155   1.535   8.377 -4.1462 -3.0082  0.0046
 3335TIP3   OH231567   5.477   3.082   1.805  0.1610  0.0110 -0.0659
 3335TIP3    H131568   5.402   3.068   1.862  0.7682  1.5646  1.2125
 3335TIP3    H231569   5.452   3.157   1.750  0.6903  0.4155  0.2359
 3336TIP3   OH231570   6.496   1.674   0.526  0.6740 -0.5733 -0.7719
 3336TIP3    H131571   6.434   1.703   0.593  1.7184  0.0391 -0.0456
 3336TIP3    H231572   6.441   1.632   0.460 -0.5084 -0.1321 -0.1102
 3337TIP3   OH231573   1.497   5.514   6.796 -0.3338 -0.3719 -0.7076
 3337TIP3    H131574   1.406   5.508   6.825  0.1552  0.2357  1.0758
 3337TIP3    H231575   1.524   5.603   6.818  0.8116 -0.6712 -0.8107
 3338TIP3   OH231576   0.968   1.959   0.393 -0.6737 -0.1829 -0.3021
 3338TIP3    H131577   1.009   2.035   0.432 -1.4262  1.1309 -1.9419
 3338TIP3    H231578   1.005   1.954   0.304 -1.1096 -1.3365 -0.4402
 3339TIP3   OH231579   3.192   5.733   2.295  0.6289 -0.5072 -0.0874
 3339TIP3    H131580   3.235   5.761   2.214 -0.2612 -0.3100 -0.5073
 3339TIP3    H231581   3.099   5.726   2.271 -0.0567  1.8808  1.4600
 3340TIP3   OH231582   0.696   1.312   1.681  0.4877  0.0979  0.7425
 3340TIP3    H131583   0.744   1.230   1.671  1.9165  1.1060 -1.3264
 3340TIP3    H231584   0.693   1.326   1.776  0.2670 -2.2634  1.1514
 3341TIP3   OH231585   5.264   4.305   1.717  0.2213  0.2113 -1.1571
 3341TIP3    H131586   5.253   4.315   1.812  0.1184  0.8862 -1.2386
 3341TIP3    H231587   5.347   4.257   1.708 -0.0026 -0.2727 -0.7141
 3342TIP3   OH231588   4.207   6.116   0.660  0.0036  0.2758  0.1954
 3342TIP3    H131589   4.134   6.055   0.666 -0.3843  0.6345 -0.6718
 3342TIP3    H231590   4.267   6.089   0.730 -0.3935 -0.7651  0.1509
 3343TIP3   OH231591   1.258   6.002   8.207 -0.3630  0.3304  0.4491
 3343TIP3    H131592   1.335   5.946   8.208 -0.5162  0.1122  0.2600
 3343TIP3    H231593   1.281   6.077   8.262 -0.0072  0.2828  0.3637
 3344TIP3   OH231594   6.304   6.761   0.236  0.5519  0.0895 -0.0600
 3344TIP3    H131595   6.348   6.680   0.210  0.8568 -0.2403  1.4046
 3344TIP3    H231596   6.375   6.825   0.242  0.4658  0.1901 -0.1207
 3345TIP3   OH231597   1.970   2.816   0.955 -0.3194  0.7942 -0.4132
 3345TIP3    H131598   2.004   2.903   0.937  1.4291 -0.0659 -1.4773
 3345TIP3    H231599   1.941   2.783   0.870  2.0584 -0.8437 -0.6995
 3346TIP3   OH231600   4.459   0.763   1.205 -0.4658 -0.4412  0.5298
 3346TIP3    H131601   4.387   0.780   1.266 -0.2477 -0.1550  0.7105
 3346TIP3    H231602   4.515   0.701   1.252 -0.4777 -0.4891  0.4806
 3347TIP3   OH231603   6.186   6.971   0.817  0.1482 -0.2161 -0.2096
 3347TIP3    H131604   6.149   6.885   0.837 -0.8051  0.2559  0.1003
 3347TIP3    H231605   6.188   6.974   0.722  0.0647 -0.5343 -0.2235
 3348TIP3   OH231606   6.316   5.893   7.414  0.0581  0.0450  0.4166
 3348TIP3    H131607   6.307   5.976   7.367 -1.0778  0.0267  0.5764
 3348TIP3    H231608   6.227   5.859   7.420  0.3959 -0.7474  1.1494
 3349TIP3   OH231609   5.942   3.669   6.678  0.1617 -0.2066 -0.2848
 3349TIP3    H131610   5.928   3.735   6.746 -1.3285 -1.4506  0.6794
 3349TIP3    H231611   5.855   3.632   6.663  0.2328  0.6254 -3.5536
 3350TIP3   OH231612   5.178   2.520   7.686  0.6276  0.1412 -0.5576
 3350TIP3    H131613   5.243   2.590   7.677  0.8423  0.0236  0.0112
 3350TIP3    H231614   5.101   2.553   7.640  1.0414  0.3432 -1.1164
 3351TIP3   OH231615   6.111   0.951   6.287 -0.5779 -0.3414  0.4983
 3351TIP3    H131616   6.205   0.939   6.296 -0.4293 -1.8799 -2.0370
 3351TIP3    H231617   6.101   1.041   6.256  0.0021 -0.0496  1.1338
 3352TIP3   OH231618   5.487   3.798   7.501 -0.3196  0.3478  0.3093
 3352TIP3    H131619   5.478   3.781   7.594 -0.0742 -1.4905  0.0372
 3352TIP3    H231620   5.495   3.712   7.461 -1.1538  1.0378 -1.5046
 3353TIP3   OH231621   1.699   5.155   1.716  0.0759  0.1544  0.0019
 3353TIP3    H131622   1.750   5.220   1.765 -0.8506  1.3058 -0.5247
 3353TIP3    H231623   1.762   5.118   1.654  0.6520  0.4469  0.4001
 3354TIP3   OH231624   1.243   4.065   0.398 -0.5557 -0.2952 -0.3053
 3354TIP3    H131625   1.218   4.154   0.375 -0.2059 -0.0802  0.1234
 3354TIP3    H231626   1.241   4.064   0.494 -0.1606 -0.6313 -0.2981
 3355TIP3   OH231627   0.883   6.114   7.621  0.1406 -0.0915  0.4511
 3355TIP3    H131628   0.807   6.091   7.674  0.3535  0.1898  0.8887
 3355TIP3    H231629   0.879   6.210   7.613  1.0683  0.0643  1.4714
 3356TIP3   OH231630   5.712   2.634   8.182  0.0230 -0.3626  0.4258
 3356TIP3    H131631   5.749   2.568   8.241 -0.6621 -0.2386  0.9989
 3356TIP3    H231632   5.674   2.700   8.240  0.0479  0.1674 -0.1507
 3357TIP3   OH231633   5.804   5.068   6.591 -0.0007 -0.4757  0.2247
 3357TIP3    H131634   5.728   5.115   6.627  0.6630  0.2337  0.7475
 3357TIP3    H231635   5.770   4.981   6.569 -1.0705 -0.0270  0.0114
 3358TIP3   OH231636   6.733   4.747   7.074  0.0068 -0.0358 -0.1684
 3358TIP3    H131637   6.688   4.665   7.093 -0.2974  0.0878 -0.3605
 3358TIP3    H231638   6.703   4.808   7.142 -0.0531  0.0226 -0.2473
 3359TIP3   OH231639   2.931   5.088   2.318 -0.3332  0.4620 -0.1175
 3359TIP3    H131640   2.882   5.162   2.283  0.1415 -0.3817 -2.8019
 3359TIP3    H231641   3.020   5.100   2.284  0.9845  0.9517  3.0740
 3360TIP3   OH231642   2.928   0.005   0.033 -0.8106 -0.3318  0.3539
 3360TIP3    H131643   3.009  -0.044   0.043 -1.2144 -1.1507 -0.2223
 3360TIP3    H231644   2.901  -0.013  -0.057 -0.8521  1.1545  0.0373
 3361TIP3   OH231645   3.977   1.110   8.150 -0.2347  0.2668 -0.3820
 3361TIP3    H131646   3.969   1.202   8.174  0.4161  0.3692 -0.5402
 3361TIP3    H231647   4.008   1.112   8.059  1.7806 -0.0853  0.2491
 3362TIP3   OH231648   5.458   0.093   8.121 -0.3886 -0.4146  0.1868
 3362TIP3    H131649   5.538   0.054   8.156 -0.9771 -1.0477  0.8750
 3362TIP3    H231650   5.419   0.023   8.069 -0.6549 -0.2210  0.1281
 3363TIP3   OH231651   3.714   5.209   0.267  0.1784  0.3757 -0.9185
 3363TIP3    H131652   3.756   5.253   0.193  2.1254 -0.3935 -0.3479
 3363TIP3    H231653   3.754   5.122   0.269  0.1525  0.3550  0.9953
 3364TIP3   OH231654   3.078   2.970   0.220  0.2918  0.5530 -0.2184
 3364TIP3    H131655   3.074   2.988   0.314 -2.5684 -0.8743  0.0513
 3364TIP3    H231656   3.117   2.883   0.214  1.4765  1.0815 -0.4800
 3365TIP3   OH231657   1.003   1.207   8.293  0.4450  0.4517  0.2041
 3365TIP3    H131658   1.082   1.253   8.265  1.7896 -2.0606 -0.4671
 3365TIP3    H231659   1.022   1.114   8.275 -1.7555 -0.4825  2.1721
 3366TIP3   OH231660   6.929   3.199   6.718 -0.0552  0.2567  0.3226
 3366TIP3    H131661   6.979   3.130   6.674 -0.0713  0.4518  0.0013
 3366TIP3    H231662   6.991   3.271   6.727 -0.0242  0.1859  0.7046
 3367TIP3   OH231663   5.663   2.641   1.171  0.4445  0.2357  0.9513
 3367TIP3    H131664   5.673   2.632   1.265 -1.7621  0.8483  1.2865
 3367TIP3    H231665   5.569   2.644   1.156  0.7123 -0.5600 -1.3561
 3368TIP3   OH231666   5.906   4.334   1.043 -0.2431 -0.2532  0.6641
 3368TIP3    H131667   5.837   4.387   1.081 -1.3343 -1.2654  0.1871
 3368TIP3    H231668   5.915   4.367   0.953  0.6530  0.5645  1.0375
 3369TIP3   OH231669   1.808   5.000   0.774 -0.3000 -0.5523 -0.1002
 3369TIP3    H131670   1.828   4.947   0.697 -0.6013  0.2438 -0.7390
 3369TIP3    H231671   1.716   5.025   0.762  0.2651  1.4286 -0.6302
 3370TIP3   OH231672   4.989   6.937   1.655  0.2932  0.4405 -0.2009
 3370TIP3    H131673   4.940   7.018   1.671  1.2048  0.6856  1.5955
 3370TIP3    H231674   4.938   6.892   1.588 -2.0998  0.9512  1.1405
 3371TIP3   OH231675   1.890   2.107   8.355 -0.0290  0.7242  0.2387
 3371TIP3    H131676   1.873   2.103   8.261  1.2926  0.1076  0.0060
 3371TIP3    H231677   1.854   2.191   8.382 -0.8934  0.6759 -0.7139
 3372TIP3   OH231678   5.741   2.391   0.532 -0.2195  0.0513 -0.1398
 3372TIP3    H131679   5.744   2.485   0.550 -2.3166  0.1395  0.0044
 3372TIP3    H231680   5.671   2.382   0.467  1.2416 -1.2328 -1.6231
 3373TIP3   OH231681   5.893   5.090   0.601 -0.3007 -0.0679  0.1084
 3373TIP3    H131682   5.893   5.094   0.505  0.2025 -1.3892  0.0274
 3373TIP3    H231683   5.983   5.112   0.626  0.2118 -1.9603  0.1079
 3374TIP3   OH231684   1.916   0.626   7.152 -0.3155 -0.9952 -0.0186
 3374TIP3    H131685   1.875   0.643   7.067  2.3631 -0.6625 -1.3491
 3374TIP3    H231686   1.976   0.700   7.165 -0.2190 -1.3503  1.8949
 3375TIP3   OH231687   0.108   1.152   7.378 -0.2975  0.2699  0.0745
 3375TIP3    H131688   0.122   1.061   7.405 -0.7919 -0.8694 -3.1175
 3375TIP3    H231689   0.186   1.198   7.408  0.6441 -1.5046  0.4983
 3376TIP3   OH231690   3.927   3.356   7.957  0.6412  0.3055  0.1412
 3376TIP3    H131691   3.869   3.337   8.031  0.5755  1.1459  0.3236
 3376TIP3    H231692   4.015   3.346   7.993  0.6080  0.3628  0.2422
 3377TIP3   OH231693   3.040   2.857   1.502  0.2297  0.4358  0.3175
 3377TIP3    H131694   3.088   2.791   1.453 -0.9183  0.5703 -1.0673
 3377TIP3    H231695   3.094   2.875   1.579  1.1780 -1.1541  0.0583
 3378TIP3   OH231696   1.969   5.887   1.241  0.4123 -0.1427  0.9495
 3378TIP3    H131697   2.020   5.812   1.271  1.0593  0.1563  0.6376
 3378TIP3    H231698   2.010   5.911   1.157 -0.2579  0.0961  0.6852
 3379TIP3   OH231699   2.605   5.567   1.767 -0.2771  0.0924  0.2741
 3379TIP3    H131700   2.603   5.530   1.679  1.4699 -0.4233  0.4250
 3379TIP3    H231701   2.606   5.492   1.826 -0.3140  0.4258  0.7123
 3380TIP3   OH231702   6.481   2.951   6.846 -0.3077  0.5588 -0.0873
 3380TIP3    H131703   6.458   2.885   6.781 -0.4561 -2.0365  2.4102
 3380TIP3    H231704   6.575   2.965   6.834  0.0598 -1.3376  0.3275
 3381TIP3   OH231705   4.715   3.112   7.083  0.2202  0.1929 -0.7258
 3381TIP3    H131706   4.713   3.055   7.006 -1.5746 -0.0982 -0.5021
 3381TIP3    H231707   4.807   3.138   7.091  1.1113 -2.5851 -0.8557
 3382TIP3   OH231708   0.939   2.881   7.091  0.1438 -0.5129  0.3896
 3382TIP3    H131709   0.859   2.932   7.101 -0.1484 -0.8200 -0.3101
 3382TIP3    H231710   0.985   2.923   7.018  0.3573 -0.6593  0.4404
 3383TIP3   OH231711   6.024   5.221   0.923 -0.1989 -0.2316  0.1058
 3383TIP3    H131712   6.049   5.154   0.986  0.9913 -0.4903 -0.6017
 3383TIP3    H231713   6.096   5.223   0.860 -0.1351  1.8255  0.1830
 3384TIP3   OH231714   1.430   6.695   6.231 -0.0329 -0.0086 -0.0797
 3384TIP3    H131715   1.417   6.603   6.257 -0.7052 -0.0143 -0.4180
 3384TIP3    H231716   1.419   6.695   6.136  2.6467 -0.0250 -0.4633
 3385TIP3   OH231717   1.460   6.640   8.392 -0.3753  0.4157 -0.1835
 3385TIP3    H131718   1.407   6.615   8.317 -0.9475  1.5424 -0.1769
 3385TIP3    H231719   1.461   6.736   8.389  0.5591  0.4411  0.5814
 3386TIP3   OH231720   4.128   6.255   7.690 -0.1843  0.4059  0.3769
 3386TIP3    H131721   4.130   6.244   7.595 -1.4411  0.4351  0.3242
 3386TIP3    H231722   4.115   6.166   7.724 -0.4277  0.4826  0.4843
 3387TIP3   OH231723   6.336   1.150   1.651 -0.4764  0.1605  0.1902
 3387TIP3    H131724   6.390   1.106   1.586  1.9638 -0.0604  2.2339
 3387TIP3    H231725   6.338   1.243   1.626  0.3179  0.0620 -0.1277
 3388TIP3   OH231726   1.070   0.269   7.305 -0.4633  0.2284 -0.2065
 3388TIP3    H131727   1.098   0.238   7.391  1.2444  0.7152 -0.5530
 3388TIP3    H231728   1.036   0.357   7.320  2.3694  1.4651 -0.3161
 3389TIP3   OH231729   3.655   0.764   7.660  0.4337  0.0273  0.1937
 3389TIP3    H131730   3.598   0.839   7.675 -0.6245 -1.0069  1.7191
 3389TIP3    H231731   3.658   0.720   7.745  3.4632 -0.0270  0.1550
 3390TIP3   OH231732   3.016   6.179   0.579  0.8678  0.4385  0.0048
 3390TIP3    H131733   2.925   6.173   0.608  0.7504  1.2777 -0.1644
 3390TIP3    H231734   3.067   6.179   0.661  0.8937 -2.0713  0.0765
 3391TIP3   OH231735   5.038   0.673   8.042  0.2651  0.3769  0.1316
 3391TIP3    H131736   5.064   0.754   8.085  0.7480 -0.4808  1.4894
 3391TIP3    H231737   4.944   0.684   8.026  0.1983  0.9537  0.8788
 3392TIP3   OH231738   6.695   5.464   0.509  0.6637 -0.1070  0.0486
 3392TIP3    H131739   6.766   5.401   0.502  0.2099 -0.5189 -0.9613
 3392TIP3    H231740   6.641   5.449   0.431  0.3603  1.2966 -0.0321
 3393TIP3   OH231741   4.333   6.982   0.273  0.7439  0.1005 -0.1472
 3393TIP3    H131742   4.378   6.898   0.281  0.7247  0.2323  1.9333
 3393TIP3    H231743   4.380   7.040   0.333 -2.2120  0.1877  2.3198
 3394TIP3   OH231744   4.318   1.701   6.023 -0.1697  0.0625  0.4634
 3394TIP3    H131745   4.397   1.721   6.073 -0.8282 -1.0846  2.0292
 3394TIP3    H231746   4.334   1.614   5.986 -0.0327  0.5463 -0.6507
 3395TIP3   OH231747   1.747   2.973   7.680  0.4325  0.1181  0.1256
 3395TIP3    H131748   1.809   3.033   7.638  0.1843  0.4550  0.2339
 3395TIP3    H231749   1.780   2.885   7.658 -0.1771  0.2690 -1.5315
 3396TIP3   OH231750   6.697   6.071   6.215 -0.1599 -0.5397  0.4217
 3396TIP3    H131751   6.675   5.991   6.263 -3.1332 -0.2256 -0.2674
 3396TIP3    H231752   6.762   6.115   6.270  0.1565 -2.4965  1.7172
 3397TIP3   OH231753   1.116   5.973   7.648  0.1090 -0.1191  0.2350
 3397TIP3    H131754   1.113   5.995   7.742 -0.6617  1.4113 -0.1153
 3397TIP3    H231755   1.041   6.019   7.611  0.3857 -0.7495 -1.1427
 3398TIP3   OH231756   3.320   2.390   1.088 -0.2290 -0.0415  0.6394
 3398TIP3    H131757   3.266   2.375   1.010  0.4945 -1.1301  0.3292
 3398TIP3    H231758   3.278   2.464   1.132 -0.0865  1.2509 -1.2798
 3399TIP3   OH231759   3.684   4.782   6.808  0.2467  0.3838 -0.2742
 3399TIP3    H131760   3.644   4.867   6.826 -0.0936  0.2994 -0.6192
 3399TIP3    H231761   3.778   4.800   6.804  0.3425  0.4299  1.4542
 3400TIP3   OH231762   0.678   4.927   0.699 -0.8214  0.3969  0.5284
 3400TIP3    H131763   0.607   4.963   0.645 -0.5722  0.6135  0.3447
 3400TIP3    H231764   0.685   4.836   0.672  0.5910  0.9643 -1.2037
 3401TIP3   OH231765   4.449   0.250   7.363  0.9318 -0.6330 -0.1345
 3401TIP3    H131766   4.483   0.325   7.315 -1.3981  1.7612  1.6137
 3401TIP3    H231767   4.522   0.188   7.366  1.9408  0.0357 -4.4933
 3402TIP3   OH231768   5.694   5.193   7.610  0.3146 -0.1428 -0.0625
 3402TIP3    H131769   5.753   5.197   7.685  0.2184 -0.1623  0.0139
 3402TIP3    H231770   5.609   5.219   7.645  0.0698 -1.0856  0.0413
 3403TIP3   OH231771   1.020   5.848   7.354 -0.1633 -0.1301 -0.8911
 3403TIP3    H131772   1.053   5.931   7.390  2.7079 -1.5491  0.0219
 3403TIP3    H231773   0.977   5.873   7.272  0.5223  2.2731 -0.6030
 3404TIP3   OH231774   3.171   3.823   2.528  0.0231 -0.6730  0.4437
 3404TIP3    H131775   3.211   3.802   2.444 -0.3199 -0.6689  0.2772
 3404TIP3    H231776   3.077   3.830   2.509  0.0814  0.7286  0.5505
 3405TIP3   OH231777   1.744   0.403   6.410  0.3660 -0.0357  0.0591
 3405TIP3    H131778   1.679   0.335   6.390 -0.8164  1.4816 -1.5916
 3405TIP3    H231779   1.734   0.420   6.504 -0.4204 -1.0092  0.1645
 3406TIP3   OH231780   3.221   1.402   0.443 -0.2234 -0.4223  0.5075
 3406TIP3    H131781   3.248   1.493   0.433 -1.0451  0.0858  2.4772
 3406TIP3    H231782   3.185   1.397   0.532 -2.5643 -2.0542 -0.4257
 3407TIP3   OH231783   4.470   5.381   8.073  0.1759  0.5046  0.4150
 3407TIP3    H131784   4.526   5.312   8.108  0.5196  0.8515  0.5696
 3407TIP3    H231785   4.479   5.375   7.978  0.4698  0.5493  0.4392
 3408TIP3   OH231786   6.362   2.064   7.442  0.5132 -0.4452 -0.1670
 3408TIP3    H131787   6.360   1.968   7.446  1.0106 -0.4465  0.1785
 3408TIP3    H231788   6.317   2.086   7.361  1.2009 -1.0215 -0.7236
 3409TIP3   OH231789   0.965   3.238   6.954 -0.1189 -0.3947  0.2075
 3409TIP3    H131790   0.969   3.225   7.048 -2.6866 -0.8743  0.3216
 3409TIP3    H231791   0.983   3.331   6.941  1.1856 -0.5156  1.0564
 3410TIP3   OH231792   2.176   4.525   7.540 -0.0571  0.2201 -0.2215
 3410TIP3    H131793   2.151   4.487   7.456 -1.8166  1.9794 -0.5666
 3410TIP3    H231794   2.232   4.458   7.581  0.5096 -0.8502 -2.5742
 3411TIP3   OH231795   5.552   1.567   0.815 -0.1231 -0.7192  0.0490
 3411TIP3    H131796   5.576   1.640   0.757 -0.9858  0.9537  1.6816
 3411TIP3    H231797   5.585   1.593   0.901 -1.6872 -1.5907  0.9577
 3412TIP3   OH231798   5.398   0.209   6.903 -0.2352  0.0533  0.7167
 3412TIP3    H131799   5.324   0.238   6.955  0.3308 -0.4382  1.8148
 3412TIP3    H231800   5.470   0.268   6.927 -0.7090  1.8712 -1.8223
 3413TIP3   OH231801   1.206   3.382   5.999 -0.3401 -0.0957  0.2777
 3413TIP3    H131802   1.125   3.400   5.951  0.6964  0.6930 -1.2798
 3413TIP3    H231803   1.262   3.457   5.979  1.4553 -1.5079 -0.2674
 3414TIP3   OH231804   4.342   0.414   1.103  0.2128  0.0334  0.4004
 3414TIP3    H131805   4.251   0.386   1.102  0.2518 -0.0760 -0.0976
 3414TIP3    H231806   4.340   0.503   1.066  0.5466 -0.7043 -1.4797
 3415TIP3   OH231807   0.211   6.122   0.815  0.0916 -0.0252  0.3545
 3415TIP3    H131808   0.293   6.162   0.845  0.4656  0.7973 -1.6044
 3415TIP3    H231809   0.229   6.028   0.816  2.0712  0.2008 -2.5137
 3416TIP3   OH231810   2.412   5.244   7.661 -0.0647 -0.7842  0.1245
 3416TIP3    H131811   2.351   5.179   7.626  0.1912 -1.5426  1.0496
 3416TIP3    H231812   2.441   5.208   7.745 -1.6451  1.5517  1.8104
 3417TIP3   OH231813   2.852   3.308   6.240  0.2220  0.0186 -0.5421
 3417TIP3    H131814   2.907   3.242   6.282 -1.7067 -0.7265  1.0022
 3417TIP3    H231815   2.908   3.386   6.235  1.7370 -0.9885 -0.0671
 3418TIP3   OH231816   5.298   5.710   7.814  0.1630 -0.3661  0.1355
 3418TIP3    H131817   5.263   5.758   7.739  2.2296 -0.4297 -0.9228
 3418TIP3    H231818   5.370   5.765   7.846 -0.7320 -0.2922  2.1711
 3419TIP3   OH231819   1.402   1.509   2.194 -0.3242  0.5757  0.3683
 3419TIP3    H131820   1.424   1.458   2.116  0.0776  1.3589 -0.0382
 3419TIP3    H231821   1.487   1.528   2.234 -0.4520  1.1286  0.3836
 3420TIP3   OH231822   5.690   6.544   0.771  0.4824 -0.0438  0.9427
 3420TIP3    H131823   5.739   6.466   0.742  1.2748  0.1131  1.8149
 3420TIP3    H231824   5.743   6.618   0.741 -0.5826  0.1850 -0.4196
 3421TIP3   OH231825   6.599   6.989   6.625  0.2690  0.5126 -0.1276
 3421TIP3    H131826   6.610   6.919   6.689  1.5812  0.9738  0.1842
 3421TIP3    H231827   6.661   6.967   6.555  0.2986  1.0749 -0.2851
 3422TIP3   OH231828   2.327   6.877   7.143  0.0133  0.0835  0.7229
 3422TIP3    H131829   2.294   6.882   7.053 -0.7665 -0.5862  0.9663
 3422TIP3    H231830   2.255   6.910   7.197  0.5297  0.6185  1.1008
 3423TIP3   OH231831   6.001   3.424   7.343  0.0395 -0.3501  0.1785
 3423TIP3    H131832   6.017   3.384   7.428  2.0379 -0.2213 -0.0874
 3423TIP3    H231833   5.992   3.349   7.283  1.2418 -0.4401  0.0943
 3424TIP3   OH231834   3.114   6.238   6.907 -0.0779 -0.9282 -0.3430
 3424TIP3    H131835   3.093   6.149   6.934 -2.7034 -0.1342  0.5641
 3424TIP3    H231836   3.114   6.234   6.811 -0.3048 -1.8713 -0.3143
 3425TIP3   OH231837   2.826   6.917   1.319 -0.3463 -0.4453 -0.4050
 3425TIP3    H131838   2.916   6.942   1.342 -0.3871 -2.2498  2.1260
 3425TIP3    H231839   2.833   6.882   1.230  0.9727  1.5379 -1.1560
 3426TIP3   OH231840   1.473   4.104   7.945  0.0804  0.1069 -0.3775
 3426TIP3    H131841   1.549   4.130   7.893 -0.0711  0.8773 -0.2265
 3426TIP3    H231842   1.420   4.052   7.884  1.0804 -1.1059 -0.2583
 3427TIP3   OH231843   0.649   5.682   7.853 -0.1905  0.5817 -0.0316
 3427TIP3    H131844   0.714   5.666   7.784 -1.1861  1.4966 -1.2417
 3427TIP3    H231845   0.668   5.618   7.920 -0.8707 -2.2832 -2.3755
 3428TIP3   OH231846   4.291   6.514   7.389 -0.4367  0.0241 -0.4961
 3428TIP3    H131847   4.249   6.451   7.332 -0.6818  0.2331 -0.5503
 3428TIP3    H231848   4.219   6.552   7.440 -0.1483 -0.5866  0.3769
 3429TIP3   OH231849   3.174   3.501   8.009 -0.1394  0.3105  0.4906
 3429TIP3    H131850   3.169   3.477   7.917  1.6535  1.1164  0.1476
 3429TIP3    H231851   3.252   3.456   8.042  0.2224  1.3705  1.1586
 3430TIP3   OH231852   3.695   6.071   0.760 -0.3986  0.8364  0.0660
 3430TIP3    H131853   3.657   6.073   0.848  1.6515 -1.6312  1.1396
 3430TIP3    H231854   3.626   6.033   0.705 -0.3332 -1.6418  1.5358
 3431TIP3   OH231855   5.187   2.572   2.007 -0.4869  0.4949  0.2934
 3431TIP3    H131856   5.222   2.556   2.095 -1.6120 -0.5253  0.5868
 3431TIP3    H231857   5.145   2.489   1.983  1.4369  0.0790 -2.0180
 3432TIP3   OH231858   2.672   4.775   6.987  0.1304 -0.1784 -0.2079
 3432TIP3    H131859   2.595   4.780   6.930 -0.2614 -0.9073  0.2414
 3432TIP3    H231860   2.689   4.681   6.996  1.5066 -0.0104 -0.8564
 3433TIP3   OH231861   4.401   1.348   1.305  0.1456 -0.0187 -0.4631
 3433TIP3    H131862   4.455   1.414   1.261  0.6410  0.8427  1.3332
 3433TIP3    H231863   4.414   1.269   1.254  2.5079  0.3616 -0.5739
 3434TIP3   OH231864   3.788   0.959   8.285 -0.4207  0.2166 -0.0245
 3434TIP3    H131865   3.714   0.939   8.227 -0.7044 -0.0129  0.4103
 3434TIP3    H231866   3.850   1.006   8.229 -1.1260  0.8885 -0.2649
 3435TIP3   OH231867   6.177   1.301   7.587 -0.2033 -0.2006 -0.2749
 3435TIP3    H131868   6.085   1.303   7.611 -0.4685  0.1216 -1.2739
 3435TIP3    H231869   6.180   1.335   7.497  0.8384 -0.5649 -0.4006
 3436TIP3   OH231870   1.233   0.466   7.911 -0.3843 -0.1314 -0.3567
 3436TIP3    H131871   1.322   0.500   7.917 -0.6979  0.7865 -0.7526
 3436TIP3    H231872   1.187   0.507   7.985 -0.0691 -1.9890  0.9592
 3437TIP3   OH231873   1.429   0.923   5.835 -0.0888 -0.0781  0.5628
 3437TIP3    H131874   1.483   0.915   5.913  1.1207 -2.0419 -0.3990
 3437TIP3    H231875   1.365   0.852   5.843  1.0427 -1.3249 -0.9232
 3438TIP3   OH231876   6.134   2.500   1.113  0.2962 -0.1238  0.0164
 3438TIP3    H131877   6.184   2.452   1.048 -1.3786 -2.7368  0.5091
 3438TIP3    H231878   6.168   2.470   1.197 -0.2579  0.1503  0.3447
 3439TIP3   OH231879   6.666   6.439   1.040  0.1418  0.1768 -0.5365
 3439TIP3    H131880   6.674   6.368   1.103  0.8803 -1.5208 -2.4254
 3439TIP3    H231881   6.749   6.486   1.046 -0.4042  1.0469  0.8206
 3440TIP3   OH231882   1.396   2.704   1.874  0.1539  0.4000  0.3354
 3440TIP3    H131883   1.385   2.797   1.894 -0.5538  0.3339  0.2879
 3440TIP3    H231884   1.313   2.664   1.900  0.8632 -0.4137  1.4662
 3441TIP3   OH231885   4.008   4.871   0.056 -0.2393 -0.4080 -0.1509
 3441TIP3    H131886   3.992   4.901  -0.033  0.6387 -2.3665 -1.0406
 3441TIP3    H231887   4.100   4.891   0.073 -0.3626 -0.1739  0.2565
 3442TIP3   OH231888   5.986   0.882   7.048 -0.0460  0.1566  0.3766
 3442TIP3    H131889   5.929   0.808   7.068  0.2253  0.4827  2.5360
 3442TIP3    H231890   6.059   0.843   7.000 -0.8262 -0.6521 -0.1925
 3443TIP3   OH231891   0.449   2.096   2.127  0.1202 -0.3599  0.4477
 3443TIP3    H131892   0.381   2.157   2.157  2.0998  1.5084  1.3598
 3443TIP3    H231893   0.511   2.150   2.079  0.3801 -2.2468 -1.5041
 3444TIP3   OH231894   5.897   0.471   6.818 -0.2332  0.8273  0.4108
 3444TIP3    H131895   5.924   0.516   6.738  1.5863  0.8112  0.9803
 3444TIP3    H231896   5.867   0.384   6.788 -0.8311  1.2864 -0.3635
 3445TIP3   OH231897   1.483   4.858   2.129 -0.2470 -0.2028  0.0535
 3445TIP3    H131898   1.396   4.892   2.151 -1.0789 -1.5060 -1.0794
 3445TIP3    H231899   1.519   4.924   2.069  0.3260  1.2368  1.8862
 3446TIP3   OH231900   0.180   4.635   6.738 -0.2413 -0.5498 -0.3168
 3446TIP3    H131901   0.112   4.667   6.678 -0.2477  0.2677  0.1084
 3446TIP3    H231902   0.143   4.555   6.775 -1.6725  0.6774  1.0800
 3447TIP3   OH231903   3.505   0.157   7.298 -0.3286 -0.4654 -0.0120
 3447TIP3    H131904   3.498   0.077   7.246 -1.1199 -1.2875  1.2673
 3447TIP3    H231905   3.594   0.156   7.332  0.5450  0.6255 -2.1119
 3448TIP3   OH231906   5.576   1.849   6.709  0.1125 -0.5263 -0.3615
 3448TIP3    H131907   5.510   1.903   6.754  0.1321  0.1106 -1.0672
 3448TIP3    H231908   5.635   1.913   6.668  0.6306 -1.0924 -0.5187
 3449TIP3   OH231909   1.394   6.863   0.273  0.4468  0.1453  0.4503
 3449TIP3    H131910   1.465   6.905   0.224 -0.2394  0.0362 -0.6548
 3449TIP3    H231911   1.439   6.815   0.342  1.5353 -0.5099 -0.6656
 3450TIP3   OH231912   2.932   2.046   7.548 -0.2554  0.1381 -0.2794
 3450TIP3    H131913   2.969   2.121   7.594 -0.7576 -0.9694  2.0963
 3450TIP3    H231914   3.008   2.000   7.512  0.2487  0.5715  0.2115
 3451TIP3   OH231915   0.258   2.579   6.129 -0.3049  0.3869 -0.3378
 3451TIP3    H131916   0.175   2.606   6.089 -0.6277  1.8650  1.2128
 3451TIP3    H231917   0.264   2.631   6.209  0.5729 -2.0086  1.2703
 3452TIP3   OH231918   2.236   6.559   8.325 -0.4999 -0.0332 -0.4505
 3452TIP3    H131919   2.292   6.513   8.261 -1.4441 -2.6013  0.4235
 3452TIP3    H231920   2.152   6.513   8.320 -0.8114  0.1348  2.1159
 3453TIP3   OH231921   6.040   0.328   6.325 -0.1154  0.2259  0.3011
 3453TIP3    H131922   5.971   0.266   6.346  0.4629 -0.5558 -0.0628
 3453TIP3    H231923   5.997   0.414   6.329 -2.1572 -0.3690 -3.7657
 3454TIP3   OH231924   6.395   3.118   7.825 -0.3300 -0.1529  0.2335
 3454TIP3    H131925   6.365   3.028   7.835 -1.5631 -0.1197 -2.3287
 3454TIP3    H231926   6.488   3.110   7.805 -0.2795 -0.7903  0.7038
 3455TIP3   OH231927   3.486   5.837   1.556  0.0559  0.6586  0.5187
 3455TIP3    H131928   3.455   5.823   1.645  0.7373  3.5821  1.3201
 3455TIP3    H231929   3.566   5.890   1.566 -0.2547  1.7130 -1.8190
 3456TIP3   OH231930   2.770   3.004   1.263  0.3304  0.2086 -0.1693
 3456TIP3    H131931   2.757   3.069   1.331  1.4115  0.7562 -0.4640
 3456TIP3    H231932   2.740   2.922   1.302 -0.6535  0.8005  0.3496
 3457TIP3   OH231933   4.018   2.699   0.903  0.1649 -0.6337 -0.1174
 3457TIP3    H131934   4.112   2.681   0.902 -0.3239 -3.6985 -0.3871
 3457TIP3    H231935   3.996   2.708   0.996  0.5391 -0.9362 -0.0007
 3458TIP3   OH231936   3.880   1.827   0.901  0.3102  0.2519  0.2085
 3458TIP3    H131937   3.914   1.740   0.881  3.1493  1.2767  0.1921
 3458TIP3    H231938   3.912   1.845   0.989 -1.0198  0.9718  0.5725
 3459TIP3   OH231939   4.522   4.302   7.867  0.5133  0.5092 -0.2298
 3459TIP3    H131940   4.441   4.280   7.822 -0.9856  1.1917  1.9894
 3459TIP3    H231941   4.579   4.337   7.798  0.0083 -2.4559 -2.3525
 3460TIP3   OH231942   1.576   4.113   1.241 -0.9382 -0.7430 -0.1666
 3460TIP3    H131943   1.591   4.069   1.325 -0.0057 -0.6266 -0.2596
 3460TIP3    H231944   1.504   4.065   1.201 -0.7881 -1.3749  0.2989
 3461TIP3   OH231945   4.584   0.371   7.114 -0.1283  0.5681 -0.4710
 3461TIP3    H131946   4.513   0.420   7.153  0.5992  1.6790 -0.5044
 3461TIP3    H231947   4.605   0.418   7.033 -0.8298 -1.0235 -1.6396
 3462TIP3   OH231948   2.728   2.304   6.545  0.3753  0.3437 -0.4103
 3462TIP3    H131949   2.686   2.387   6.522 -0.4075 -0.2586 -1.2309
 3462TIP3    H231950   2.755   2.267   6.462  1.5128  0.1645  0.0199
 3463TIP3   OH231951   0.506   1.017   6.115 -0.3004 -1.2233 -0.0923
 3463TIP3    H131952   0.501   1.112   6.107 -0.4168 -1.2890 -0.8053
 3463TIP3    H231953   0.436   0.994   6.177 -0.7932 -0.9223 -0.5309
 3464TIP3   OH231954   0.310   0.551   0.645  0.0441 -0.2355  0.4973
 3464TIP3    H131955   0.246   0.606   0.599 -0.5592  0.4012  2.0203
 3464TIP3    H231956   0.257   0.492   0.699  0.7081  0.3988  1.8993
 3465TIP3   OH231957   2.917   1.361   0.841  0.0945 -0.2868  0.0557
 3465TIP3    H131958   2.842   1.411   0.875 -0.1834 -0.3441 -0.4630
 3465TIP3    H231959   2.956   1.321   0.919  0.3916  0.8201  0.4966
 3466TIP3   OH231960   5.451   6.068   6.817 -0.4353  0.0055  1.0816
 3466TIP3    H131961   5.496   6.075   6.733  0.9791  0.9903  1.8685
 3466TIP3    H231962   5.391   5.995   6.806 -0.4917  0.2898 -0.8615
 3467TIP3   OH231963   1.919   6.031   6.892  0.5701 -0.0256  0.1788
 3467TIP3    H131964   1.919   5.976   6.813 -3.9174 -0.2469  0.0945
 3467TIP3    H231965   1.919   6.120   6.858  1.5198 -0.0466  0.0905
 3468TIP3   OH231966   5.865   5.843   7.651  0.0601  0.3143  0.6022
 3468TIP3    H131967   5.900   5.928   7.627 -0.3857  0.7710  1.5377
 3468TIP3    H231968   5.774   5.845   7.619 -0.3385  0.6824  1.7217
 3469TIP3   OH231969   5.688   1.102   7.127 -0.2325 -0.1632  0.0577
 3469TIP3    H131970   5.739   1.076   7.203 -1.5706 -0.8591  0.7591
 3469TIP3    H231971   5.751   1.105   7.055  1.1508  0.9141  1.2397
 3470TIP3   OH231972   3.926   1.169   1.644 -0.3721  0.0573 -0.2638
 3470TIP3    H131973   4.015   1.200   1.663  0.0715 -0.6065 -1.1992
 3470TIP3    H231974   3.938   1.093   1.587 -1.5069 -0.7892  0.5685
 3471TIP3   OH231975   3.677   3.674   1.189 -0.4248 -0.2588  0.0135
 3471TIP3    H131976   3.732   3.664   1.266  0.8558  0.5892 -0.7441
 3471TIP3    H231977   3.718   3.618   1.123 -0.7320  0.0323 -0.4257
 3472TIP3   OH231978   3.502   4.426   7.365 -0.2412  0.0546  0.0995
 3472TIP3    H131979   3.503   4.336   7.332  0.6337  0.0371  0.1522
 3472TIP3    H231980   3.440   4.472   7.307  1.9399  0.2422 -2.2485
 3473TIP3   OH231981   4.529   2.655   0.091 -0.0660  0.1329  0.4558
 3473TIP3    H131982   4.548   2.561   0.097  1.8345  0.3595 -1.1830
 3473TIP3    H231983   4.592   2.696   0.149  0.5008  0.5120 -0.4099
 3474TIP3   OH231984   3.354   4.385   1.778  0.9987 -0.2335 -0.2489
 3474TIP3    H131985   3.273   4.397   1.727  1.3837  2.3598 -0.3979
 3474TIP3    H231986   3.341   4.303   1.825 -1.3225 -0.3614 -0.9856
 3475TIP3   OH231987   4.184   3.524   7.622 -0.1021  0.5698  0.0826
 3475TIP3    H131988   4.272   3.538   7.656 -0.5030  3.1211  0.2814
 3475TIP3    H231989   4.127   3.570   7.684 -1.6657 -1.2556  0.1333
 3476TIP3   OH231990   2.359   1.475   6.906 -0.6125  0.5064 -0.0282
 3476TIP3    H131991   2.288   1.440   6.852  0.1564  0.2236 -0.9016
 3476TIP3    H231992   2.334   1.454   6.996 -1.2231 -0.3539 -0.3831
 3477TIP3   OH231993   0.810   4.696   2.158 -0.0769  0.1068 -0.5825
 3477TIP3    H131994   0.887   4.749   2.137 -0.8462  1.3623 -0.3619
 3477TIP3    H231995   0.842   4.633   2.222  0.6888  0.8877 -0.1563
 3478TIP3   OH231996   5.729   2.388   0.858  0.0122  0.2643  0.4607
 3478TIP3    H131997   5.734   2.309   0.804  0.6919  0.2802  0.4969
 3478TIP3    H231998   5.678   2.450   0.807 -0.0594 -0.0129  0.1978
 3479TIP3   OH231999   4.837   3.978   2.533 -0.7913  0.2227 -0.9559
 3479TIP3    H132000   4.838   4.004   2.441  0.5697  2.7049 -0.3378
 3479TIP3    H232001   4.929   3.973   2.558 -1.1440  0.3668  0.4571
 3480TIP3   OH232002   0.267   4.867   7.161  0.1614 -0.3979 -0.2622
 3480TIP3    H132003   0.221   4.879   7.244  0.2283  1.3757 -0.4242
 3480TIP3    H232004   0.202   4.830   7.102 -0.3942 -0.0902  0.1464
 3481TIP3   OH232005   0.543   5.235   7.243  0.5085  0.4857 -0.1873
 3481TIP3    H132006   0.602   5.300   7.281 -0.6645  0.5252  1.7212
 3481TIP3    H232007   0.487   5.208   7.316 -0.6334 -0.8830 -1.4982
 3482TIP3   OH232008   5.187   4.515   1.579  0.1982 -0.5133 -0.4805
 3482TIP3    H132009   5.183   4.563   1.662 -0.1575 -0.0307 -0.7732
 3482TIP3    H232010   5.186   4.423   1.605  1.3326 -0.3748  0.1078
 3483TIP3   OH232011   3.342   2.781   0.551 -0.0730 -0.6734  0.2779
 3483TIP3    H132012   3.342   2.691   0.584  1.6448 -1.1378 -0.8711
 3483TIP3    H232013   3.424   2.818   0.583 -0.1358  0.0482 -0.3878
 3484TIP3   OH232014   2.813   5.949   7.968  0.1281 -0.4579 -0.0645
 3484TIP3    H132015   2.719   5.956   7.984  0.4290  1.8157  1.0598
 3484TIP3    H232016   2.819   5.917   7.877 -1.6987 -0.6213 -0.1728
 3485TIP3   OH232017   5.475   0.441   0.699 -0.1392  0.3053 -0.4836
 3485TIP3    H132018   5.557   0.480   0.669 -0.1872  1.2710  0.5684
 3485TIP3    H232019   5.432   0.511   0.748 -1.8726  0.0087 -1.5115
 3486TIP3   OH232020   6.779   6.097   7.293 -0.1130  0.0486  0.5962
 3486TIP3    H132021   6.815   6.086   7.205  0.5074  0.8625  0.7327
 3486TIP3    H232022   6.849   6.066   7.351 -0.1341  0.4282  0.8270
 3487TIP3   OH232023   1.910   2.191   8.042  0.3020 -0.0565 -0.0176
 3487TIP3    H132024   1.991   2.159   8.003  0.1584 -0.0726 -0.2995
 3487TIP3    H232025   1.857   2.113   8.054 -0.6601  0.2242 -2.0978
 3488TIP3   OH232026   4.615   2.583   1.241  0.0166  0.6034  0.3311
 3488TIP3    H132027   4.637   2.657   1.185  1.0127 -0.3843 -0.6372
 3488TIP3    H232028   4.670   2.594   1.319  0.0153  0.9685  0.2816
 3489TIP3   OH232029   0.283   2.941   6.973 -0.5984 -0.0315  0.1231
 3489TIP3    H132030   0.366   2.898   6.952  0.6514  1.6940  1.1834
 3489TIP3    H232031   0.296   3.032   6.945 -1.4791  0.6670  1.7956
 3490TIP3   OH232032   5.087   0.874   2.465  0.3184 -0.2711  0.3984
 3490TIP3    H132033   5.175   0.909   2.452 -0.1456  2.0903  2.7214
 3490TIP3    H232034   5.030   0.929   2.411 -0.1009  0.7098  1.7947
 3491TIP3   OH232035   4.966   1.022   6.745 -0.2867 -0.2267 -0.3711
 3491TIP3    H132036   4.923   1.106   6.733 -1.4825 -1.0217 -1.9955
 3491TIP3    H232037   4.905   0.958   6.709  0.9012 -1.7263  0.1719
 3492TIP3   OH232038   6.414   2.359   7.623 -0.4191  0.0621 -0.3666
 3492TIP3    H132039   6.497   2.349   7.670  0.0658  0.9480 -1.0210
 3492TIP3    H232040   6.432   2.423   7.555 -1.8357  0.8071 -0.0870
 3493TIP3   OH232041   5.342   1.691   8.032 -0.1131 -0.7715  0.3189
 3493TIP3    H132042   5.434   1.717   8.024 -0.3072  0.0094  0.5307
 3493TIP3    H232043   5.331   1.620   7.968  0.7803 -1.2818  0.7258
 3494TIP3   OH232044   1.713   3.838   0.433  0.1850 -0.3007  0.3986
 3494TIP3    H132045   1.729   3.818   0.341 -1.0189 -0.4699  0.2100
 3494TIP3    H232046   1.682   3.929   0.433  0.7557 -0.0983  0.7127
 3495TIP3   OH232047   0.601   2.047   7.617 -0.1842 -0.6279 -0.0788
 3495TIP3    H132048   0.506   2.053   7.618 -0.1566 -0.2352  0.0979
 3495TIP3    H232049   0.629   2.079   7.703  0.0620 -1.5587  0.2046
 3496TIP3   OH232050   3.767   0.716   7.407  0.4975  0.2956  0.4378
 3496TIP3    H132051   3.708   0.734   7.480 -0.2925  0.6062 -0.2648
 3496TIP3    H232052   3.821   0.794   7.399  1.5544 -0.2850  1.5688
 3497TIP3   OH232053   5.389   4.050   7.352  0.2328 -0.0422  0.5527
 3497TIP3    H132054   5.394   3.990   7.426 -0.0511 -0.0437  0.5711
 3497TIP3    H232055   5.296   4.070   7.343  0.3411  0.5721  0.6947
 3498TIP3   OH232056   6.734   6.989   1.433  0.0110 -0.1956  0.4844
 3498TIP3    H132057   6.815   7.017   1.476 -0.6223 -0.2656  1.7787
 3498TIP3    H232058   6.733   7.036   1.350 -0.0633  2.1826  1.7278
 3499TIP3   OH232059   0.326   0.944   0.772 -0.5220  0.0101  0.4860
 3499TIP3    H132060   0.324   0.908   0.684 -1.0872  2.4722 -0.5920
 3499TIP3    H232061   0.310   0.869   0.829  1.7239 -2.0132 -1.3232
 3500TIP3   OH232062   6.094   2.370   6.292  0.0451  0.5135 -0.6538
 3500TIP3    H132063   6.123   2.461   6.286  2.4691 -0.0802  0.6720
 3500TIP3    H232064   6.152   2.323   6.233  1.3869 -0.5983  1.4005
 3501TIP3   OH232065   4.015   5.763   2.170 -0.4743 -0.6198  0.2582
 3501TIP3    H132066   3.937   5.811   2.200 -1.9152 -0.8906 -2.6844
 3501TIP3    H232067   3.983   5.674   2.155  0.9254 -1.2349  0.7894
 3502TIP3   OH232068   5.593   5.644   7.646 -0.1051 -0.1932 -0.8946
 3502TIP3    H132069   5.576   5.614   7.556  1.1415  1.5887 -1.7783
 3502TIP3    H232070   5.570   5.737   7.645 -0.9388 -0.3298  0.9259
 3503TIP3   OH232071   0.012   2.301   0.801 -0.3596 -0.0541 -0.5769
 3503TIP3    H132072  -0.066   2.356   0.807  0.3024  0.8493 -0.0719
 3503TIP3    H232073   0.011   2.250   0.882 -0.2919  0.1368 -0.4558
 3504TIP3   OH232074   1.966   4.966   0.269  0.2901 -0.3487  0.0825
 3504TIP3    H132075   2.001   4.907   0.336 -1.1019 -1.0562  0.2232
 3504TIP3    H232076   1.996   4.930   0.186  1.7146  0.3189  0.2831
 3505TIP3   OH232077   1.907   1.209   7.167  0.0086  0.4244 -0.2696
 3505TIP3    H132078   1.871   1.211   7.256  1.0596  2.5552  0.1687
 3505TIP3    H232079   1.967   1.134   7.167  1.2343  1.3296  1.3938
 3506TIP3   OH232080   6.564   3.618   7.350 -0.1034  0.9917  0.1194
 3506TIP3    H132081   6.487   3.574   7.386  0.8763 -1.0411 -0.0710
 3506TIP3    H232082   6.545   3.630   7.257 -0.2264  0.5578  0.0878
 3507TIP3   OH232083   3.055   1.739   0.833 -0.0599  0.7479  0.2365
 3507TIP3    H132084   3.095   1.816   0.872  1.0666  1.5863 -2.3830
 3507TIP3    H232085   3.129   1.681   0.813 -0.5564  0.4590 -0.8264
 3508TIP3   OH232086   0.947   6.743   1.130 -0.0567 -0.6844  0.1918
 3508TIP3    H132087   0.860   6.765   1.097 -0.1375 -1.6068 -0.2701
 3508TIP3    H232088   0.980   6.678   1.067  0.8378 -0.5701  0.5324
 3509TIP3   OH232089   0.462   1.156   0.717  0.2276 -0.7240 -0.2814
 3509TIP3    H132090   0.555   1.138   0.732  0.4828  0.9180  0.2837
 3509TIP3    H232091   0.417   1.081   0.755  1.2970 -1.2133  0.0635
 3510TIP3   OH232092   4.174   3.966   6.004  0.7697  0.2306 -0.8091
 3510TIP3    H132093   4.121   4.032   5.960  1.0359  0.3073 -1.0192
 3510TIP3    H232094   4.252   4.013   6.032  0.1308  0.4381  0.7188
 3511TIP3   OH232095   5.005   0.383   8.000 -0.9276  0.3666 -1.1856
 3511TIP3    H132096   5.033   0.474   8.014  0.4056 -0.1128 -0.6031
 3511TIP3    H232097   5.071   0.347   7.941  0.9279 -1.3697  1.7581
 3512TIP3   OH232098   4.634   3.104   0.769 -0.1185  0.5010 -0.6665
 3512TIP3    H132099   4.612   3.055   0.848  1.6699  0.8375  0.1015
 3512TIP3    H232100   4.668   3.039   0.708  2.1253  0.6851  0.3015
 3513TIP3   OH232101   4.915   2.037   8.312  0.1829  0.1592 -0.0066
 3513TIP3    H132102   4.880   2.109   8.261  0.4115 -0.0453 -0.4608
 3513TIP3    H232103   4.906   2.065   8.403  0.0407  0.6506 -0.1698
 3514TIP3   OH232104   6.558   4.127   8.271  0.7362  0.6233  0.0601
 3514TIP3    H132105   6.475   4.158   8.307 -0.0648  0.2876 -1.4098
 3514TIP3    H232106   6.598   4.077   8.342  0.2678  1.7982  1.1912
 3515TIP3   OH232107   2.992   4.480   7.516  0.7376 -0.0918 -0.9033
 3515TIP3    H132108   2.941   4.545   7.564 -1.0129 -2.1998  0.2395
 3515TIP3    H232109   2.927   4.428   7.470  1.9499 -2.0020 -0.5610
 3516TIP3   OH232110   6.141   3.699   0.503  0.3759 -0.0675 -0.1509
 3516TIP3    H132111   6.155   3.650   0.584  0.3600 -1.0309 -0.7174
 3516TIP3    H232112   6.088   3.642   0.448 -0.5832  1.0449 -0.4157
 3517TIP3   OH232113   4.926   2.236   6.235 -0.2528 -0.4138  0.1878
 3517TIP3    H132114   4.855   2.263   6.294  0.2520 -0.0170  0.6301
 3517TIP3    H232115   4.882   2.216   6.153 -0.7550  1.1158  0.0406
 3518TIP3   OH232116   3.241   5.331   1.995 -0.0743 -0.1535 -0.6300
 3518TIP3    H132117   3.324   5.305   1.954 -0.8834  0.6717 -2.9544
 3518TIP3    H232118   3.234   5.425   1.976 -1.2521 -0.0783  0.0815
 3519TIP3   OH232119   1.137   5.749   6.535  0.5304  0.0383 -0.7651
 3519TIP3    H132120   1.057   5.702   6.509  0.1344  0.8534 -1.0359
 3519TIP3    H232121   1.205   5.681   6.536  0.0022 -0.5143 -1.3380
 3520TIP3   OH232122   3.490   0.961   0.254  0.3353  0.1886 -0.5293
 3520TIP3    H132123   3.505   0.973   0.348 -2.3534 -0.0052  0.0291
 3520TIP3    H232124   3.493   1.049   0.218 -0.3249  0.4725  0.0793
 3521TIP3   OH232125   3.081   5.677   1.256  0.4236  0.1247  0.5587
 3521TIP3    H132126   3.130   5.735   1.315  1.6421 -1.1572  0.8568
 3521TIP3    H232127   3.148   5.630   1.207 -0.5028 -1.5864  0.8585
 3522TIP3   OH232128   1.808   4.655   0.049 -0.0145 -0.3517 -0.4755
 3522TIP3    H132129   1.794   4.602  -0.030  0.9261 -1.7374  0.2579
 3522TIP3    H232130   1.722   4.692   0.068 -0.1932  0.3032 -2.3353
 3523TIP3   OH232131   1.246   3.380   0.016 -0.7267 -0.0609  0.9522
 3523TIP3    H132132   1.296   3.397   0.096 -0.7646 -0.5682  1.0896
 3523TIP3    H232133   1.208   3.464  -0.007 -0.1930  0.2304  1.1112
 3524TIP3   OH232134   5.296   5.014   0.018  0.8631 -0.0721 -0.0287
 3524TIP3    H132135   5.337   5.077  -0.040  0.7736 -0.4780 -0.5400
 3524TIP3    H232136   5.233   4.968  -0.037  1.4792 -1.1445  0.1220
 3525TIP3   OH232137   5.398   1.101   1.640 -0.0420 -0.0326 -0.2521
 3525TIP3    H132138   5.465   1.123   1.705 -0.7450  2.2343 -0.2068
 3525TIP3    H232139   5.362   1.186   1.614  0.7395 -0.7438 -4.2295
 3526TIP3   OH232140   5.887   1.032   7.324 -0.2787 -0.0909 -0.2511
 3526TIP3    H132141   5.937   0.951   7.315 -0.7769 -0.2779 -1.6498
 3526TIP3    H232142   5.941   1.099   7.283 -0.0579  0.2112  0.5191
 3527TIP3   OH232143   4.463   1.136   2.315  1.0026 -0.1280 -0.1560
 3527TIP3    H132144   4.394   1.108   2.376  0.3973  1.3729 -0.1020
 3527TIP3    H232145   4.544   1.107   2.355  0.5005 -0.5920  0.5493
 3528TIP3   OH232146   4.709   2.321   0.511 -0.5070  0.5155  0.2421
 3528TIP3    H132147   4.762   2.312   0.590  1.0978 -0.8409 -0.9123
 3528TIP3    H232148   4.667   2.235   0.500  2.1321 -0.6064 -2.2235
 3529TIP3   OH232149   1.149   1.690   1.586  0.5214  0.2636 -0.4411
 3529TIP3    H132150   1.108   1.718   1.504 -0.3733 -0.6567 -0.3242
 3529TIP3    H232151   1.214   1.757   1.603  0.0546  0.9984 -1.3991
 3530TIP3   OH232152   2.372   1.351   7.993  0.6620  0.5665  0.1952
 3530TIP3    H132153   2.411   1.412   7.930 -0.3296 -1.7438 -2.9507
 3530TIP3    H232154   2.430   1.275   7.992 -0.1175 -0.0599  0.9988
 3531TIP3   OH232155   4.026   6.499   7.824  0.8094  0.1562  0.4938
 3531TIP3    H132156   4.051   6.424   7.769 -0.0693  0.6237 -0.5706
 3531TIP3    H232157   4.040   6.468   7.913 -2.4917 -2.4711  0.3170
 3532TIP3   OH232158   1.998   2.503   0.606  0.3961 -0.1422 -0.2614
 3532TIP3    H132159   2.079   2.554   0.610 -0.6866  1.6194  0.2731
 3532TIP3    H232160   1.931   2.562   0.642 -1.3552 -1.0834 -1.8406
 3533TIP3   OH232161   0.429   1.014   1.569 -0.1845  0.2353  0.6134
 3533TIP3    H132162   0.432   1.099   1.611 -1.9405  0.5237  0.2220
 3533TIP3    H232163   0.351   0.971   1.604 -0.4296 -0.4152 -0.6451
 3534TIP3   OH232164   6.123   3.769   8.117  0.5326  0.3150  0.1406
 3534TIP3    H132165   6.133   3.856   8.080  1.9051 -0.6668 -2.0339
 3534TIP3    H232166   6.086   3.716   8.046  0.2390 -0.9981  1.2199
 3535TIP3   OH232167   5.328   4.583   2.083 -0.9067 -0.5821  0.6997
 3535TIP3    H132168   5.276   4.580   2.163  0.6834  1.4299  1.9087
 3535TIP3    H232169   5.395   4.515   2.095  0.0380  0.4775  1.6681
 3536TIP3   OH232170   4.889   5.961   7.147 -0.0293 -0.0127 -0.1839
 3536TIP3    H132171   4.854   5.880   7.183 -0.0479 -0.9366 -2.1524
 3536TIP3    H232172   4.984   5.951   7.153 -0.0196  0.6647  1.2676
 3537TIP3   OH232173   3.133   1.946   0.989  0.6560  0.2200 -0.3828
 3537TIP3    H132174   3.060   1.999   1.021  0.8984  0.7832 -0.7510
 3537TIP3    H232175   3.154   1.888   1.062 -1.7957 -1.7582 -1.0910
 3538TIP3   OH232176   4.936   1.077   7.813  0.1208 -0.5922  0.2221
 3538TIP3    H132177   4.897   1.111   7.733 -1.1017 -0.9154  0.6555
 3538TIP3    H232178   4.925   1.147   7.877  0.9479 -0.3973  0.1602
 3539TIP3   OH232179   3.004   5.048   7.933 -0.1872  0.0077 -0.4306
 3539TIP3    H132180   2.947   4.992   7.880 -1.1785  0.6141 -0.0498
 3539TIP3    H232181   3.068   5.084   7.871  0.7244 -1.8264 -0.6102
 3540TIP3   OH232182   2.993   6.060   1.021  0.0057 -0.0934 -0.8745
 3540TIP3    H132183   2.989   6.053   1.117  1.6073  1.0075 -0.6951
 3540TIP3    H232184   2.903   6.077   0.994 -0.3868  0.0666  0.4830
 3541TIP3   OH232185   0.982   0.601   6.663  0.1221 -0.2995  0.2094
 3541TIP3    H132186   0.944   0.590   6.576  1.6496 -1.3316 -0.3624
 3541TIP3    H232187   1.060   0.545   6.663  2.6272  2.8983  0.7684
 3542TIP3   OH232188   0.398   2.943   0.137  0.2274  0.4643 -0.1667
 3542TIP3    H132189   0.418   2.849   0.144 -1.4166  0.1485  0.6273
 3542TIP3    H232190   0.344   2.950   0.058 -0.2567  0.6264  0.1762
 3543TIP3   OH232191   0.887   4.936   6.535 -0.1384  0.1699  0.1403
 3543TIP3    H132192   0.794   4.945   6.514 -0.1584  0.2382  0.2523
 3543TIP3    H232193   0.929   4.915   6.452 -0.1976  0.5655  0.0070
 3544TIP3   OH232194   6.381   1.066   0.785  0.7063  0.3511  0.3222
 3544TIP3    H132195   6.327   1.086   0.862 -1.2699 -3.4512  0.1466
 3544TIP3    H232196   6.463   1.034   0.821  0.5123  0.3894  0.8078
 3545TIP3   OH232197   6.662   2.991   7.671  0.0559  0.3616 -0.4210
 3545TIP3    H132198   6.629   2.904   7.648 -1.7037  0.1037  2.5756
 3545TIP3    H232199   6.757   2.980   7.673  0.0667 -0.6406 -2.9543
 3546TIP3   OH232200   5.621   1.197   0.457  0.0052  0.5833  0.3331
 3546TIP3    H132201   5.686   1.128   0.468 -1.0125 -0.4608 -0.0177
 3546TIP3    H232202   5.627   1.249   0.537  1.2079  0.4635  0.3340
 3547TIP3   OH232203   2.303   3.212   7.781 -0.1355 -0.0957 -0.3775
 3547TIP3    H132204   2.225   3.168   7.747 -0.8671  0.4218  0.5704
 3547TIP3    H232205   2.285   3.305   7.767  0.0071  0.0618  0.4596
 3548TIP3   OH232206   6.176   5.308   8.090 -0.4573 -0.5882 -0.1097
 3548TIP3    H132207   6.180   5.221   8.129  2.3727 -0.1770  0.7238
 3548TIP3    H232208   6.241   5.307   8.020 -1.4088  0.4458 -1.0494
 3549TIP3   OH232209   6.542   6.098   1.054  0.3915 -0.0590 -0.0605
 3549TIP3    H132210   6.492   6.051   0.987 -1.8262  2.9505 -0.7104
 3549TIP3    H232211   6.633   6.087   1.028 -0.1482 -2.0475 -1.3904
 3550TIP3   OH232212   6.232   4.811   0.972  0.0913 -0.1213  0.4683
 3550TIP3    H132213   6.160   4.751   0.993 -0.6445  0.2372 -0.9393
 3550TIP3    H232214   6.263   4.782   0.886  0.2582  1.0131  0.1287
 3551TIP3   OH232215   2.100   5.892   6.139  0.7059  0.9314  0.1478
 3551TIP3    H132216   2.020   5.850   6.171  1.6810 -0.5548  0.7433
 3551TIP3    H232217   2.081   5.986   6.143 -1.7372  0.6108 -1.6894
 3552TIP3   OH232218   5.969   2.882   8.251  0.2863 -0.1755  0.3250
 3552TIP3    H132219   6.009   2.921   8.329  2.1655  0.6368 -0.9759
 3552TIP3    H232220   6.039   2.832   8.211 -0.5455 -0.2835 -1.0344
 3553TIP3   OH232221   5.192   3.050   8.227 -0.4336  0.3638 -0.2011
 3553TIP3    H132222   5.222   3.127   8.275  0.7281  0.5188 -1.1183
 3553TIP3    H232223   5.153   2.993   8.293 -2.3645  2.2235  0.3322
 3554TIP3   OH232224   5.847   0.054   1.729 -0.1997 -0.2072  0.2731
 3554TIP3    H132225   5.804   0.044   1.814  1.3087 -0.6203  1.0097
 3554TIP3    H232226   5.791   0.005   1.668 -1.7307  0.7626  0.8468
 3555TIP3   OH232227   0.401   1.548   1.247  0.1456  0.2604 -0.0916
 3555TIP3    H132228   0.453   1.497   1.310  1.2842  0.4054 -0.8894
 3555TIP3    H232229   0.455   1.551   1.168 -1.3794 -0.1842 -1.2122
 3556TIP3   OH232230   4.943   5.342   0.389 -0.1029  0.0263  0.0830
 3556TIP3    H132231   4.991   5.284   0.331  0.5085 -0.6381  1.2242
 3556TIP3    H232232   5.010   5.384   0.443 -0.6218  0.9346  0.0508
 3557TIP3   OH232233   3.465   5.821   7.806 -0.3866  0.3112 -0.1698
 3557TIP3    H132234   3.421   5.898   7.771  1.5414  1.1794 -0.8312
 3557TIP3    H232235   3.394   5.764   7.834 -1.9025  1.7781 -0.8152
 3558TIP3   OH232236   1.028   5.552   8.388 -0.1061  0.8493  0.1112
 3558TIP3    H132237   1.057   5.609   8.316 -1.9801  2.2763  0.3944
 3558TIP3    H232238   1.051   5.600   8.467  1.2955 -0.3819  0.4830
 3559TIP3   OH232239   3.305   4.997   6.196  0.9239 -0.3204 -0.0215
 3559TIP3    H132240   3.354   5.054   6.137 -0.6533  0.0858 -0.9918
 3559TIP3    H232241   3.347   4.911   6.187  2.2017  0.2684  0.1027
 3560TIP3   OH232242   0.925   6.515   5.992  0.0423 -0.2431 -0.5320
 3560TIP3    H132243   0.845   6.521   5.938 -0.3578 -0.2377  0.0520
 3560TIP3    H232244   0.961   6.429   5.971  1.3236  0.7652 -2.7651
 3561TIP3   OH232245   2.063   5.392   0.426 -0.1717  0.6502 -0.4454
 3561TIP3    H132246   2.015   5.351   0.354 -1.0498  2.4922 -0.9854
 3561TIP3    H232247   1.998   5.401   0.496  0.6634 -1.0863  0.6316
 3562TIP3   OH232248   1.819   5.616   6.983 -0.3784  0.0210 -0.2333
 3562TIP3    H132249   1.816   5.632   6.889  1.6260 -1.1908 -0.5584
 3562TIP3    H232250   1.882   5.681   7.016  0.0243 -0.4852  0.0152
 3563TIP3   OH232251   1.055   1.457   6.901  0.5751  0.3497 -0.0925
 3563TIP3    H132252   1.141   1.452   6.861  0.4353 -0.9470 -0.2758
 3563TIP3    H232253   1.000   1.498   6.835  0.8976  0.5286 -0.2510
 3564TIP3   OH232254   4.684   4.923   1.876  0.3096 -0.2019  0.6345
 3564TIP3    H132255   4.664   4.997   1.935  0.4273  1.3118 -1.1306
 3564TIP3    H232256   4.778   4.908   1.889  0.2541 -0.1648  1.1175
 3565TIP3   OH232257   1.371   3.147   7.110 -0.1849  0.4349 -0.1142
 3565TIP3    H132258   1.342   3.215   7.171 -2.3222 -1.0404  0.6572
 3565TIP3    H232259   1.342   3.177   7.024 -0.7700  0.7029  0.1726
 3566TIP3   OH232260   6.663   1.870   7.954 -0.7722  0.5380 -0.2966
 3566TIP3    H132261   6.680   1.881   8.047  1.5604 -0.3338 -0.5438
 3566TIP3    H232262   6.613   1.789   7.948 -0.0849  0.0713  0.1569
 3567TIP3   OH232263   4.693   2.376   7.852 -0.0751 -0.1172  0.2667
 3567TIP3    H132264   4.649   2.303   7.896  2.2621 -0.6354  1.9165
 3567TIP3    H232265   4.686   2.356   7.759 -0.4953 -1.8322  0.6332
 3568TIP3   OH232266   4.438   2.349   1.541 -0.2787 -0.5322 -0.2174
 3568TIP3    H132267   4.435   2.438   1.575  2.4600 -0.1059 -0.7876
 3568TIP3    H232268   4.411   2.357   1.450  0.6705 -0.1211 -0.4734
 3569TIP3   OH232269   6.622   4.038   1.598 -0.1842 -0.4938  0.2047
 3569TIP3    H132270   6.713   4.046   1.569 -0.1468 -0.5820  0.2978
 3569TIP3    H232271   6.596   4.127   1.622 -0.6182 -0.1771 -1.2950
 3570TIP3   OH232272   3.776   4.261   1.459 -0.4050  0.1543 -0.0741
 3570TIP3    H132273   3.774   4.202   1.383 -1.6163 -1.2972  1.0032
 3570TIP3    H232274   3.692   4.307   1.456 -2.2820 -2.6786  2.3022
 3571TIP3   OH232275   4.542   2.223   7.033 -0.0395 -0.3366  0.0414
 3571TIP3    H132276   4.448   2.206   7.038 -0.1662  0.6304  1.7925
 3571TIP3    H232277   4.558   2.245   6.941 -1.6238  0.0142 -0.1706
 3572TIP3   OH232278   6.934   0.083   1.153 -0.2799  0.4905 -0.2231
 3572TIP3    H132279   6.868   0.147   1.181  2.4897  3.5483 -0.1236
 3572TIP3    H232280   6.935   0.090   1.057 -1.2211 -0.8430 -0.3560
 3573TIP3   OH232281   0.128   2.821   0.267 -0.0131  0.0730  0.1270
 3573TIP3    H132282   0.179   2.887   0.220  0.2293 -0.0361  0.2359
 3573TIP3    H232283   0.116   2.857   0.355  0.9834 -0.4670  0.4976
 3574TIP3   OH232284   6.626   3.756   1.554  0.3016  0.2678 -0.3633
 3574TIP3    H132285   6.531   3.765   1.553  0.2453 -0.2713 -1.6061
 3574TIP3    H232286   6.658   3.835   1.597 -0.7961 -0.8204  2.7469
 3575TIP3   OH232287   3.747   5.452   0.971 -0.2641  0.2708  0.0225
 3575TIP3    H132288   3.776   5.508   0.898  3.2693 -0.8573  0.3566
 3575TIP3    H232289   3.753   5.509   1.047 -0.5650  0.5292 -0.1477
 3576TIP3   OH232290   4.827   1.486   0.935  0.3689 -0.1587 -0.4308
 3576TIP3    H132291   4.860   1.539   1.007 -0.7013  0.8413 -0.6334
 3576TIP3    H232292   4.895   1.491   0.868  1.4252 -1.2021  0.5308
 3577TIP3   OH232293   0.103   5.529   8.324 -0.2639 -0.2087  0.1297
 3577TIP3    H132294   0.025   5.585   8.322  0.3111  0.6169  0.1753
 3577TIP3    H232295   0.134   5.530   8.233 -0.2210 -0.4091  0.1434
 3578TIP3   OH232296   1.795   3.324   0.457  0.0710  0.6482 -0.5383
 3578TIP3    H132297   1.845   3.259   0.506  1.1554  1.5571 -0.3888
 3578TIP3    H232298   1.776   3.282   0.374 -0.3816 -0.3263  0.0338
 3579TIP3   OH232299   1.780   2.239   6.226 -0.2818  0.1703 -0.3068
 3579TIP3    H132300   1.781   2.179   6.151 -1.2429 -0.2628  0.0076
 3579TIP3    H232301   1.827   2.192   6.295 -0.3773  0.0921 -0.2943
 3580TIP3   OH232302   0.272   6.564   7.891  0.2879  0.0070  0.2263
 3580TIP3    H132303   0.263   6.577   7.985  3.3332 -1.9220  0.9568
 3580TIP3    H232304   0.206   6.499   7.869 -0.7129  0.7654  0.9205
 3581TIP3   OH232305   6.641   0.797   2.217 -0.7409  0.3106  0.4751
 3581TIP3    H132306   6.551   0.815   2.244 -0.0429  1.5272  2.2187
 3581TIP3    H232307   6.658   0.708   2.249 -1.7441 -0.5183 -1.1772
 3582TIP3   OH232308   3.864   0.311   1.487 -0.3723 -0.2289 -0.4679
 3582TIP3    H132309   3.811   0.297   1.408  0.4526 -1.0379 -0.8866
 3582TIP3    H232310   3.825   0.253   1.553  0.9091 -2.0197 -1.2181
 3583TIP3   OH232311   4.252   2.679   0.556  0.4141 -0.2285 -0.4741
 3583TIP3    H132312   4.298   2.671   0.472  0.0253 -1.2902 -0.5998
 3583TIP3    H232313   4.321   2.686   0.621  0.7210  0.4499 -0.8601
 3584TIP3   OH232314   3.518   6.454   1.172 -0.2491 -0.0550  0.6298
 3584TIP3    H132315   3.572   6.389   1.218 -2.1066  0.0006  3.0751
 3584TIP3    H232316   3.578   6.526   1.155  0.8680 -0.6931  1.6783
 3585TIP3   OH232317   6.604   1.835   6.618  0.6207 -0.4804 -0.8525
 3585TIP3    H132318   6.570   1.919   6.650 -2.5611 -1.7419 -0.5375
 3585TIP3    H232319   6.654   1.800   6.692  0.0640  0.1395 -0.1710
 3586TIP3   OH232320   6.646   6.168   2.167  0.3475 -0.4711  0.1552
 3586TIP3    H132321   6.554   6.196   2.167  0.6715  0.7267 -1.5046
 3586TIP3    H232322   6.695   6.245   2.195  0.9017 -0.9305  0.4683
 3587TIP3   OH232323   6.904   6.528   7.019  0.1359 -0.6909  0.1483
 3587TIP3    H132324   6.879   6.489   7.103 -2.5639 -1.9140 -1.1104
 3587TIP3    H232325   6.923   6.454   6.962  0.6896  0.0786 -0.6979
 3588TIP3   OH232326   4.296   6.401   1.620 -0.1889 -0.2726  0.0511
 3588TIP3    H132327   4.241   6.345   1.565  0.3648 -0.9221  0.1462
 3588TIP3    H232328   4.234   6.462   1.661 -0.8325 -0.9338  0.0877
 3589TIP3   OH232329   0.838   6.363   2.019 -0.2860  0.4005 -0.3095
 3589TIP3    H132330   0.748   6.331   2.009 -0.1702 -0.1390  0.3412
 3589TIP3    H232331   0.882   6.335   1.939 -0.1213 -1.3266  0.3489
 3590TIP3   OH232332   3.820   5.364   0.056  0.0053 -0.0180 -0.1332
 3590TIP3    H132333   3.812   5.460   0.055  0.9683  0.0802 -1.1419
 3590TIP3    H232334   3.913   5.348   0.068 -0.4208 -0.9048  2.5236
 3591TIP3   OH232335   3.119   3.070   6.744  0.4413 -0.0884  0.0245
 3591TIP3    H132336   3.176   3.147   6.732  0.1762  0.3294  1.3087
 3591TIP3    H232337   3.175   2.996   6.721  0.6934  0.4728 -1.2700
 3592TIP3   OH232338   2.165   3.105   7.256  0.1353 -0.0789 -0.1999
 3592TIP3    H132339   2.257   3.098   7.233  0.8740  0.7714  2.1709
 3592TIP3    H232340   2.144   3.198   7.245  0.5276  0.3774  2.2186
 3593TIP3   OH232341   6.490   2.095   6.717  0.4399  0.4300 -0.0099
 3593TIP3    H132342   6.424   2.077   6.784  0.4300 -2.2103 -0.5854
 3593TIP3    H232343   6.543   2.166   6.752 -1.2092  0.9408  1.5637
 3594TIP3   OH232344   5.234   2.002   0.534  0.0029  0.1404  0.2792
 3594TIP3    H132345   5.201   1.916   0.507  1.8559 -1.1926  1.9906
 3594TIP3    H232346   5.201   2.062   0.467 -0.1849 -2.1091 -1.7827
 3595TIP3   OH232347   0.682   0.029   0.245 -0.3680 -0.3685 -0.5935
 3595TIP3    H132348   0.725   0.004   0.327 -0.5107 -0.7255 -0.6264
 3595TIP3    H232349   0.635   0.109   0.266 -1.3851 -1.1017 -0.0083
 3596TIP3   OH232350   5.702   6.965   8.174 -0.6344  0.1040  0.2560
 3596TIP3    H132351   5.770   7.027   8.200 -1.2234  0.5725  0.7067
 3596TIP3    H232352   5.744   6.909   8.109  0.2596  0.2137  0.7282
 3597TIP3   OH232353   5.690   6.922   0.282  0.0657 -0.0472 -0.5434
 3597TIP3    H132354   5.696   6.972   0.364  2.7299 -0.4697 -0.3880
 3597TIP3    H232355   5.693   6.831   0.309 -0.7101 -0.2441 -1.0666
 3598TIP3   OH232356   6.603   6.904   7.302 -0.4827 -0.6924 -0.3762
 3598TIP3    H132357   6.559   6.954   7.233 -0.1396 -0.0887 -0.1563
 3598TIP3    H232358   6.678   6.957   7.327 -1.8852  0.2619  2.1154
 3599TIP3   OH232359   0.281   4.638   8.209  0.5369 -0.4503 -0.1791
 3599TIP3    H132360   0.361   4.651   8.157  1.3060  0.7579  1.2270
 3599TIP3    H232361   0.254   4.726   8.234 -1.1685 -0.8595 -0.4843
 3600TIP3   OH232362   3.740   1.618   8.195  0.3693  0.4268  0.2754
 3600TIP3    H132363   3.755   1.523   8.197  0.0810  0.3826  0.4271
 3600TIP3    H232364   3.785   1.647   8.115  1.6387  0.3755  0.9494
 3601TIP3   OH232365   5.050   0.860   6.947 -0.1900  0.4498 -0.1463
 3601TIP3    H132366   4.977   0.814   6.990 -0.4932  1.3176  0.2923
 3601TIP3    H232367   5.008   0.932   6.900  0.1394 -0.4679 -1.9119
 3602TIP3   OH232368   0.304   6.039   7.551  0.2091 -0.3432 -0.5884
 3602TIP3    H132369   0.311   5.944   7.544 -1.5263 -0.6505  0.8619
 3602TIP3    H232370   0.395   6.070   7.560  0.8285 -1.7793 -1.5895
 3603TIP3   OH232371   1.427   3.909   1.068 -0.1887 -0.3078  0.3351
 3603TIP3    H132372   1.502   3.853   1.049  0.2829  0.3162  0.3319
 3603TIP3    H232373   1.385   3.867   1.143 -0.1569 -0.9575  0.0009
 3604TIP3   OH232374   2.575   0.037   0.410 -0.1425 -0.5790  0.5898
 3604TIP3    H132375   2.532  -0.044   0.384  0.3184 -1.1105  1.4167
 3604TIP3    H232376   2.663   0.030   0.372 -0.8026  0.5923 -1.2642
 3605TIP3   OH232377   3.490   6.817   6.897 -0.7262  0.5628 -0.0079
 3605TIP3    H132378   3.410   6.765   6.887  1.4407 -3.3336  0.7419
 3605TIP3    H232379   3.485   6.852   6.986 -1.2006 -0.4210  0.3662
 3606TIP3   OH232380   2.307   2.212   1.392  0.1421 -0.3097 -0.4762
 3606TIP3    H132381   2.381   2.159   1.366  0.2112  0.1946 -1.3377
 3606TIP3    H232382   2.234   2.180   1.340  0.3891  1.0199 -1.7106
 3607TIP3   OH232383   4.098   6.522   0.255 -0.2563 -0.0167 -0.3123
 3607TIP3    H132384   4.007   6.534   0.284 -0.5209 -0.5528 -0.8931
 3607TIP3    H232385   4.151   6.557   0.327 -0.9225  0.3299  0.0190
 3608TIP3   OH232386   6.641   6.857   1.062  0.4901 -0.2684 -0.1471
 3608TIP3    H132387   6.725   6.843   1.105  1.2849 -2.6365 -2.2273
 3608TIP3    H232388   6.663   6.884   0.973 -0.8628 -1.7134 -0.9827
 3609TIP3   OH232389   0.174   4.523   0.943 -0.4001  0.1323  0.3611
 3609TIP3    H132390   0.250   4.575   0.917  0.4861 -1.3724 -0.1627
 3609TIP3    H232391   0.203   4.475   1.020 -0.7371 -0.6150  0.0314
 3610TIP3   OH232392   2.949   5.740   2.186  0.5242 -0.1961 -0.4216
 3610TIP3    H132393   2.864   5.712   2.154 -0.4225  0.7729  1.1182
 3610TIP3    H232394   2.978   5.806   2.122  0.8830 -1.6239 -1.7929
 3611TIP3   OH232395   3.250   5.713   0.610 -0.1158  0.5084 -0.4936
 3611TIP3    H132396   3.209   5.630   0.586  0.2143 -0.1651  1.1184
 3611TIP3    H232397   3.218   5.776   0.545 -0.0971 -0.9350 -1.9528
 3612TIP3   OH232398   2.847   3.895   6.417  0.4834  0.4135  0.1920
 3612TIP3    H132399   2.774   3.912   6.476  0.7731 -0.3154  0.7773
 3612TIP3    H232400   2.830   3.951   6.341 -0.5555  0.4339  0.4217
 3613TIP3   OH232401   3.176   0.077   7.965 -0.2412  0.5983  0.1171
 3613TIP3    H132402   3.161   0.006   8.027  0.1064  1.4784  1.2560
 3613TIP3    H232403   3.245   0.045   7.907  1.3530  0.7189  1.8561
 3614TIP3   OH232404   6.008   2.143   2.512  0.4857  0.5572 -0.4994
 3614TIP3    H132405   6.064   2.078   2.555 -1.2809  0.2787  1.5707
 3614TIP3    H232406   6.049   2.157   2.427  3.1491 -0.2919  0.5340
 3615TIP3   OH232407   6.252   0.307   6.133  0.0331 -0.1087 -0.1058
 3615TIP3    H132408   6.174   0.323   6.186 -1.8472 -1.3185 -2.3304
 3615TIP3    H232409   6.256   0.212   6.124  2.1937 -0.1220  0.4761
 3616TIP3   OH232410   6.312   2.468   0.514  0.1017 -0.1106  0.0081
 3616TIP3    H132411   6.233   2.416   0.499  1.4662 -2.2799 -0.0370
 3616TIP3    H232412   6.285   2.534   0.579 -2.2492  0.5859 -1.5498
 3617TIP3   OH232413   3.304   6.042   1.017  0.0683 -0.4306  0.5343
 3617TIP3    H132414   3.309   5.946   1.018 -0.4027 -0.4597  1.2672
 3617TIP3    H232415   3.210   6.060   1.028 -0.0385  0.1149 -0.9605
 3618TIP3   OH232416   3.035   4.224   1.446  0.4549 -0.3546 -0.6121
 3618TIP3    H132417   3.069   4.173   1.520  2.9171 -0.6682 -1.8365
 3618TIP3    H232418   2.978   4.163   1.400 -1.9557  0.1601  1.4953
 3619TIP3   OH232419   3.403   0.837   0.692  0.2886 -0.2074  0.4227
 3619TIP3    H132420   3.349   0.849   0.614 -0.7742  1.1139  1.3274
 3619TIP3    H232421   3.424   0.743   0.692 -2.2095 -0.8347  0.1521
 3620TIP3   OH232422   3.217   3.710   1.162  0.1769 -0.7057 -0.1748
 3620TIP3    H132423   3.282   3.691   1.230  0.6549  1.5029  0.0690
 3620TIP3    H232424   3.268   3.715   1.081  0.0969 -0.3268 -0.2022
 3621TIP3   OH232425   0.405   4.399   6.999 -0.1936 -0.3692 -0.6559
 3621TIP3    H132426   0.482   4.454   7.011 -1.2209  0.8695  0.4292
 3621TIP3    H232427   0.387   4.362   7.085 -1.2047 -0.0999 -0.7351
 3622TIP3   OH232428   5.105   0.965   8.131  0.0774  0.4124 -0.3411
 3622TIP3    H132429   5.085   1.020   8.207 -2.3021 -2.5456  1.4343
 3622TIP3    H232430   5.199   0.952   8.134  0.3473  2.3278  0.6068
 3623TIP3   OH232431   6.025   0.858   0.047 -0.1024 -0.4463 -0.3616
 3623TIP3    H132432   5.938   0.895   0.032 -0.1728 -0.3859  0.1724
 3623TIP3    H232433   6.080   0.895  -0.022 -0.1301  0.7938  0.2626
 3624TIP3   OH232434   3.494   2.824   6.928 -0.9991  0.5281  0.3672
 3624TIP3    H132435   3.547   2.780   6.994 -2.5513  1.0311  2.0284
 3624TIP3    H232436   3.498   2.766   6.852 -0.1296 -0.6782  1.2841
 3625TIP3   OH232437   5.256   1.761   8.300 -0.7064  0.6958 -0.1631
 3625TIP3    H132438   5.297   1.736   8.216 -0.3472  0.0383  0.1943
 3625TIP3    H232439   5.176   1.708   8.304 -0.4044  0.2579  0.1881
 3626TIP3   OH232440   3.350   3.354   1.071 -0.0529 -0.0164 -0.1863
 3626TIP3    H132441   3.343   3.342   0.976  0.1125 -0.0218 -0.1970
 3626TIP3    H232442   3.281   3.298   1.107  0.2801 -0.4824 -0.2708
 3627TIP3   OH232443   6.237   4.959   0.446  0.0798  0.0524  0.2985
 3627TIP3    H132444   6.218   5.040   0.397  0.2855  0.3871  0.7627
 3627TIP3    H232445   6.270   4.898   0.380 -0.5121  0.1934 -0.1380
 3628TIP3   OH232446   2.472   2.133   0.015  0.6670  0.1378 -0.7584
 3628TIP3    H132447   2.405   2.120   0.082  1.1732  0.1792 -0.2426
 3628TIP3    H232448   2.438   2.086  -0.062  0.4625 -0.6027 -0.2243
 3629TIP3   OH232449   5.680   3.927   1.478 -0.1347  0.2122 -0.0585
 3629TIP3    H132450   5.697   3.871   1.402 -2.0677  1.0742 -1.1913
 3629TIP3    H232451   5.726   4.008   1.460 -0.4028  0.3313 -0.2174
 3630TIP3   OH232452   0.195   2.045   7.044 -0.1012  0.1045  0.3383
 3630TIP3    H132453   0.253   2.062   6.970 -1.6922 -0.6602 -1.1584
 3630TIP3    H232454   0.249   2.060   7.122  1.8754  0.0647 -0.9720
 3631TIP3   OH232455   0.372   1.157   6.990 -0.3035  0.4760  0.0142
 3631TIP3    H132456   0.281   1.133   7.006  0.1814 -1.5459  0.0525
 3631TIP3    H232457   0.368   1.246   6.954 -2.2145  0.7059  0.6787
 3632TIP3   OH232458   2.526   2.879   1.594 -0.0778 -0.5510 -0.5451
 3632TIP3    H132459   2.564   2.867   1.681  0.9457 -0.0398 -0.9088
 3632TIP3    H232460   2.451   2.819   1.592 -0.9408  0.3928  1.1605
 3633TIP3   OH232461   3.182   3.771   0.221  0.2708  0.8531 -0.5349
 3633TIP3    H132462   3.150   3.707   0.158 -2.9353  1.2666  0.4545
 3633TIP3    H232463   3.208   3.846   0.168  1.8165 -0.3594 -1.5562
 3634TIP3   OH232464   6.522   3.408   0.593 -0.2701 -0.4215 -0.1747
 3634TIP3    H132465   6.482   3.365   0.668  0.4363 -0.0119  0.4632
 3634TIP3    H232466   6.534   3.499   0.622 -0.3559 -0.1618 -0.9340
 3635TIP3   OH232467   2.738   6.022   0.858  0.7998  0.2066 -0.5951
 3635TIP3    H132468   2.688   6.084   0.805 -0.1846 -0.1304 -0.1011
 3635TIP3    H232469   2.737   5.941   0.806 -1.8913 -0.7315  0.7102
 3636TIP3   OH232470   4.356   5.639   6.095  0.0142  0.2181  0.6312
 3636TIP3    H132471   4.312   5.583   6.159 -1.4737  0.9567  0.3017
 3636TIP3    H232472   4.301   5.717   6.090  0.4828  0.4789 -1.0314
 3637TIP3   OH232473   6.775   0.320   0.852  0.1726 -0.8669  0.0621
 3637TIP3    H132474   6.797   0.350   0.764  0.4192 -1.5997 -0.1360
 3637TIP3    H232475   6.844   0.356   0.907  0.6445 -1.3167 -0.2209
 3638TIP3   OH232476   4.479   2.869   1.943  0.0946 -0.0192 -0.6706
 3638TIP3    H132477   4.502   2.894   2.033 -0.2824  0.1266 -0.6159
 3638TIP3    H232478   4.522   2.784   1.930  0.0156 -0.1170 -0.2970
 3639TIP3   OH232479   1.807   3.248   8.186 -0.1384  0.1665  0.3802
 3639TIP3    H132480   1.895   3.259   8.223  0.6830  0.9912 -1.6625
 3639TIP3    H232481   1.750   3.301   8.243  1.0874  1.5361  0.4006
 3640TIP3   OH232482   0.501   0.191   8.286 -0.0212  0.6360  0.0557
 3640TIP3    H132483   0.565   0.120   8.292 -0.1601  0.5689  0.7794
 3640TIP3    H232484   0.540   0.253   8.224  1.1160  0.9612  1.0556
 3641TIP3   OH232485   4.693   5.438   1.299 -0.0123 -0.1697  0.5373
 3641TIP3    H132486   4.729   5.405   1.217 -1.1469 -0.5868  0.1912
 3641TIP3    H232487   4.666   5.360   1.346  0.1698  0.1025  1.1018
 3642TIP3   OH232488   6.848   3.112   0.002  0.3127 -0.2120 -0.3967
 3642TIP3    H132489   6.788   3.186   0.006 -0.1818 -0.6277 -0.0279
 3642TIP3    H232490   6.935   3.152   0.000  0.0414  0.3848 -0.5759
 3643TIP3   OH232491   1.171   3.204   1.804 -0.5908  0.2392  0.0049
 3643TIP3    H132492   1.224   3.219   1.882 -0.6256  1.6323 -0.2135
 3643TIP3    H232493   1.205   3.122   1.768  0.1728  0.1548  0.8819
 3644TIP3   OH232494   6.515   2.475   7.312 -0.2674  1.0457  0.3231
 3644TIP3    H132495   6.488   2.395   7.267 -0.1629  0.7756  0.7383
 3644TIP3    H232496   6.572   2.520   7.249  1.1561 -0.0846  0.7565
 3645TIP3   OH232497   0.756   4.312   1.012  0.2677  0.2698 -0.6933
 3645TIP3    H132498   0.679   4.354   0.972 -0.0693  0.7189  0.3735
 3645TIP3    H232499   0.811   4.386   1.038 -0.6347  0.1483  1.8136
 3646TIP3   OH232500   5.787   6.965   7.256 -0.0245  0.8524  0.0909
 3646TIP3    H132501   5.841   6.951   7.179 -1.8454 -2.0128 -0.8487
 3646TIP3    H232502   5.823   6.907   7.322 -1.2025 -0.2518 -0.1906
 3647TIP3   OH232503   2.818   1.162   6.931 -0.0704 -0.2888 -0.4013
 3647TIP3    H132504   2.761   1.234   6.903  0.1031 -0.7667 -2.1329
 3647TIP3    H232505   2.759   1.088   6.942 -0.0062 -0.3716 -0.5962
 3648TIP3   OH232506   4.065   6.694   7.484  0.3649 -0.0150  0.0446
 3648TIP3    H132507   4.131   6.718   7.550  0.3921 -0.1759  0.0775
 3648TIP3    H232508   4.025   6.777   7.459  0.1470  0.0168  0.4842
 3649TIP3   OH232509   6.930   6.536   0.828  0.0798  0.0510  0.2994
 3649TIP3    H132510   6.932   6.556   0.922  0.6444  1.0471  0.0959
 3649TIP3    H232511   6.895   6.447   0.823 -1.7279  0.6378  1.3418
 3650TIP3   OH232512   2.798   4.411   1.087 -0.2617  0.2120 -0.3766
 3650TIP3    H132513   2.849   4.489   1.109 -1.3050  1.1338 -1.1669
 3650TIP3    H232514   2.729   4.408   1.153 -0.0676 -0.2188 -0.1843
 3651TIP3   OH232515   6.152   3.650   1.496 -0.0845  0.6304  0.1306
 3651TIP3    H132516   6.232   3.606   1.465  0.5041  0.7710  1.3756
 3651TIP3    H232517   6.181   3.700   1.572 -1.6972 -0.7839  1.7535
 3652TIP3   OH232518   4.806   3.252   2.001  0.3113  0.0914  0.4234
 3652TIP3    H132519   4.756   3.322   1.960 -0.6390 -0.2158  1.0231
 3652TIP3    H232520   4.784   3.173   1.951 -0.5056 -0.2023  1.2121
 3653TIP3   OH232521   1.741   0.643   0.091 -0.7743  0.1385  0.8964
 3653TIP3    H132522   1.769   0.558   0.125 -1.2201  0.6304  2.5738
 3653TIP3    H232523   1.817   0.677   0.045 -0.4127 -0.9122  0.6873
 3654TIP3   OH232524   4.457   1.914   0.034  0.0012  0.5592 -0.5185
 3654TIP3    H132525   4.411   1.911   0.118 -0.5378 -0.4513 -0.8251
 3654TIP3    H232526   4.394   1.879  -0.028  0.4848  1.0694 -1.3082
 3655TIP3   OH232527   6.118   2.935   0.774 -0.2466  0.5894  0.1668
 3655TIP3    H132528   6.055   2.973   0.713  1.5717  0.5201 -1.8609
 3655TIP3    H232529   6.075   2.856   0.806 -1.0190  0.2792 -1.5259
 3656TIP3   OH232530   2.728   4.201   8.201  0.0473  1.0498 -0.6953
 3656TIP3    H132531   2.696   4.190   8.111 -0.8591 -0.3185 -0.2357
 3656TIP3    H232532   2.654   4.239   8.248  0.3320  1.2507 -0.4109
 3657TIP3   OH232533   1.029   0.618   1.031 -0.0211 -0.2395 -0.3576
 3657TIP3    H132534   1.064   0.595   1.118  1.7626 -1.6223 -1.3690
 3657TIP3    H232535   0.992   0.536   0.998 -0.7502  0.2925 -0.8809
 3658TIP3   OH232536   0.467   0.403   1.355 -0.0889  0.0149 -0.2872
 3658TIP3    H132537   0.482   0.444   1.440  0.5489 -1.5204  0.3584
 3658TIP3    H232538   0.529   0.446   1.296  0.6108 -0.0477  0.3918
 3659TIP3   OH232539   0.296   2.373   1.389  0.4783  0.5785  0.8354
 3659TIP3    H132540   0.357   2.396   1.459  0.1593  0.5012  1.1434
 3659TIP3    H232541   0.238   2.308   1.428  0.7849 -0.0527  0.2541
 3660TIP3   OH232542   1.239   3.776   1.845  0.4171  0.1885  0.5925
 3660TIP3    H132543   1.227   3.869   1.826  0.5243  0.5915  2.3673
 3660TIP3    H232544   1.149   3.743   1.856  0.4355  0.6577  2.4155
 3661TIP3   OH232545   5.912   6.160   7.618 -0.2774  0.0348  0.2706
 3661TIP3    H132546   5.992   6.196   7.657 -1.1590  0.1256  2.1098
 3661TIP3    H232547   5.860   6.237   7.596  0.6301  0.0245 -2.1491
 3662TIP3   OH232548   4.983   3.640   6.693  0.0547 -0.3049  0.2273
 3662TIP3    H132549   5.059   3.619   6.747 -0.2171 -0.2518  0.6397
 3662TIP3    H232550   5.019   3.682   6.615  0.5117 -1.1358 -0.0180
 3663TIP3   OH232551   5.974   2.179   7.020 -0.7562  0.2178 -0.7507
 3663TIP3    H132552   5.993   2.089   6.993 -3.1364 -1.8599  3.5653
 3663TIP3    H232553   5.900   2.205   6.965 -0.9225 -0.9883 -1.1260
 3664TIP3   OH232554   4.958   6.619   7.834  0.5537 -0.0096  0.7305
 3664TIP3    H132555   4.873   6.650   7.865 -0.9026 -2.0759 -0.9185
 3664TIP3    H232556   4.973   6.667   7.752  1.3627  0.8434  1.3500
 3665TIP3   OH232557   0.110   3.211   0.011  0.5179  0.3684 -0.1257
 3665TIP3    H132558   0.093   3.210   0.105 -1.5372 -1.4591 -0.4470
 3665TIP3    H232559   0.108   3.304  -0.012 -1.9393  0.7401  1.2078
 3666TIP3   OH232560   5.487   5.874   7.905 -0.0177  0.1145 -0.1974
 3666TIP3    H132561   5.566   5.907   7.861  0.4006  0.7867  1.0203
 3666TIP3    H232562   5.488   5.916   7.991 -0.8182 -1.1559  0.4604
 3667TIP3   OH232563   3.434   0.844   7.066  0.0230  0.0114  0.0530
 3667TIP3    H132564   3.452   0.935   7.044 -2.0423  0.6406  0.7614
 3667TIP3    H232565   3.347   0.845   7.106 -0.5778 -2.4408 -0.9931
 3668TIP3   OH232566   2.812   3.845   7.575 -0.0030 -0.1040 -0.3969
 3668TIP3    H132567   2.860   3.791   7.638 -0.0468  0.8403  0.4693
 3668TIP3    H232568   2.862   3.925   7.568 -0.4274  0.1192 -0.9689
 3669TIP3   OH232569   3.701   4.646   0.202  0.0511 -0.2570 -0.6701
 3669TIP3    H132570   3.788   4.609   0.190  0.0562 -0.3669 -0.2836
 3669TIP3    H232571   3.706   4.694   0.284 -0.3375 -0.5121 -0.4962
 3670TIP3   OH232572   2.035   6.242   0.338  0.6249 -0.3413  0.1176
 3670TIP3    H132573   2.089   6.269   0.264  0.1617  0.4934  0.0680
 3670TIP3    H232574   1.952   6.216   0.299  0.0715  0.9299  0.3857
 3671TIP3   OH232575   1.761   1.584   0.071 -0.0836  0.0522 -0.0192
 3671TIP3    H132576   1.723   1.591   0.159  2.0713  1.3220  0.8928
 3671TIP3    H232577   1.844   1.538   0.084  1.0150  1.6260 -1.0893
 3672TIP3   OH232578   0.404   4.757   0.443  0.4700  0.4236  0.0715
 3672TIP3    H132579   0.369   4.683   0.494  2.3134 -0.7266 -0.2360
 3672TIP3    H232580   0.384   4.733   0.352 -3.5284  2.8398  0.0558
 3673TIP3   OH232581   2.058   0.540   5.978  0.2785  0.4391  0.2623
 3673TIP3    H132582   2.031   0.613   5.922 -0.3838 -1.5776 -2.2444
 3673TIP3    H232583   1.979   0.487   5.989  1.4490 -1.7478 -1.0604
 3674TIP3   OH232584   2.424   2.447   6.050 -0.4850 -0.3580  0.3522
 3674TIP3    H132585   2.457   2.466   6.138 -1.1912  0.0299  0.5397
 3674TIP3    H232586   2.453   2.357   6.032  0.8946  0.0595  0.3963
 3675TIP3   OH232587   4.554   6.084   7.777  0.1872 -0.4231  0.4735
 3675TIP3    H132588   4.511   6.065   7.694 -0.1428  2.4154 -0.0915
 3675TIP3    H232589   4.632   6.027   7.777  0.2815 -0.3796 -1.8625
 3676TIP3   OH232590   6.302   4.371   6.739 -0.2133 -0.4173 -0.5120
 3676TIP3    H132591   6.393   4.400   6.744 -0.8744  1.9094 -0.8078
 3676TIP3    H232592   6.298   4.295   6.796  1.4347  0.7371  1.2643
 3677TIP3   OH232593   0.488   5.871   6.188 -0.6082 -0.2270 -0.1869
 3677TIP3    H132594   0.449   5.904   6.269 -1.8916  0.3301 -1.0080
 3677TIP3    H232595   0.495   5.777   6.201 -0.7103 -0.1294  0.6110
 3678TIP3   OH232596   1.612   6.522   6.578 -0.3138  1.0578 -0.3852
 3678TIP3    H132597   1.693   6.566   6.554 -1.0215  0.6248 -4.3995
 3678TIP3    H232598   1.590   6.469   6.501 -4.6334  1.5169  0.2538
 3679TIP3   OH232599   6.343   4.427   1.522  0.7735 -0.0825 -0.0587
 3679TIP3    H132600   6.356   4.335   1.542 -1.4710 -0.4664 -0.0890
 3679TIP3    H232601   6.308   4.465   1.603  1.7067  0.7709 -0.0322
 3680TIP3   OH232602   5.566   3.962   6.724 -0.8150 -0.9449  0.2290
 3680TIP3    H132603   5.563   3.900   6.797  1.2403 -0.0568  1.1466
 3680TIP3    H232604   5.610   3.915   6.653 -0.7716 -1.0855  0.3500
 3681TIP3   OH232605   6.268   5.769   1.070  0.3289 -0.2467 -0.2094
 3681TIP3    H132606   6.246   5.839   1.009 -0.6353 -0.7614 -0.4746
 3681TIP3    H232607   6.221   5.791   1.150  2.2701  0.8821  0.6775
 3682TIP3   OH232608   5.661   3.273   1.479  0.4052 -0.2262 -0.6642
 3682TIP3    H132609   5.649   3.219   1.402  1.9760  0.0175 -1.1055
 3682TIP3    H232610   5.741   3.323   1.462  1.0127 -0.4562  1.2804
 3683TIP3   OH232611   3.602   0.686   0.882  0.0231 -0.5220 -0.1131
 3683TIP3    H132612   3.584   0.778   0.906 -0.2619 -0.9945  1.6422
 3683TIP3    H232613   3.674   0.691   0.820  0.7616  0.8556  0.7885
 3684TIP3   OH232614   1.180   6.958   7.041 -0.5335 -0.1638  0.8179
 3684TIP3    H132615   1.214   7.047   7.050  0.5296 -0.4477 -0.1558
 3684TIP3    H232616   1.227   6.921   6.966 -0.6297 -1.6906  1.4559
 3685TIP3   OH232617   5.160   1.553   1.393 -0.0321 -0.3507  0.7751
 3685TIP3    H132618   5.106   1.629   1.416  2.0278  1.0424  1.3851
 3685TIP3    H232619   5.210   1.582   1.317 -2.5115 -2.8386 -2.0509
 3686TIP3   OH232620   4.138   5.402   6.606 -0.1065  0.6653 -0.2286
 3686TIP3    H132621   4.153   5.311   6.629 -1.0336  0.5685  0.0306
 3686TIP3    H232622   4.099   5.399   6.519  0.1994  0.8359 -0.3729
 3687TIP3   OH232623   2.603   5.799   1.948  0.3304 -0.0937 -0.0688
 3687TIP3    H132624   2.518   5.842   1.935  0.2517 -0.3455 -0.3796
 3687TIP3    H232625   2.601   5.723   1.891  0.0463 -1.1329  1.2654
 3688TIP3   OH232626   3.735   1.464   0.057 -0.1096  0.0982 -0.2747
 3688TIP3    H132627   3.671   1.516   0.106 -0.3534  0.0434 -0.5313
 3688TIP3    H232628   3.795   1.529   0.019 -0.4643  0.1998 -0.6655
 3689TIP3   OH232629   5.945   3.838   0.308  0.0510  0.1868 -0.0842
 3689TIP3    H132630   5.962   3.872   0.396  1.5472 -0.6474 -0.0189
 3689TIP3    H232631   5.964   3.744   0.315 -1.5632 -0.2295 -0.8691
 3690TIP3   OH232632   0.039   6.343   1.641 -0.2091 -0.2658  0.5136
 3690TIP3    H132633   0.096   6.337   1.718  0.2998  1.0854  0.2652
 3690TIP3    H232634  -0.024   6.411   1.664 -2.2613 -2.2464  1.0844
 3691TIP3   OH232635   3.220   4.776   1.044 -0.4286  0.0571  0.3789
 3691TIP3    H132636   3.161   4.837   1.088 -0.4389  0.5336 -0.2696
 3691TIP3    H232637   3.168   4.742   0.970  0.9861  2.7737 -2.0565
 3692TIP3   OH232638   1.329   5.851   7.521  0.0970 -0.3656 -0.0443
 3692TIP3    H132639   1.390   5.889   7.583 -0.1192 -0.4340  0.2106
 3692TIP3    H232640   1.246   5.896   7.536 -0.2687 -1.2052  0.5427
 3693TIP3   OH232641   3.481   2.565   0.392 -0.1712 -0.3132 -0.1926
 3693TIP3    H132642   3.451   2.585   0.480 -0.9808  0.7969 -0.6966
 3693TIP3    H232643   3.522   2.478   0.399  0.4976  0.0962  1.4222
 3694TIP3   OH232644   3.828   2.778   0.705 -0.6860  0.0996 -0.2705
 3694TIP3    H132645   3.884   2.855   0.710  1.5795 -1.3955 -1.1635
 3694TIP3    H232646   3.845   2.731   0.787 -1.4071  0.0953 -0.1129
 3695TIP3   OH232647   5.261   1.114   7.001  0.2185  0.3325 -0.2024
 3695TIP3    H132648   5.240   1.067   6.920 -0.1150 -0.9328  0.5977
 3695TIP3    H232649   5.223   1.060   7.071  2.5372  0.1187  0.9894
 3696TIP3   OH232650   3.514   3.947   6.854 -0.2104 -0.6138 -0.5460
 3696TIP3    H132651   3.550   3.935   6.942 -1.7641  2.0730  0.5648
 3696TIP3    H232652   3.518   4.041   6.839 -0.2685 -0.9676 -3.2827
 3697TIP3   OH232653   4.040   5.433   1.245  0.0041 -0.1833 -0.1251
 3697TIP3    H132654   4.027   5.424   1.150 -0.2568  0.4772 -0.1581
 3697TIP3    H232655   4.135   5.441   1.255  0.0615 -0.6076 -0.2936
 3698TIP3   OH232656   2.648   2.306   8.012  0.3479 -0.1371  0.0155
 3698TIP3    H132657   2.607   2.353   8.085  0.6425 -0.8296  0.6410
 3698TIP3    H232658   2.617   2.216   8.021 -0.6943  0.0212 -1.5287
 3699TIP3   OH232659   1.571   1.930   2.112 -0.8078  0.3138 -0.4660
 3699TIP3    H132660   1.520   1.916   2.192 -0.7947 -1.7055 -0.7512
 3699TIP3    H232661   1.538   1.863   2.051 -0.2597  1.2872 -1.8805
 3700TIP3   OH232662   5.855   4.032   0.942  0.3901 -0.4639  0.0960
 3700TIP3    H132663   5.784   4.033   1.006 -2.7132 -0.3271 -3.0025
 3700TIP3    H232664   5.880   3.939   0.936  0.3664 -0.5419  1.1343
 3701TIP3   OH232665   6.726   3.645   6.539 -0.3795 -0.0670 -0.2787
 3701TIP3    H132666   6.807   3.695   6.536 -0.8718  0.7568 -0.0400
 3701TIP3    H232667   6.723   3.599   6.455  2.1968 -3.1345  1.0636
 3702TIP3   OH232668   2.526   0.394   8.004 -0.1896  0.2190  0.1206
 3702TIP3    H132669   2.529   0.302   7.978 -0.6530  1.0004 -3.0867
 3702TIP3    H232670   2.433   0.412   8.020 -0.2736  0.4587 -0.6280
 3703TIP3   OH232671   5.340   5.343   7.477 -0.6163  0.3532 -0.1428
 3703TIP3    H132672   5.368   5.427   7.440 -0.4628  0.4444  0.1794
 3703TIP3    H232673   5.334   5.360   7.571 -1.3561  0.2236 -0.1624
 3704TIP3   OH232674   1.054   5.095   6.373  0.0151  0.3159  0.4088
 3704TIP3    H132675   0.997   5.061   6.442  0.7643 -0.3667  0.7047
 3704TIP3    H232676   1.136   5.047   6.384 -0.1914 -0.6050 -1.6330
 3705TIP3   OH232677   0.122   5.728   6.029 -0.2388 -0.0010  0.0161
 3705TIP3    H132678   0.033   5.724   6.063 -0.3283  0.1995 -0.1861
 3705TIP3    H232679   0.152   5.638   6.029 -0.7519 -0.1879 -0.7166
 3706TIP3   OH232680   2.951   5.195   0.778 -0.5329 -0.1339 -0.0229
 3706TIP3    H132681   2.939   5.213   0.684  2.1831  2.4003 -0.0301
 3706TIP3    H232682   2.929   5.278   0.821 -0.8237 -0.9758  1.5290
 3707TIP3   OH232683   2.144   1.663   7.970 -0.0816  0.3881  0.0834
 3707TIP3    H132684   2.149   1.653   8.065 -2.0663  0.1988  0.2066
 3707TIP3    H232685   2.098   1.746   7.956 -1.2453 -0.3440 -0.6488
 3708TIP3   OH232686   1.160   0.828   6.615 -0.0042 -0.9798 -0.1408
 3708TIP3    H132687   1.136   0.883   6.541  0.4982 -2.1779 -1.2282
 3708TIP3    H232688   1.078   0.789   6.644 -0.3226  0.0848  0.4603
 3709TIP3   OH232689   6.492   6.408   7.447  0.1277 -0.0043 -0.4622
 3709TIP3    H132690   6.487   6.347   7.373 -1.6149 -0.5522  0.0638
 3709TIP3    H232691   6.524   6.355   7.519  0.5205  0.1995 -0.4850
 3710TIP3   OH232692   6.824   3.597   2.200  0.1536  0.0131  0.3571
 3710TIP3    H132693   6.917   3.581   2.216 -0.2744  0.0070  3.3862
 3710TIP3    H232694   6.823   3.676   2.147  1.8897 -0.0192  0.1953
 3711TIP3   OH232695   4.524   3.659   0.627  0.3489 -0.0143  0.2154
 3711TIP3    H132696   4.515   3.568   0.654 -2.2166  0.1713  0.2319
 3711TIP3    H232697   4.554   3.705   0.706 -0.7263 -0.4863  0.9197
 3712TIP3   OH232698   4.589   5.315   1.032 -0.3638 -0.3624 -1.0945
 3712TIP3    H132699   4.572   5.409   1.028 -0.0685 -0.3418 -2.2735
 3712TIP3    H232700   4.517   5.280   1.083 -0.2834  0.5441 -0.3237
 3713TIP3   OH232701   5.628   1.071   0.069  0.5055 -0.5073  0.2880
 3713TIP3    H132702   5.573   1.131   0.119  0.5182 -0.7938  0.6453
 3713TIP3    H232703   5.715   1.081   0.107  0.3760 -1.2400  0.7905
 3714TIP3   OH232704   6.447   2.248   7.182 -0.2682  0.2963  0.1873
 3714TIP3    H132705   6.511   2.177   7.173 -0.6441  0.1814 -2.3388
 3714TIP3    H232706   6.363   2.208   7.161 -0.8178  1.0028  0.9937
 3715TIP3   OH232707   0.032   3.160   0.273  0.2396  0.2713  0.2554
 3715TIP3    H132708  -0.053   3.203   0.277  0.4909  0.7544  0.4503
 3715TIP3    H232709   0.022   3.083   0.330 -0.3221 -0.1486 -0.3911
 3716TIP3   OH232710   1.267   1.159   6.806  0.3848  0.1783 -0.3171
 3716TIP3    H132711   1.334   1.101   6.770 -0.4033 -1.1904  0.3241
 3716TIP3    H232712   1.287   1.164   6.899 -0.6501 -0.6333 -0.0326
 3717TIP3   OH232713   6.387   4.190   0.805  0.1559 -0.1599 -0.0213
 3717TIP3    H132714   6.453   4.256   0.824 -0.3092 -0.0386  1.2439
 3717TIP3    H232715   6.352   4.166   0.890 -0.8214 -0.8633 -0.6037
 3718TIP3   OH232716   6.579   1.873   0.198  0.9888 -0.1721  0.0286
 3718TIP3    H132717   6.605   1.941   0.136  0.0512 -0.5165 -0.7660
 3718TIP3    H232718   6.488   1.895   0.220  0.8053 -0.9558  0.0673
 3719TIP3   OH232719   3.157   2.153   8.096  0.1190 -0.2505 -0.1618
 3719TIP3    H132720   3.100   2.086   8.058  2.5115 -1.2721 -2.2683
 3719TIP3    H232721   3.203   2.108   8.167 -1.5614  0.5801  1.5539
 3720TIP3   OH232722   4.216   3.873   7.778 -0.6854 -0.1608 -0.5388
 3720TIP3    H132723   4.164   3.953   7.778  1.1529  1.1583 -2.6894
 3720TIP3    H232724   4.304   3.901   7.802 -0.3523 -1.8660  0.3810
 3721TIP3   OH232725   6.296   4.790   8.133 -0.3712  0.3010  0.2197
 3721TIP3    H132726   6.377   4.822   8.093  1.1378 -1.3195  1.8146
 3721TIP3    H232727   6.226   4.839   8.089  1.3600  0.7309 -2.2146
 3722TIP3   OH232728   6.571   2.446   0.246  0.3016 -0.1090 -0.2203
 3722TIP3    H132729   6.568   2.380   0.315 -1.4618  1.6761  1.5875
 3722TIP3    H232730   6.480   2.476   0.238  0.8258  1.2210 -1.8675
 3723TIP3   OH232731   0.885   4.481   0.276 -0.1241  0.7857  0.2716
 3723TIP3    H132732   0.945   4.461   0.204  0.6150  0.0256  1.0751
 3723TIP3    H232733   0.908   4.569   0.303 -0.9878  1.4164 -0.9686
 3724TIP3   OH232734   3.799   1.227   6.358  0.1336  0.6956 -0.0669
 3724TIP3    H132735   3.867   1.201   6.421  0.3256 -2.0511 -1.2790
 3724TIP3    H232736   3.847   1.272   6.288  0.2232  1.6383  0.5769
 3725TIP3   OH232737   1.659   2.316   8.378 -0.0990 -0.1248 -0.4551
 3725TIP3    H132738   1.655   2.406   8.346 -0.5761  0.6942  1.7399
 3725TIP3    H232739   1.570   2.282   8.366  0.2068 -0.5220 -1.7673
 3726TIP3   OH232740   3.794   4.108   6.279 -0.4959 -0.3325  0.1217
 3726TIP3    H132741   3.799   4.187   6.333 -1.0150 -1.1000  1.3140
 3726TIP3    H232742   3.883   4.074   6.276 -0.3344  0.1001 -0.1173
 3727TIP3   OH232743   6.226   5.441   1.263 -0.3552  0.6530 -0.0312
 3727TIP3    H132744   6.312   5.403   1.247 -1.1116  0.3089 -4.6713
 3727TIP3    H232745   6.242   5.533   1.279  0.9194  0.4277  0.0438
 3728TIP3   OH232746   6.556   2.729   1.300  0.1844 -0.5842 -0.0122
 3728TIP3    H132747   6.526   2.793   1.237  2.0204 -0.0243 -0.3526
 3728TIP3    H232748   6.643   2.703   1.270  0.1827 -1.9845  1.0508
 3729TIP3   OH232749   6.923   6.130   6.388 -0.3459 -0.1414  0.2608
 3729TIP3    H132750   7.007   6.102   6.350  0.2285 -0.4257  1.6685
 3729TIP3    H232751   6.878   6.049   6.409 -0.8662  0.0132 -0.2312
 3730TIP3   OH232752   1.727   6.574   8.304 -0.1578 -0.0170 -0.4582
 3730TIP3    H132753   1.753   6.506   8.366 -1.6765 -1.8482 -1.7228
 3730TIP3    H232754   1.641   6.602   8.333 -0.1065  0.4249 -0.7178
 3731TIP3   OH232755   6.181   0.002   7.683  0.1533 -0.1358 -0.0241
 3731TIP3    H132756   6.137   0.065   7.740 -0.5665  0.4755 -1.2126
 3731TIP3    H232757   6.264   0.044   7.660 -0.3803  0.4644 -0.9157
 3732TIP3   OH232758   5.331   2.276   6.583 -0.0027 -0.3081  0.2586
 3732TIP3    H132759   5.277   2.355   6.582  1.4563  0.7283 -1.0356
 3732TIP3    H232760   5.286   2.216   6.523 -1.8098 -1.0186  2.2147
 3733TIP3   OH232761   2.302   0.851   6.735  0.2234  0.4484  0.2721
 3733TIP3    H132762   2.251   0.929   6.713 -0.2225 -0.1518 -0.8955
 3733TIP3    H232763   2.374   0.851   6.671  0.3542  0.0271  0.4196
 3734TIP3   OH232764   6.842   2.045   6.848  0.3787 -0.0249 -0.4373
 3734TIP3    H132765   6.834   1.995   6.767 -3.1390  0.9767 -0.8742
 3734TIP3    H232766   6.828   1.981   6.918 -0.8799 -0.2356 -0.8573
 3735TIP3   OH232767   2.000   6.446   7.811 -0.0857 -0.6986 -0.6150
 3735TIP3    H132768   1.917   6.478   7.773 -0.5873  1.8724  2.2532
 3735TIP3    H232769   2.068   6.485   7.755 -0.7984  0.3455 -0.7940
 3736TIP3   OH232770   1.932   5.136   7.873 -0.6848  0.4898 -0.1788
 3736TIP3    H132771   1.981   5.200   7.822 -2.0885  1.8987  0.1785
 3736TIP3    H232772   1.935   5.056   7.819  2.8474  0.1346  0.3282
 3737TIP3   OH232773   4.971   1.238   6.424 -0.8493  0.6434  0.1602
 3737TIP3    H132774   4.912   1.203   6.357  0.5835  0.0278 -0.8195
 3737TIP3    H232775   5.018   1.309   6.380 -1.0440  1.3224  1.0199
 3738TIP3   OH232776   1.170   0.337   1.365  0.4698  0.0180  0.2994
 3738TIP3    H132777   1.195   0.403   1.300  0.2295  0.7488  0.9388
 3738TIP3    H232778   1.157   0.386   1.446  1.8506 -1.0245  1.1955
 3739TIP3   OH232779   0.458   6.674   7.653 -0.1582  0.3036  0.1928
 3739TIP3    H132780   0.400   6.622   7.707  1.8752 -2.1333  0.2022
 3739TIP3    H232781   0.497   6.738   7.713 -0.9269  0.3004  0.7008
 3740TIP3   OH232782   2.400   5.263   1.454  0.0736 -0.0575  0.0927
 3740TIP3    H132783   2.466   5.322   1.490  0.2407 -0.4675  0.4532
 3740TIP3    H232784   2.450   5.197   1.406  0.0308 -1.2523  1.6296
 3741TIP3   OH232785   6.988   5.404   0.325  0.0012  0.8143  0.4941
 3741TIP3    H132786   7.043   5.482   0.324 -0.2278  1.0041 -1.2808
 3741TIP3    H232787   6.928   5.417   0.250 -0.7929 -0.5294  0.8715
 3742TIP3   OH232788   6.593   3.452   2.142  0.3270  0.6960  0.5039
 3742TIP3    H132789   6.660   3.493   2.198  0.7724 -0.9421  1.2500
 3742TIP3    H232790   6.604   3.494   2.057  2.6588  0.1839  0.4720
 3743TIP3   OH232791   2.530   1.820   1.491 -0.0008 -0.1459  0.0424
 3743TIP3    H132792   2.555   1.755   1.556 -1.0904 -0.5583  0.0579
 3743TIP3    H232793   2.534   1.774   1.407 -0.9186 -0.2899  0.0687
 3744TIP3   OH232794   2.450   3.158   7.275 -0.1973 -0.2112  0.1087
 3744TIP3    H132795   2.486   3.247   7.277  0.8256 -0.6180  0.8823
 3744TIP3    H232796   2.452   3.131   7.367 -3.0536 -0.0616  0.2986
 3745TIP3   OH232797   3.680   3.696   6.785  0.5547  0.2159  0.1379
 3745TIP3    H132798   3.602   3.747   6.808  0.3381  0.5291 -1.2017
 3745TIP3    H232799   3.748   3.762   6.771  0.1467  0.2611 -2.1087
 3746TIP3   OH232800   4.055   0.008   0.444 -0.3094 -0.2838 -0.9093
 3746TIP3    H132801   4.007   0.010   0.527  0.3583  2.2011 -0.5185
 3746TIP3    H232802   4.004  -0.052   0.389 -1.9900 -0.2976  0.5675
 3747TIP3   OH232803   3.836   2.365   7.765  0.0869 -0.1057 -0.0914
 3747TIP3    H132804   3.904   2.356   7.699  2.3585 -0.4914  2.1328
 3747TIP3    H232805   3.842   2.457   7.793 -0.3654 -0.1212  0.0591
 3748TIP3   OH232806   4.145   6.326   1.900  0.2682 -1.0355 -0.2916
 3748TIP3    H132807   4.119   6.415   1.876  0.8823 -0.7748 -0.0312
 3748TIP3    H232808   4.129   6.321   1.994  0.1173 -1.2392 -0.3291
 3749TIP3   OH232809   1.285   4.382   7.946 -0.3480  0.0389  0.1907
 3749TIP3    H132810   1.251   4.336   7.869 -2.1021  0.1024  0.8674
 3749TIP3    H232811   1.273   4.475   7.925  1.3574  0.1527 -0.3801
 3750TIP3   OH232812   2.122   3.916   8.344 -0.1953 -0.0572  0.2329
 3750TIP3    H132813   2.175   3.949   8.271  1.1616 -1.4855  0.5050
 3750TIP3    H232814   2.085   3.834   8.312 -2.4463  0.9956  0.0021
 3751TIP3   OH232815   0.047   1.864   0.715  0.1177  0.0353 -0.0211
 3751TIP3    H132816   0.110   1.875   0.786  0.8843 -0.0466 -0.6755
 3751TIP3    H232817   0.031   1.952   0.683  0.7288 -0.0445 -0.5557
 3752TIP3   OH232818   1.038   3.782   6.364 -0.9212 -0.5253  0.0059
 3752TIP3    H132819   1.035   3.710   6.300  0.3524 -0.1820 -0.4851
 3752TIP3    H232820   0.949   3.816   6.367 -1.0832 -0.7678 -1.3663
 3753TIP3   OH232821   1.833   2.438   1.706 -0.2085  0.4387  0.0668
 3753TIP3    H132822   1.794   2.435   1.619  2.0592  2.6406 -1.1517
 3753TIP3    H232823   1.872   2.525   1.712  3.5661 -1.1572  1.4804
 3754TIP3   OH232824   2.698   1.099   6.658 -0.0790 -0.1300 -0.3438
 3754TIP3    H132825   2.640   1.167   6.690 -2.1744 -1.8036 -0.3921
 3754TIP3    H232826   2.754   1.143   6.594  0.4869  2.0682  1.4995
 3755TIP3   OH232827   6.611   2.808   7.308 -0.9981 -0.3303 -0.7117
 3755TIP3    H132828   6.621   2.737   7.244  0.3119  1.5028 -2.6837
 3755TIP3    H232829   6.576   2.881   7.257  0.9394  1.5011  0.4099
 3756TIP3   OH232830   1.874   3.337   1.366  0.2256  0.2569 -0.4140
 3756TIP3    H132831   1.926   3.384   1.302  0.1473 -1.1448 -1.5527
 3756TIP3    H232832   1.899   3.376   1.450  1.2259  1.3073 -1.1609
 3757TIP3   OH232833   5.243   6.909   1.548  0.6187  0.4801  0.5215
 3757TIP3    H132834   5.281   6.823   1.571  0.1398 -0.1397 -0.8848
 3757TIP3    H232835   5.165   6.916   1.602 -0.3189 -0.8101 -0.5872
 3758TIP3   OH232836   1.778   3.998   1.578 -0.3425  0.2429 -0.4672
 3758TIP3    H132837   1.754   3.984   1.670 -1.2910 -0.8580 -0.8629
 3758TIP3    H232838   1.841   3.929   1.559  0.0534  0.6312 -0.5857
 3759TIP3   OH232839   1.457   5.115   1.427  0.1009 -0.0794 -0.0886
 3759TIP3    H132840   1.532   5.143   1.374 -0.2868  2.5431  0.5864
 3759TIP3    H232841   1.412   5.051   1.373  1.2631  0.4145 -1.7375
 3760TIP3   OH232842   0.005   6.035   0.148  0.0676  0.3039 -0.3686
 3760TIP3    H132843   0.037   6.124   0.134 -2.5627  1.4244  0.0919
 3760TIP3    H232844  -0.081   6.047   0.189 -0.3667 -2.4592 -0.3033
 3761TIP3   OH232845   3.754   0.136   0.412  0.0753 -0.6963 -0.0200
 3761TIP3    H132846   3.747   0.230   0.430  0.0540 -0.4579 -1.1675
 3761TIP3    H232847   3.779   0.132   0.320  0.0095 -1.8246  0.0056
 3762TIP3   OH232848   2.131   2.458   5.978  0.5982 -0.3280 -0.2866
 3762TIP3    H132849   2.224   2.455   6.000  0.2161  0.4166  1.5985
 3762TIP3    H232850   2.108   2.551   5.983 -0.4301 -0.5931  0.1016
 3763TIP3   OH232851   3.241   4.263   6.981  0.7143 -0.2880  0.0755
 3763TIP3    H132852   3.249   4.356   6.960  1.0495 -0.3683 -0.1592
 3763TIP3    H232853   3.330   4.235   7.001  0.3831 -0.1613  1.8695
 3764TIP3   OH232854   1.554   5.622   7.348  0.1046 -0.3676  0.2931
 3764TIP3    H132855   1.459   5.629   7.334  0.1172 -1.4383 -0.4764
 3764TIP3    H232856   1.563   5.611   7.443 -0.3942  1.5071  0.6009
 3765TIP3   OH232857   4.840   5.643   1.481 -0.2862  0.7504  0.0648
 3765TIP3    H132858   4.828   5.636   1.386 -1.2173  3.2146 -0.0717
 3765TIP3    H232859   4.778   5.580   1.517 -1.0776  0.8931 -0.9737
 3766TIP3   OH232860   4.859   5.269   7.958 -0.2752 -0.2483 -0.5258
 3766TIP3    H132861   4.827   5.355   7.930 -1.2298 -0.4068  0.0126
 3766TIP3    H232862   4.891   5.227   7.878 -1.6452 -0.1564 -1.1548
 3767TIP3   OH232863   0.764   4.300   7.075  0.2037 -0.1731 -0.4498
 3767TIP3    H132864   0.836   4.237   7.074  1.0853  0.7563  0.7996
 3767TIP3    H232865   0.800   4.380   7.037 -0.8592 -0.3280 -1.8834
 3768TIP3   OH232866   6.733   4.000   1.295  0.3695 -0.2226 -0.2177
 3768TIP3    H132867   6.695   3.970   1.212 -0.1215  0.7240 -0.3503
 3768TIP3    H232868   6.827   3.990   1.284  0.3469  0.4553 -1.1287
 3769TIP3   OH232869   0.965   0.913   0.345  0.0912  0.7342 -0.6758
 3769TIP3    H132870   0.975   0.933   0.438 -0.3956  0.4919 -0.5670
 3769TIP3    H232871   0.991   0.993   0.300  3.7071 -0.1497 -0.5081
 3770TIP3   OH232872   4.582   5.644   7.908 -0.2289 -0.2869 -0.3187
 3770TIP3    H132873   4.501   5.678   7.947  1.5508  2.1248  1.5580
 3770TIP3    H232874   4.576   5.549   7.920 -1.7067  0.0120  2.0049
 3771TIP3   OH232875   2.218   6.959   6.886  0.3337  0.1383 -0.1656
 3771TIP3    H132876   2.202   6.877   6.839 -0.2721  1.3745 -2.2669
 3771TIP3    H232877   2.283   7.005   6.833  1.9837  0.3183  1.9096
 3772TIP3   OH232878   4.951   1.681   0.668  0.3388 -0.1513  0.5196
 3772TIP3    H132879   4.902   1.749   0.714  1.4897 -0.3588  2.1538
 3772TIP3    H232880   4.973   1.719   0.584 -1.1001  0.5819  0.4618
 3773TIP3   OH232881   3.571   4.992   1.689 -0.1231  0.5038  0.0391
 3773TIP3    H132882   3.624   4.971   1.766 -0.9600 -1.8635  0.0567
 3773TIP3    H232883   3.489   4.943   1.702 -0.6764  0.8168 -1.8814
 3774TIP3   OH232884   3.990   6.722   8.112 -0.2427  0.2086 -0.0143
 3774TIP3    H132885   3.944   6.756   8.035 -0.9115  0.5377  0.5207
 3774TIP3    H232886   3.983   6.627   8.105  0.2114  0.2172 -0.6642
 3775TIP3   OH232887   2.015   0.576   6.803  0.1419  0.3235  0.3884
 3775TIP3    H132888   2.043   0.511   6.867 -1.3369  0.1981  0.9380
 3775TIP3    H232889   2.021   0.659   6.850 -0.4348  0.2885  0.5324
 3776TIP3   OH232890   3.997   5.200   1.920  0.2899 -0.6618 -0.2422
 3776TIP3    H132891   4.057   5.150   1.975  1.4432  0.4632 -0.4425
 3776TIP3    H232892   3.922   5.218   1.977  0.7276 -0.9329  0.4370
 3777TIP3   OH232893   1.435   1.021   8.145  0.4444 -0.0237  0.2618
 3777TIP3    H132894   1.445   1.074   8.066  0.6326 -0.2221  0.1515
 3777TIP3    H232895   1.516   0.970   8.149 -0.2260 -1.1549 -0.2622
 3778TIP3   OH232896   3.650   1.160   1.589  0.2735 -0.1786 -0.4789
 3778TIP3    H132897   3.640   1.106   1.510 -0.5854  0.7568 -1.0367
 3778TIP3    H232898   3.743   1.157   1.609  0.2317 -1.9845 -0.4025
 3779TIP3   OH232899   0.099   0.982   5.762 -0.5954  0.0542  0.0944
 3779TIP3    H132900   0.135   0.932   5.835 -2.2230 -2.1920 -0.5208
 3779TIP3    H232901   0.009   1.002   5.790 -0.9826 -0.1544 -0.9773
 3780TIP3   OH232902   2.214   1.720   7.391 -0.2968 -0.4145 -0.5067
 3780TIP3    H132903   2.181   1.676   7.470 -0.9797  1.6656  0.4299
 3780TIP3    H232904   2.174   1.672   7.319 -2.8050 -0.0461  0.5147
 3781TIP3   OH232905   0.381   5.508   6.606  0.5289 -0.0413 -0.1593
 3781TIP3    H132906   0.345   5.442   6.664  0.0476  1.5994  1.5248
 3781TIP3    H232907   0.411   5.460   6.529 -1.1688 -1.9958  0.3314
 3782TIP3   OH232908   4.373   2.574   7.114  0.4252 -0.0209  0.1458
 3782TIP3    H132909   4.441   2.558   7.050  1.0512  1.8306  0.2693
 3782TIP3    H232910   4.398   2.657   7.155 -0.3073 -0.7985  2.3116
 3783TIP3   OH232911   3.980   1.538   6.208  0.0388 -0.9399  0.5434
 3783TIP3    H132912   3.920   1.487   6.154  0.7559 -1.6245  0.3695
 3783TIP3    H232913   3.996   1.618   6.158  0.7976 -1.6214 -0.3379
 3784TIP3   OH232914   0.726   2.368   1.634  0.0774 -0.0748 -0.1677
 3784TIP3    H132915   0.724   2.275   1.656  0.7640 -0.0490  0.0027
 3784TIP3    H232916   0.774   2.372   1.551  0.6145  0.1923  0.1543
 3785TIP3   OH232917   5.000   2.324   1.547 -0.2924  0.3138 -0.3391
 3785TIP3    H132918   4.934   2.339   1.479  0.5811 -2.4106 -1.9254
 3785TIP3    H232919   4.949   2.300   1.625 -1.2647 -1.1494 -1.3639
 3786TIP3   OH232920   5.622   1.532   7.927 -0.0561  0.2528  0.1017
 3786TIP3    H132921   5.655   1.509   8.015  1.1789 -0.5515 -0.5439
 3786TIP3    H232922   5.589   1.449   7.892 -1.0327  0.6755 -0.0114
 3787TIP3   OH232923   3.328   2.267   7.778  0.1496  0.3092  0.8621
 3787TIP3    H132924   3.402   2.261   7.718  0.5053 -0.9896  1.3975
 3787TIP3    H232925   3.358   2.223   7.858 -0.6272  1.2217  1.6805
 3788TIP3   OH232926   4.034   1.876   8.172 -0.0785  0.0246 -0.0292
 3788TIP3    H132927   3.967   1.915   8.228 -1.7883 -1.7778 -0.6763
 3788TIP3    H232928   4.037   1.933   8.095 -0.2715  0.5773  0.3658
 3789TIP3   OH232929   1.006   0.630   6.953  0.1876  0.2183 -0.3281
 3789TIP3    H132930   1.006   0.615   6.859  0.3486 -1.5450 -0.0688
 3789TIP3    H232931   0.922   0.594   6.983 -0.0402  1.1172  0.1710
 3790TIP3   OH232932   4.723   5.032   6.919  0.7288  0.5635 -0.0437
 3790TIP3    H132933   4.720   5.022   6.824  0.0574 -0.5994  0.0811
 3790TIP3    H232934   4.815   5.047   6.938  1.3043 -1.6530 -0.6986
 3791TIP3   OH232935   1.873   4.262   8.165 -0.3205 -0.2668  0.2789
 3791TIP3    H132936   1.779   4.246   8.167 -0.2073 -1.0278 -0.0513
 3791TIP3    H232937   1.910   4.184   8.122  0.2308  1.0977 -1.8634
 3792TIP3   OH232938   1.347   2.996   1.649 -0.6685 -0.2914 -0.1902
 3792TIP3    H132939   1.265   2.962   1.687 -0.8310  0.4675  0.1489
 3792TIP3    H232940   1.374   2.928   1.587 -0.2987 -1.6769  1.4066
 3793TIP3   OH232941   0.793   5.221   7.009  0.1249  0.2268 -0.0149
 3793TIP3    H132942   0.766   5.164   7.080  0.6514  0.6312  0.5259
 3793TIP3    H232943   0.873   5.263   7.041 -0.6615  1.8527 -0.0690
 3794TIP3   OH232944   5.395   2.712   7.621 -0.7334  0.5166 -0.1674
 3794TIP3    H132945   5.440   2.692   7.539 -1.7198 -0.7212 -0.4503
 3794TIP3    H232946   5.338   2.785   7.599 -1.3167 -0.0856 -0.7372
 3795TIP3   OH232947   4.547   3.450   7.974  0.8260 -0.0162 -0.4118
 3795TIP3    H132948   4.594   3.511   8.032 -0.8016  0.8675  0.0220
 3795TIP3    H232949   4.511   3.506   7.905 -0.4001 -0.5268 -0.1929
 3796TIP3   OH232950   5.891   6.649   0.550 -0.0339  0.4978  0.2637
 3796TIP3    H132951   5.862   6.687   0.467  0.0746  0.7943  0.3637
 3796TIP3    H232952   5.854   6.560   0.548 -1.9877  1.2448  0.9147
 3797TIP3   OH232953   1.875   3.451   1.632  0.1609  0.0783  0.0759
 3797TIP3    H132954   1.854   3.538   1.600 -0.4196  0.3516  1.1288
 3797TIP3    H232955   1.799   3.427   1.686  0.9938 -0.4197  1.0642
 3798TIP3   OH232956   5.020   4.848   7.855 -0.2298 -0.3190 -0.0526
 3798TIP3    H132957   4.948   4.806   7.900 -1.2352  0.1604 -1.1495
 3798TIP3    H232958   5.090   4.853   7.920 -0.3866 -2.8083  0.3848
 3799TIP3   OH232959   4.215   4.389   7.969  0.5041  0.7511 -0.2162
 3799TIP3    H132960   4.307   4.380   7.994  0.7009  0.3045 -1.0458
 3799TIP3    H232961   4.218   4.399   7.873 -0.2821  1.1623 -0.2035
 3800TIP3   OH232962   2.072   1.607   7.599 -0.3691 -0.0748 -0.2943
 3800TIP3    H132963   1.996   1.652   7.636 -1.4633 -1.8395 -0.2831
 3800TIP3    H232964   2.038   1.523   7.568  1.5962 -0.9524 -0.2512
 3801TIP3   OH232965   1.802   3.284   7.252 -0.6358 -0.2040  0.8679
 3801TIP3    H132966   1.728   3.237   7.290 -0.5249 -0.6558  0.5257
 3801TIP3    H232967   1.817   3.243   7.167  0.4274 -0.5564  1.2080
 3802TIP3   OH232968   1.084   6.138   6.653  0.3876 -0.5590 -0.3631
 3802TIP3    H132969   1.025   6.213   6.655  1.9399  0.7019 -0.1013
 3802TIP3    H232970   1.073   6.102   6.565 -2.1596 -1.5736  0.2760
 3803TIP3   OH232971   0.630   1.204   7.482 -0.8524 -0.0101 -0.6784
 3803TIP3    H132972   0.708   1.170   7.438  0.2780 -0.5029  1.5573
 3803TIP3    H232973   0.564   1.136   7.469 -0.5881 -0.0960 -1.6614
 3804TIP3   OH232974   3.415   1.469   6.421 -0.6789  0.6640 -0.1068
 3804TIP3    H132975   3.346   1.404   6.411  0.0407 -0.2566  0.6323
 3804TIP3    H232976   3.370   1.550   6.446 -1.4626  0.0005  0.6906
 3805TIP3   OH232977   2.315   4.166   7.603  0.2751 -0.1959 -0.0709
 3805TIP3    H132978   2.258   4.096   7.570 -0.8427  1.0458 -0.8908
 3805TIP3    H232979   2.370   4.189   7.529 -0.1125  0.5046 -0.1560
 3806TIP3   OH232980   5.426   5.013   0.911  0.2587  0.4048  0.2210
 3806TIP3    H132981   5.422   4.946   0.979  0.5294  1.3652  1.2033
 3806TIP3    H232982   5.519   5.023   0.892  0.1189 -1.2763 -1.7818
 3807TIP3   OH232983   5.102   5.387   0.902  0.0320  0.4910 -0.2503
 3807TIP3    H132984   5.132   5.405   0.813 -0.9436  0.5826 -0.5705
 3807TIP3    H232985   5.117   5.293   0.914  1.6097  0.7558  0.0629
 3808TIP3   OH232986   6.299   0.699   0.854  0.4178  0.1613 -0.0367
 3808TIP3    H132987   6.305   0.709   0.759 -1.5190  1.5549 -0.0853
 3808TIP3    H232988   6.373   0.749   0.888  0.7858  0.1461 -0.7937
 3809TIP3   OH232989   3.998   0.705   0.201  0.3148 -0.0342  0.1102
 3809TIP3    H132990   4.030   0.675   0.116  0.6595 -1.1861  0.6176
 3809TIP3    H232991   3.910   0.737   0.183  0.4709 -0.0367 -0.7242
 3810TIP3   OH232992   0.158   0.596   1.570 -0.3282  0.2033  0.1405
 3810TIP3    H132993   0.138   0.603   1.476 -1.3539 -1.8521  0.1513
 3810TIP3    H232994   0.248   0.564   1.572 -0.5834 -0.5535 -0.1726
 3811TIP3   OH232995   0.891   1.415   7.762 -0.3439  0.6191  0.6744
 3811TIP3    H132996   0.840   1.490   7.732  1.6331  0.7440 -2.9890
 3811TIP3    H232997   0.848   1.339   7.721  1.6146  0.6235 -1.5917
 3812TIP3   OH232998   1.532   4.820   7.267 -0.1639  0.0462 -0.3394
 3812TIP3    H132999   1.563   4.903   7.232  2.1686 -0.5007  0.2526
 3812TIP3    H233000   1.532   4.761   7.191 -1.9860  0.5655 -0.7959
 3813TIP3   OH233001   4.310   2.208   7.182 -0.0673 -0.1979 -0.3352
 3813TIP3    H133002   4.265   2.253   7.111 -0.0544 -1.4361 -1.1563
 3813TIP3    H233003   4.240   2.180   7.241 -0.3249 -1.3027 -1.1328
 3814TIP3   OH233004   5.794   2.807   1.006  0.2626 -0.3260  0.0506
 3814TIP3    H133005   5.765   2.737   1.065 -0.0621 -0.5514 -0.3749
 3814TIP3    H233006   5.889   2.811   1.019  0.0784  0.3548  1.3793
 3815TIP3   OH233007   1.593   5.252   0.342  0.1529 -0.4763 -0.2671
 3815TIP3    H133008   1.600   5.343   0.312  0.0010 -0.1841  0.5550
 3815TIP3    H233009   1.679   5.215   0.325  0.5028  0.0905  0.2026
 3816TIP3   OH233010   6.022   4.750   6.078  0.3696  0.0369 -0.1441
 3816TIP3    H133011   6.008   4.819   6.144  0.5118  0.6737 -0.7701
 3816TIP3    H233012   6.056   4.676   6.128 -1.1387 -0.0795  0.7638
 3817TIP3   OH233013   5.009   3.002   1.398  0.0568  0.4126 -0.5087
 3817TIP3    H133014   5.085   2.982   1.452 -0.4498  0.6064  0.2993
 3817TIP3    H233015   5.045   3.021   1.311  0.9789  1.1061  0.0092
 3818TIP3   OH233016   0.085   6.439   8.134  0.8013 -0.5714  0.0400
 3818TIP3    H133017   0.022   6.433   8.205  2.3178  0.8530  1.5732
 3818TIP3    H233018   0.031   6.438   8.054 -1.1234  0.3266  1.2631
 3819TIP3   OH233019   3.237   4.155   7.864  0.2512 -0.0108  0.0016
 3819TIP3    H133020   3.160   4.212   7.865  2.2742  3.0079  1.5583
 3819TIP3    H233021   3.298   4.198   7.804  1.7188 -0.6793  0.9429
 3820TIP3   OH233022   5.926   2.378   1.347 -0.4379  0.0480  0.2495
 3820TIP3    H133023   6.008   2.427   1.343 -0.8199  0.8851  1.8094
 3820TIP3    H233024   5.891   2.383   1.258  0.2443  1.3811  0.0278
 3821TIP3   OH233025   2.515   1.970   7.311  0.0078 -0.1364  0.2898
 3821TIP3    H133026   2.505   1.944   7.219  0.2701 -0.6091  0.3906
 3821TIP3    H233027   2.606   2.001   7.316  0.1844 -0.6695  0.5157
 3822TIP3   OH233028   4.535   1.592   8.156  0.6323  0.2899 -0.3655
 3822TIP3    H133029   4.608   1.654   8.157  0.4652  0.4860 -0.3633
 3822TIP3    H233030   4.523   1.569   8.248  1.3044 -0.4644 -0.4562
 3823TIP3   OH233031   0.030   6.964   8.014  0.8419  0.0513 -0.1526
 3823TIP3    H133032  -0.038   6.959   7.947  0.7859  2.4293 -0.3749
 3823TIP3    H233033   0.112   6.961   7.965  0.8037  1.5581 -0.3479
 3824TIP3   OH233034   6.558   4.331   0.549 -0.0644  0.0348  0.1328
 3824TIP3    H133035   6.475   4.346   0.504  0.8909  1.7785 -1.1934
 3824TIP3    H233036   6.614   4.291   0.483  0.5856  0.2345  0.5558
 3825TIP3   OH233037   5.562   5.953   7.024  0.1886  0.1205 -0.0362
 3825TIP3    H133038   5.523   5.997   6.949 -0.4075 -1.7294 -0.8644
 3825TIP3    H233039   5.502   5.970   7.096 -1.5010 -1.5221 -0.9726
 3826TIP3   OH233040   1.272   0.089   1.615 -0.7694  0.6192 -0.2824
 3826TIP3    H133041   1.358   0.129   1.628 -1.5274  2.3272 -0.2090
 3826TIP3    H233042   1.224   0.109   1.696 -1.1334 -0.6760 -0.1491
 3827TIP3   OH233043   0.232   5.592   0.668  0.3093  0.1642 -0.0560
 3827TIP3    H133044   0.269   5.679   0.650 -0.1561  0.4350  0.2691
 3827TIP3    H233045   0.308   5.535   0.679  0.6290  0.1091 -2.1863
 3828TIP3   OH233046   4.018   4.908   1.103  0.2001  0.3332 -0.2534
 3828TIP3    H133047   3.946   4.845   1.108  0.9448 -0.5515 -0.3851
 3828TIP3    H233048   4.000   4.958   1.023 -1.2271  1.3686  0.6570
 3829TIP3   OH233049   1.470   3.795   1.337  0.4430  0.2487 -0.0851
 3829TIP3    H133050   1.445   3.724   1.397 -0.8012 -0.9898 -1.9576
 3829TIP3    H233051   1.491   3.869   1.395  1.3668 -1.4799  1.9253
 3830TIP3   OH233052   2.312   2.754   7.694  0.0749 -0.0157  0.1704
 3830TIP3    H133053   2.364   2.685   7.653  2.5350  0.1010  2.7780
 3830TIP3    H233054   2.377   2.817   7.726 -1.9066  1.8928  0.7085
 3831TIP3   OH233055   4.399   0.108   2.130  1.0068 -0.3164  0.0732
 3831TIP3    H133056   4.378   0.199   2.149  0.7112 -0.4432  0.3817
 3831TIP3    H233057   4.383   0.098   2.036 -2.7899 -1.0101  0.6405
 3832TIP3   OH233058   0.902   3.290   7.529 -0.2572  0.0217  0.0070
 3832TIP3    H133059   0.872   3.238   7.604 -1.3166  0.3150 -0.1964
 3832TIP3    H233060   0.936   3.371   7.568  0.7129 -0.5005  0.2732
 3833TIP3   OH233061   2.895   1.938   1.576  0.6845  0.0734  0.5304
 3833TIP3    H133062   2.845   1.920   1.656  0.3141 -1.4978 -0.0164
 3833TIP3    H233063   2.855   2.018   1.540 -0.6527 -0.4736  0.7419
 3834TIP3   OH233064   1.899   2.466   1.960  0.0476 -0.0136  0.3419
 3834TIP3    H133065   1.876   2.425   1.877 -0.0678 -0.4926  0.6049
 3834TIP3    H233066   1.821   2.455   2.014  0.0388  0.5007  0.4394
 3835TIP3   OH233067   4.452   2.701   6.749 -0.7364 -0.1234 -0.3748
 3835TIP3    H133068   4.362   2.683   6.778 -0.3306 -2.0036 -0.1386
 3835TIP3    H233069   4.501   2.622   6.774  0.6151  0.1347 -2.0348
 3836TIP3   OH233070   4.752   1.944   1.725  0.6862  0.4549 -0.5961
 3836TIP3    H133071   4.708   2.028   1.741  0.2045  0.0474  0.2629
 3836TIP3    H233072   4.705   1.906   1.652 -1.0172 -0.3774  0.8571
 3837TIP3   OH233073   5.562   4.677   8.116  0.2176 -0.3343  0.1025
 3837TIP3    H133074   5.567   4.770   8.138  0.5218  0.0351 -1.4169
 3837TIP3    H233075   5.646   4.641   8.144  0.5123  0.0722 -0.2421
 3838TIP3   OH233076   0.555   4.682   2.005  0.6037  0.5145  0.7438
 3838TIP3    H133077   0.488   4.621   2.036  0.7909 -0.1676 -0.1325
 3838TIP3    H233078   0.630   4.666   2.062  0.8836 -0.5905  0.0986
 3839TIP3   OH233079   1.898   1.742   1.969  0.0428  0.2885 -0.8205
 3839TIP3    H133080   1.978   1.745   2.021 -0.1913 -0.3113 -0.4175
 3839TIP3    H233081   1.851   1.666   2.002  0.1383 -0.4302 -2.2666
 3840TIP3   OH233082   0.346   4.530   0.592  0.0822  0.0885 -0.0216
 3840TIP3    H133083   0.270   4.472   0.595 -0.1368  0.2203 -1.8319
 3840TIP3    H233084   0.363   4.552   0.684 -0.4214 -2.0440  0.6354
 3841TIP3   OH233085   2.674   4.939   1.951  0.4937  0.1476 -0.8797
 3841TIP3    H133086   2.583   4.929   1.977 -0.0488 -0.4014 -2.8335
 3841TIP3    H233087   2.700   5.024   1.987 -0.1084 -0.5851  1.4482
 3842TIP3   OH233088   1.240   5.544   1.245 -0.5670  0.9541 -0.4153
 3842TIP3    H133089   1.297   5.612   1.210  0.9920  0.2064  0.5438
 3842TIP3    H233090   1.215   5.574   1.332  1.1797 -0.1993  0.5445
 3843TIP3   OH233091   6.842   3.815   8.342  0.4245 -0.1138 -0.3711
 3843TIP3    H133092   6.765   3.777   8.300 -0.7141  1.4432  0.1880
 3843TIP3    H233093   6.808   3.893   8.387  2.6838  1.8815 -1.9008
 3844TIP3   OH233094   5.673   0.243   0.347 -0.1851 -0.1904  0.1893
 3844TIP3    H133095   5.596   0.199   0.382 -1.6471  2.2703  0.2797
 3844TIP3    H233096   5.651   0.260   0.255 -0.9522  2.8216  0.8337
 3845TIP3   OH233097   6.341   6.406   6.070 -0.1882  0.5296 -0.1434
 3845TIP3    H133098   6.257   6.362   6.053  0.5644 -0.7800 -0.6678
 3845TIP3    H233099   6.389   6.343   6.124  0.4595  1.2647  0.1408
 3846TIP3   OH233100   2.461   6.487   0.079 -0.1846  0.2670 -0.1716
 3846TIP3    H133101   2.550   6.453   0.068 -1.0963 -2.4582  0.1423
 3846TIP3    H233102   2.431   6.506  -0.010 -0.2261 -1.4678 -0.5502
 3847TIP3   OH233103   3.125   3.580   7.338  0.1082  0.3847  0.3718
 3847TIP3    H133104   3.067   3.508   7.362 -1.3423  1.4111  0.0540
 3847TIP3    H233105   3.111   3.592   7.244 -0.9103  2.1216  0.7160
 3848TIP3   OH233106   5.525   1.687   0.260 -0.0217  0.8362  0.1787
 3848TIP3    H133107   5.436   1.651   0.258 -0.0097  0.8067  0.1971
 3848TIP3    H233108   5.569   1.640   0.330 -0.2751  1.5193  0.8136
 3849TIP3   OH233109   4.846   0.298   1.452  0.2680  0.3711  0.5017
 3849TIP3    H133110   4.763   0.300   1.405 -0.4839  1.2218  1.8438
 3849TIP3    H233111   4.897   0.232   1.405  0.1855  2.2379 -2.5436
 3850TIP3   OH233112   2.463   0.106   7.046  0.0742 -0.0098  0.3060
 3850TIP3    H133113   2.420   0.030   7.084  1.5162 -1.1419 -0.2278
 3850TIP3    H233114   2.393   0.171   7.037 -0.9400 -0.8153  1.8896
 3851TIP3   OH233115   0.659   5.180   6.717 -0.0332 -0.2086 -0.4282
 3851TIP3    H133116   0.625   5.185   6.628  1.0990 -3.1132 -1.1566
 3851TIP3    H233117   0.723   5.251   6.723 -0.2731  0.1522 -1.8526
 3852TIP3   OH233118   6.881   4.049   1.556  0.3880  0.3985  0.1588
 3852TIP3    H133119   6.899   4.012   1.470 -0.0941  2.2584 -0.7944
 3852TIP3    H233120   6.958   4.104   1.575  0.6880 -0.3342  1.1267
 3853TIP3   OH233121   5.965   2.108   1.375  0.7483  0.0680  0.6484
 3853TIP3    H133122   6.004   2.095   1.462 -0.3075 -0.9412  0.9966
 3853TIP3    H233123   5.931   2.197   1.377  1.7052  0.4368  0.8719
 3854TIP3   OH233124   1.279   5.835   0.977 -0.5337 -0.3599  0.4494
 3854TIP3    H133125   1.264   5.920   1.017 -1.0461 -1.2811  2.3325
 3854TIP3    H233126   1.248   5.845   0.887 -0.9145  1.3336  0.7380
 3855TIP3   OH233127   6.617   6.665   8.347 -0.4669  0.1397  0.0753
 3855TIP3    H133128   6.617   6.571   8.362 -1.7677  0.2694  1.0067
 3855TIP3    H233129   6.661   6.676   8.262  2.0917 -1.0564  1.1456
 3856TIP3   OH233130   5.514   3.046   7.322  0.4010  0.1174 -0.2116
 3856TIP3    H133131   5.449   2.979   7.341  0.6323  0.3340  1.5041
 3856TIP3    H233132   5.575   3.003   7.261 -0.7481 -0.4230 -1.0061
 3857TIP3   OH233133   0.022   0.173   7.636 -0.5261  0.2755  0.4781
 3857TIP3    H133134   0.070   0.103   7.681 -1.1204  0.4887  1.4660
 3857TIP3    H233135   0.007   0.138   7.548  1.3005  0.1482  0.1723
 3858TIP3   OH233136   3.806   1.562   1.192  0.3703  0.0117 -0.0471
 3858TIP3    H133137   3.761   1.603   1.266  0.7888  1.3067 -0.4834
 3858TIP3    H233138   3.777   1.471   1.194 -2.3621  0.7722 -0.3352
 3859TIP3   OH233139   6.612   2.111   7.510 -0.4980  0.6849 -0.0032
 3859TIP3    H133140   6.528   2.108   7.463  0.2632  1.2150 -1.4336
 3859TIP3    H233141   6.612   2.196   7.554 -1.0470  0.3433  0.6871
 3860TIP3   OH233142   0.143   3.534   6.511  0.3675  0.2486 -0.1886
 3860TIP3    H133143   0.235   3.552   6.531  0.7877 -0.7889 -1.1049
 3860TIP3    H233144   0.118   3.469   6.577  1.4655 -2.4191 -2.2356
 3861TIP3   OH233145   6.655   0.285   7.048  0.1195  0.1894 -0.3154
 3861TIP3    H133146   6.683   0.299   6.958  0.1574  1.4640 -0.1284
 3861TIP3    H233147   6.610   0.366   7.072 -0.9293 -0.5869  0.4325
 3862TIP3   OH233148   4.657   6.312   6.869  0.2871 -0.5590 -0.2756
 3862TIP3    H133149   4.738   6.321   6.920  1.9778  1.2872 -2.9634
 3862TIP3    H233150   4.681   6.254   6.796 -0.3180  1.0518 -1.8423
 3863TIP3   OH233151   0.194   6.401   0.419  0.2449 -0.4669  0.2384
 3863TIP3    H133152   0.228   6.466   0.358  0.4455 -0.8727 -0.0950
 3863TIP3    H233153   0.106   6.432   0.441  0.5037  0.1413  0.4327
 3864TIP3   OH233154   2.609   3.919   1.369  0.3533  0.4291 -0.3828
 3864TIP3    H133155   2.627   3.840   1.317  1.6996  1.5166 -1.6442
 3864TIP3    H233156   2.522   3.904   1.405  0.3293 -1.3727 -1.0780
 3865TIP3   OH233157   2.757   4.285   1.685 -0.3352  0.1229 -0.3577
 3865TIP3    H133158   2.706   4.365   1.697  0.5429  0.7314 -0.6001
 3865TIP3    H233159   2.838   4.301   1.733 -1.0144 -1.5067  1.5066
 3866TIP3   OH233160   4.690   1.558   1.406  0.1404  0.3911 -0.3347
 3866TIP3    H133161   4.762   1.558   1.469  0.4892 -0.0443 -0.7273
 3866TIP3    H233162   4.698   1.475   1.360 -1.7666 -0.5397  0.8942
 3867TIP3   OH233163   1.232   0.401   6.888 -0.1606 -0.4745  0.6122
 3867TIP3    H133164   1.322   0.415   6.858 -0.4974  1.7536  0.4645
 3867TIP3    H233165   1.178   0.420   6.811 -0.8475  0.8954  1.3869
 3868TIP3   OH233166   1.415   2.829   7.887  0.6835  0.1527  0.2363
 3868TIP3    H133167   1.423   2.800   7.797 -1.0580  1.8961 -0.5542
 3868TIP3    H233168   1.484   2.894   7.898  0.6075  0.2755 -0.0023
 3869TIP3   OH233169   1.442   0.665   2.181  0.0243 -0.6330 -0.6647
 3869TIP3    H133170   1.439   0.637   2.272  2.8861 -1.0258 -0.5976
 3869TIP3    H233171   1.423   0.586   2.130  0.7201 -0.9634 -0.4168
 3870TIP3   OH233172   6.790   2.638   7.545 -0.4103  0.4824 -0.1236
 3870TIP3    H133173   6.842   2.709   7.507 -0.4354  0.4736 -0.1747
 3870TIP3    H233174   6.699   2.670   7.541 -0.5110  0.1291 -0.8552
 3871TIP3   OH233175   6.195   1.619   7.969  0.8717 -0.3671  0.6474
 3871TIP3    H133176   6.193   1.598   7.875  0.5954  0.4075  0.4647
 3871TIP3    H233177   6.279   1.586   7.999  0.6318 -1.3157  0.2969
 3872TIP3   OH233178   4.009   5.553   8.299  0.0185 -0.7305  0.3014
 3872TIP3    H133179   3.955   5.509   8.234 -0.7050 -0.3050  0.6081
 3872TIP3    H233180   4.099   5.539   8.268 -0.2985 -0.7793 -0.6323
 3873TIP3   OH233181   2.285   0.977   1.727  0.4760  0.0119  0.0915
 3873TIP3    H133182   2.249   0.889   1.738  0.9739 -0.3658 -1.1093
 3873TIP3    H233183   2.275   1.018   1.813 -1.3221 -0.6131  0.2308
 3874TIP3   OH233184   3.164   5.426   7.720 -0.0343 -0.3067  0.2730
 3874TIP3    H133185   3.161   5.494   7.653  0.1423 -0.1986  0.3735
 3874TIP3    H233186   3.089   5.443   7.776  1.0749  1.0037  1.4502
 3875TIP3   OH233187   0.421   3.202   0.653  0.8252 -0.1411 -0.1780
 3875TIP3    H133188   0.361   3.249   0.596  0.2498  2.7226  2.5207
 3875TIP3    H233189   0.494   3.179   0.596 -0.5253  0.8489 -2.4576
 3876TIP3   OH233190   6.290   6.909   6.858 -0.5005  0.0354 -0.2486
 3876TIP3    H133191   6.256   6.997   6.871  3.5793  1.5475  1.5068
 3876TIP3    H233192   6.267   6.862   6.939 -0.7364  0.1625 -0.2410
 3877TIP3   OH233193   4.876   3.456   7.673  0.2378  0.6623 -0.2805
 3877TIP3    H133194   4.948   3.481   7.615  1.6711 -0.6559  0.8218
 3877TIP3    H233195   4.918   3.403   7.741 -1.9323 -0.9581 -0.1078
 3878TIP3   OH233196   6.573   6.953   8.333 -0.9049 -0.2228 -0.1407
 3878TIP3    H133197   6.586   6.858   8.340  1.3252 -0.0223 -0.8048
 3878TIP3    H233198   6.479   6.963   8.317 -1.1900 -2.3136 -0.0209
 3879TIP3   OH233199   4.005   1.460   0.476 -0.7783  0.4201  0.4230
 3879TIP3    H133200   4.068   1.469   0.547 -1.2536  2.0323  0.6699
 3879TIP3    H233201   4.058   1.438   0.399 -0.0374  0.6883  0.8495
 3880TIP3   OH233202   2.854   4.074   1.294  0.7655 -0.7190 -0.0278
 3880TIP3    H133203   2.794   4.014   1.338  2.3729 -1.1510  1.7454
 3880TIP3    H233204   2.812   4.159   1.297  0.6282 -0.8252  2.0433
 3881TIP3   OH233205   6.524   1.639   1.331  0.2101  0.5066  0.3911
 3881TIP3    H133206   6.595   1.651   1.268 -0.3347  1.2298 -0.0893
 3881TIP3    H233207   6.551   1.562   1.382  0.9248  0.2496 -0.3489
 3882TIP3   OH233208   5.484   6.298   0.674 -0.1526 -0.3035  0.0693
 3882TIP3    H133209   5.466   6.370   0.613  1.6062  1.9877  2.0868
 3882TIP3    H233210   5.567   6.261   0.644 -0.8194 -1.2575 -0.6801
 3883TIP3   OH233211   4.423   1.869   7.982 -0.4882 -0.5840 -0.0304
 3883TIP3    H133212   4.516   1.848   7.979 -0.6849 -1.3828 -1.3193
 3883TIP3    H233213   4.402   1.897   7.893 -1.1455  1.2081  0.6350
 3884TIP3   OH233214   4.811   4.723   7.644 -0.0863  0.2996 -0.5191
 3884TIP3    H133215   4.857   4.685   7.569  0.2560 -0.1054 -0.1090
 3884TIP3    H233216   4.881   4.757   7.700 -0.3515  0.8082 -0.4895
 3885TIP3   OH233217   1.690   6.136   8.036 -0.0386  0.1515  0.6681
 3885TIP3    H133218   1.613   6.081   8.019 -1.2177  1.1752  2.2951
 3885TIP3    H233219   1.758   6.075   8.064 -0.9795 -0.5958  1.3776
 3886TIP3   OH233220   2.945   5.975   2.016  0.0037  0.5446 -0.4115
 3886TIP3    H133221   2.987   6.056   2.046  1.9497 -0.5135 -0.0693
 3886TIP3    H233222   2.976   5.963   1.926  0.9157 -0.5259  0.0194
 3887TIP3   OH233223   3.349   1.985   0.160 -0.6946 -0.1648 -0.1817
 3887TIP3    H133224   3.305   2.047   0.218 -2.0533 -1.4391  0.2315
 3887TIP3    H233225   3.440   1.988   0.187 -0.8447  1.1739  0.2517
 3888TIP3   OH233226   5.990   4.372   6.617  0.1373  0.3736 -0.0560
 3888TIP3    H133227   6.049   4.437   6.579  0.5291 -0.3531 -0.7044
 3888TIP3    H233228   6.047   4.300   6.643 -0.6282 -1.2621 -2.6030
 3889TIP3   OH233229   0.846   6.728   7.558  0.1955  0.0386  0.1327
 3889TIP3    H133230   0.793   6.674   7.617  0.7329  0.3098  0.8723
 3889TIP3    H233231   0.783   6.761   7.494 -0.1341 -1.5567 -0.4281
 3890TIP3   OH233232   3.115   1.779   0.498  0.1940 -0.0471 -0.3063
 3890TIP3    H133233   3.062   1.859   0.495  1.4625  0.8904  1.0883
 3890TIP3    H233234   3.134   1.766   0.591 -0.6036 -2.4461 -0.3839
 3891TIP3   OH233235   5.094   6.422   8.062  0.8353 -0.2196 -0.4989
 3891TIP3    H133236   5.111   6.504   8.015  0.3751  0.6203  0.7459
 3891TIP3    H233237   5.140   6.355   8.011  0.4376  0.6520 -2.0803
 3892TIP3   OH233238   6.625   6.744   1.469  0.1961  0.2838  0.5516
 3892TIP3    H133239   6.648   6.837   1.471 -1.6684  1.3457 -5.6366
 3892TIP3    H233240   6.703   6.701   1.435 -0.0964  0.3115 -0.1849
 3893TIP3   OH233241   2.215   0.961   1.467 -0.6646  0.3358 -0.1217
 3893TIP3    H133242   2.172   0.881   1.498  0.5380 -0.1329  0.4202
 3893TIP3    H233243   2.236   1.009   1.548 -1.4285  1.2327 -0.4470
 3894TIP3   OH233244   6.711   1.444   1.073 -0.0287  0.0794 -0.2560
 3894TIP3    H133245   6.739   1.415   0.986 -0.5941  2.1562 -1.1809
 3894TIP3    H233246   6.695   1.362   1.121  3.3577 -1.1849 -1.0007
 3895TIP3   OH233247   4.940   5.475   7.264 -0.4191  0.0418 -0.2942
 3895TIP3    H133248   4.895   5.435   7.189  2.4290 -1.7708 -1.1787
 3895TIP3    H233249   4.911   5.425   7.340 -0.6690 -0.4189 -0.6905
 3896TIP3   OH233250   1.162   2.670   2.307 -0.5031  0.2561  0.0190
 3896TIP3    H133251   1.083   2.707   2.266  0.1628 -0.3628 -1.9574
 3896TIP3    H233252   1.156   2.576   2.288  0.5300  0.1567  0.1411
 3897TIP3   OH233253   5.752   3.995   0.146  0.1439 -0.3752 -0.1605
 3897TIP3    H133254   5.761   4.010   0.052  1.1546 -0.0792 -0.0294
 3897TIP3    H233255   5.834   3.952   0.171 -0.1568 -0.5399  0.5683
 3898TIP3   OH233256   1.711   5.818   1.169  0.2330 -0.0425 -0.5017
 3898TIP3    H133257   1.716   5.729   1.205 -0.9960  0.1288  0.1028
 3898TIP3    H233258   1.793   5.860   1.198  0.1081 -0.4866  0.5290
 3899TIP3   OH233259   6.103   3.333   0.350  0.1980 -0.6625  0.4163
 3899TIP3    H133260   6.188   3.372   0.372 -0.0985 -0.7334  1.7921
 3899TIP3    H233261   6.104   3.325   0.255  1.5680 -0.2840  0.3767
 3900TIP3   OH233262   5.778   4.491   6.720  0.8564 -0.1495 -0.1409
 3900TIP3    H133263   5.829   4.488   6.801  1.5105  2.4569 -0.3598
 3900TIP3    H233264   5.831   4.442   6.656  1.1102 -0.8594  0.5994
 3901TIP3   OH233265   5.156   5.237   0.530  0.2365 -0.2234 -0.6820
 3901TIP3    H133266   5.200   5.153   0.519  0.4891 -0.6997  2.8453
 3901TIP3    H233267   5.224   5.296   0.561 -0.6433  0.2071  0.5339
 3902TIP3   OH233268   2.728   4.021   7.973 -0.2160 -0.0560 -0.1118
 3902TIP3    H133269   2.816   4.031   7.936  0.4525 -0.3839  1.3237
 3902TIP3    H233270   2.669   4.041   7.900  1.0211 -1.7420 -1.6704
 3903TIP3   OH233271   6.946   2.914   7.663 -0.2060  0.2153 -0.1636
 3903TIP3    H133272   7.032   2.957   7.657 -0.9878  1.6868 -2.0019
 3903TIP3    H233273   6.954   2.855   7.738  1.8979  1.4402  0.6832
 3904TIP3   OH233274   3.040   1.083   0.694  0.2849  0.6334 -0.4583
 3904TIP3    H133275   3.067   1.056   0.606 -1.6614 -0.4520 -0.7791
 3904TIP3    H233276   3.026   1.177   0.687 -2.2261  0.2122 -2.0419
 3905TIP3   OH233277   2.507   0.841   8.172 -0.2689 -0.0987 -0.2289
 3905TIP3    H133278   2.421   0.868   8.137 -0.4348  0.6303  0.7015
 3905TIP3    H233279   2.490   0.822   8.264  0.5572 -0.0184 -0.0557
 3906TIP3   OH233280   4.210   4.221   0.764  0.1902 -0.1359  0.3790
 3906TIP3    H133281   4.264   4.169   0.705  0.3306  0.9826 -0.5264
 3906TIP3    H233282   4.263   4.299   0.782 -0.1699 -0.1087  1.3887
 3907TIP3   OH233283   4.945   2.639   0.900  0.3010 -0.1178 -0.2453
 3907TIP3    H133284   4.991   2.559   0.925 -0.6962 -0.7012 -0.2087
 3907TIP3    H233285   4.886   2.657   0.973 -0.7147 -0.3293 -0.9804
 3908TIP3   OH233286   2.219   3.790   0.287  0.0171  0.4055  0.0973
 3908TIP3    H133287   2.140   3.836   0.318 -1.2883 -1.6583  0.0651
 3908TIP3    H233288   2.243   3.732   0.360 -0.4362 -1.2780 -1.0217
 3909TIP3   OH233289   5.566   0.014   7.520 -0.1287 -0.1839  0.4255
 3909TIP3    H133290   5.498   0.062   7.565  0.5801  0.4047  0.8838
 3909TIP3    H233291   5.561   0.044   7.429  1.5135  2.2521  1.0297
 3910TIP3   OH233292   3.859   5.210   8.234  0.0609  0.1207  0.4138
 3910TIP3    H133293   3.847   5.234   8.326  0.0256  1.3933  0.1019
 3910TIP3    H233294   3.827   5.287   8.185  0.1588 -0.5018 -0.6565
 3911TIP3   OH233295   2.143   2.750   0.267 -0.5352 -0.2913 -0.3897
 3911TIP3    H133296   2.191   2.790   0.194 -0.6354  0.2515 -0.1692
 3911TIP3    H233297   2.100   2.674   0.228 -1.5432  0.6455 -1.1960
 3912TIP3   OH233298   5.421   2.234   0.726 -0.0870 -0.0804 -0.4678
 3912TIP3    H133299   5.423   2.324   0.759 -0.8016  0.4581 -1.8352
 3912TIP3    H233300   5.502   2.194   0.760  0.8768  1.4491 -0.8721
 3913TIP3   OH233301   2.688   5.099   1.198  0.1325 -0.0804  0.8883
 3913TIP3    H133302   2.642   5.183   1.202 -1.1131 -0.5868 -1.2443
 3913TIP3    H233303   2.779   5.120   1.218 -0.2661  1.6502  1.0439
 3914TIP3   OH233304   2.798   3.893   0.911 -0.3265  0.3130 -0.2168
 3914TIP3    H133305   2.770   3.808   0.946  0.0662 -0.9820 -2.8347
 3914TIP3    H233306   2.888   3.879   0.883 -0.2657  1.5928 -0.7128
 3915TIP3   OH233307   3.960   1.634   0.024 -0.3329 -0.0892  0.4820
 3915TIP3    H133308   3.919   1.716   0.053  0.7937  1.0669 -1.0479
 3915TIP3    H233309   4.039   1.626   0.078  1.0947  1.4061 -1.2625
 3916TIP3   OH233310   4.419   0.097   0.696 -0.2154  0.0988  0.1623
 3916TIP3    H133311   4.426   0.095   0.601  1.8584  1.5744  0.2140
 3916TIP3    H233312   4.399   0.189   0.716  0.5936  0.0717  1.1813
 3917TIP3   OH233313   4.382   6.524   2.456  0.2915 -0.1058 -0.3752
 3917TIP3    H133314   4.405   6.464   2.385  1.2514  1.2134 -1.2138
 3917TIP3    H233315   4.445   6.505   2.525 -0.9605 -1.7548  0.4175
 3918TIP3   OH233316   3.015   0.441   8.000 -0.3360  0.0126 -0.1192
 3918TIP3    H133317   2.952   0.497   7.954  1.9826  3.7501  0.7939
 3918TIP3    H233318   3.079   0.418   7.933 -0.6579 -0.5391 -0.2389
 3919TIP3   OH233319   5.460   4.907   7.641 -0.0880  0.5987 -0.3205
 3919TIP3    H133320   5.501   4.918   7.727  0.3013 -0.6001 -0.3304
 3919TIP3    H233321   5.381   4.960   7.645 -0.7110 -0.3834  1.2221
 3920TIP3   OH233322   6.431   2.615   0.886 -0.6442 -0.3659  0.0264
 3920TIP3    H133323   6.386   2.530   0.890  0.0387 -0.9384 -2.3734
 3920TIP3    H233324   6.522   2.595   0.910 -1.0621  0.3267  2.4379
 3921TIP3   OH233325   6.391   2.177   0.014  0.4998 -0.3603 -0.2691
 3921TIP3    H133326   6.323   2.171   0.080  1.2821  0.3914  0.6403
 3921TIP3    H233327   6.391   2.091  -0.029 -0.3235 -0.7028  0.3954
 3922TIP3   OH233328   6.415   0.423   2.047 -0.7721  0.4058  0.1952
 3922TIP3    H133329   6.415   0.402   2.140  0.2734  0.3063  0.1812
 3922TIP3    H233330   6.328   0.459   2.031 -0.9542  0.4538  1.2118
 3923TIP3   OH233331   3.052   5.875   7.750  0.2193  0.2083 -0.5561
 3923TIP3    H133332   3.144   5.856   7.767  0.0929  1.2606  1.6439
 3923TIP3    H233333   3.025   5.931   7.823 -2.1129  0.1134 -1.2642
 3924TIP3   OH233334   1.115   0.692   8.252  0.3802 -0.1577 -0.5522
 3924TIP3    H133335   1.200   0.675   8.295  0.6279  1.4889 -0.3487
 3924TIP3    H233336   1.056   0.713   8.324  0.0959 -0.1205 -0.7967
 3925TIP3   OH233337   6.370   5.357   7.315  0.6076  0.0929 -0.4792
 3925TIP3    H133338   6.383   5.452   7.315 -0.1380  0.2030 -0.0470
 3925TIP3    H233339   6.277   5.345   7.298  0.3493 -0.4886  1.1688
 3926TIP3   OH233340   6.035   3.603   6.279  0.1223 -0.5665 -0.1530
 3926TIP3    H133341   5.977   3.661   6.230  0.0754 -0.2781  0.2357
 3926TIP3    H233342   6.097   3.571   6.215 -1.5399 -2.3004 -0.9781
 3927TIP3   OH233343   0.498   4.725   1.233 -0.2543 -0.5166 -0.6838
 3927TIP3    H133344   0.503   4.631   1.251 -0.7798 -0.7462 -1.6545
 3927TIP3    H233345   0.404   4.745   1.233 -0.1264  0.1086  0.0001
 3928TIP3   OH233346   3.567   6.143   0.991  0.0019  0.1455  0.2646
 3928TIP3    H133347   3.603   6.116   1.076 -0.6065 -1.3443  0.0820
 3928TIP3    H233348   3.482   6.098   0.986 -0.0743  0.4051 -1.0364
 3929TIP3   OH233349   0.446   4.069   6.640 -0.8072 -0.0244 -0.4990
 3929TIP3    H133350   0.372   4.070   6.579 -1.4226  0.1724  0.2257
 3929TIP3    H233351   0.420   4.129   6.710  0.0600  0.0765 -0.2488
 3930TIP3   OH233352   2.791   5.478   1.332 -0.3344  0.5103 -0.4072
 3930TIP3    H133353   2.821   5.543   1.268  2.3656 -1.6327 -1.5331
 3930TIP3    H233354   2.871   5.448   1.375 -1.5955 -1.2145  0.8776
 3931TIP3   OH233355   4.162   1.439   1.399  0.5074 -1.1982 -0.2956
 3931TIP3    H133356   4.174   1.526   1.361 -0.1705 -0.9591  0.0324
 3931TIP3    H233357   4.244   1.393   1.379  1.1223 -0.2868  0.0608
 3932TIP3   OH233358   1.351   0.761   1.408 -0.2208 -0.2765 -0.1246
 3932TIP3    H133359   1.356   0.842   1.459  0.2567 -1.3657  1.6094
 3932TIP3    H233360   1.432   0.758   1.358  0.5021 -0.4638  1.0410
 3933TIP3   OH233361   4.351   3.417   1.283 -0.4874  0.4465  0.4177
 3933TIP3    H133362   4.321   3.372   1.362  2.4356 -1.6863  0.4890
 3933TIP3    H233363   4.273   3.423   1.228 -2.1168 -0.0694  2.5073
 3934TIP3   OH233364   0.226   1.376   0.173 -0.2367  0.1024  0.3378
 3934TIP3    H133365   0.165   1.383   0.100  1.7753  0.3827 -1.4104
 3934TIP3    H233366   0.269   1.461   0.177  1.2865 -0.6210  0.3051
 3935TIP3   OH233367   1.335   4.747   0.624 -0.2913 -0.1156  0.5507
 3935TIP3    H133368   1.373   4.763   0.537 -2.2585 -0.3141 -0.3798
 3935TIP3    H233369   1.329   4.834   0.663  1.5934 -0.1188  0.9848
 3936TIP3   OH233370   1.685   4.087   1.828  0.3435 -0.7725  0.0548
 3936TIP3    H133371   1.706   4.043   1.911 -0.5024 -0.3944  0.4803
 3936TIP3    H233372   1.608   4.140   1.848  0.8829  0.3286 -0.6352
 3937TIP3   OH233373   4.128   3.749   7.225 -0.0272 -0.4561  0.3514
 3937TIP3    H133374   4.067   3.820   7.204 -1.4349 -1.6192  0.3833
 3937TIP3    H233375   4.169   3.728   7.141 -0.6548 -0.5565  0.0653
 3938TIP3   OH233376   5.882   3.433   1.471  0.2792  0.2754  0.0548
 3938TIP3    H133377   5.890   3.528   1.468 -0.9722  0.5312  2.5060
 3938TIP3    H233378   5.972   3.401   1.469  0.7481  1.5490  0.1571
 3939TIP3   OH233379   6.405   4.127   1.813  0.2957 -0.3438  0.0335
 3939TIP3    H133380   6.431   4.193   1.878  0.0860 -0.1999 -0.0270
 3939TIP3    H233381   6.328   4.164   1.771  0.7908 -0.1433 -0.7331
 3940TIP3   OH233382   5.381   4.822   0.738 -0.2613  0.1760 -0.1868
 3940TIP3    H133383   5.405   4.896   0.793 -0.0297  0.8082 -1.1187
 3940TIP3    H233384   5.304   4.784   0.781  1.8827 -1.5313  2.5559
 3941TIP3   OH233385   2.958   4.815   1.605 -0.1151  0.0578 -0.4486
 3941TIP3    H133386   3.030   4.818   1.669  1.2863 -1.2630 -1.8666
 3941TIP3    H233387   2.995   4.855   1.526 -0.7474 -1.1084 -1.3638
 3942TIP3   OH233388   4.877   2.081   0.161  0.0442 -0.0750  0.4277
 3942TIP3    H133389   4.940   2.097   0.230  0.9361  1.6881 -0.7117
 3942TIP3    H233390   4.820   2.158   0.163 -0.1837 -0.2102 -0.4954
 3943TIP3   OH233391   5.780   0.246   1.031  0.3224 -0.6397  0.3074
 3943TIP3    H133392   5.793   0.288   1.116 -0.2903 -0.0263  0.1070
 3943TIP3    H233393   5.692   0.209   1.035 -0.2673  0.5820 -0.5295
 3944TIP3   OH233394   2.634   5.209   0.086 -0.0065 -0.0890 -0.1926
 3944TIP3    H133395   2.556   5.165   0.118  0.0724  0.2738  0.5012
 3944TIP3    H233396   2.614   5.231  -0.005 -0.9851  0.6318  0.1824
 3945TIP3   OH233397   1.661   2.078   0.649  0.0206 -0.0546  0.2192
 3945TIP3    H133398   1.739   2.088   0.704 -0.0074 -1.6476  0.6052
 3945TIP3    H233399   1.695   2.067   0.560  0.0562  2.8794 -0.2383
 3946TIP3   OH233400   0.419   4.596   7.545  0.7102  0.2130  0.0471
 3946TIP3    H133401   0.364   4.668   7.574 -2.1348 -1.3333 -1.0484
 3946TIP3    H233402   0.414   4.599   7.449  1.7133 -0.6105 -0.0539
 3947TIP3   OH233403   2.540   1.304   0.039 -0.9461  0.0413  0.7510
 3947TIP3    H133404   2.572   1.378   0.091 -0.1227 -0.1950  0.5945
 3947TIP3    H233405   2.542   1.335  -0.051 -0.4554 -0.2199  0.6707
 3948TIP3   OH233406   3.722   5.677   0.334 -0.1165  0.1715 -0.6186
 3948TIP3    H133407   3.672   5.620   0.275 -2.2637  1.8282 -0.5533
 3948TIP3    H233408   3.655   5.719   0.389  1.3705  2.4107 -0.3741
 3949TIP3   OH233409   1.510   1.856   7.403  0.0249  0.0209  0.5151
 3949TIP3    H133410   1.517   1.781   7.462 -0.3548 -0.5820 -0.1994
 3949TIP3    H233411   1.525   1.820   7.316 -0.6671  0.6768  0.1094
 3950TIP3   OH233412   2.575   0.320   0.348  0.6603 -0.2317  0.5344
 3950TIP3    H133413   2.608   0.239   0.387  2.6204 -0.2489 -0.9829
 3950TIP3    H233414   2.578   0.304   0.254 -2.1209  0.4645  0.2496
 3951TIP3   OH233415   3.586   0.478   1.075  0.2939 -0.3338 -0.2774
 3951TIP3    H133416   3.521   0.422   1.033 -0.8549 -0.7874  1.9485
 3951TIP3    H233417   3.621   0.531   1.004  0.3177 -2.7727 -2.2267
 3952TIP3   OH233418   2.053   1.464   6.121  0.4688 -0.1087 -0.1636
 3952TIP3    H133419   2.025   1.544   6.166 -0.1207 -1.4058  1.8625
 3952TIP3    H233420   2.136   1.441   6.161  0.8794 -0.2740 -1.0823
 3953TIP3   OH233421   5.653   5.204   6.281 -0.0789  0.3422 -0.5315
 3953TIP3    H133422   5.582   5.183   6.221  0.2569  0.3407 -0.9361
 3953TIP3    H233423   5.642   5.143   6.354 -0.5312  0.3889 -0.5591
 3954TIP3   OH233424   3.361   4.082   1.265 -0.5562  0.1003 -0.0611
 3954TIP3    H133425   3.281   4.035   1.243 -0.5669  0.6768 -1.3731
 3954TIP3    H233426   3.431   4.031   1.223 -0.0770 -0.9928  1.9601
 3955TIP3   OH233427   4.247   1.784   6.459 -0.0716  0.2744  0.1131
 3955TIP3    H133428   4.329   1.814   6.498 -1.4758  1.0392  2.7050
 3955TIP3    H233429   4.202   1.864   6.433  0.6028 -0.1903 -2.8827
 3956TIP3   OH233430   2.161   3.613   1.744 -0.7654 -0.0925  0.5169
 3956TIP3    H133431   2.206   3.668   1.808  0.8123 -0.5985 -0.1048
 3956TIP3    H233432   2.149   3.669   1.668  1.7348 -0.8000 -0.4854
 3957TIP3   OH233433   1.469   4.575   0.371 -0.4156 -0.2041  0.0060
 3957TIP3    H133434   1.540   4.563   0.434 -0.6882  2.5353  0.9961
 3957TIP3    H233435   1.512   4.611   0.293 -0.4457 -0.7261 -0.2530
 3958TIP3   OH233436   4.086   2.824   1.315  0.1332 -0.3884 -0.0074
 3958TIP3    H133437   4.061   2.916   1.309  1.3201 -0.1261 -1.6064
 3958TIP3    H233438   4.066   2.800   1.405 -0.9451  1.1965  0.2260
 3959TIP3   OH233439   4.858   1.775   7.025 -0.2324  0.2862  0.1205
 3959TIP3    H133440   4.800   1.828   7.081  0.5256  0.7023  0.5196
 3959TIP3    H233441   4.935   1.830   7.011  0.0642 -0.2615 -0.4196
 3960TIP3   OH233442   3.332   1.742   0.046 -0.0045 -0.2857  0.2351
 3960TIP3    H133443   3.340   1.831   0.082  0.4814 -0.1219 -0.2622
 3960TIP3    H233444   3.253   1.744  -0.007 -0.1710 -0.2415  0.4842
 3961TIP3   OH233445   1.664   4.199   0.222 -0.0848  0.1658 -0.0855
 3961TIP3    H133446   1.730   4.182   0.289  0.1586  0.5726 -0.2113
 3961TIP3    H233447   1.695   4.152   0.145  1.9225  3.0046 -1.2042
 3962TIP3   OH233448   4.549   1.016   0.182  0.4387 -0.4049  0.4035
 3962TIP3    H133449   4.492   1.022   0.105  2.3366 -0.0647 -1.0419
 3962TIP3    H233450   4.501   0.958   0.242 -1.3367 -0.2646 -0.7854
 3963TIP3   OH233451   6.442   3.400   8.058  0.1832 -0.5929 -0.0362
 3963TIP3    H133452   6.443   3.330   8.123  1.6876 -0.6549 -0.1138
 3963TIP3    H233453   6.392   3.470   8.101 -1.7982 -1.8367 -0.1630
 3964TIP3   OH233454   4.287   6.832   7.583 -0.5262  0.5567 -0.0605
 3964TIP3    H133455   4.365   6.811   7.634 -0.1035 -0.5647 -1.1304
 3964TIP3    H233456   4.320   6.878   7.506 -0.6487 -1.7066 -1.5509
 3965TIP3   OH233457   4.124   6.122   7.438 -0.5084 -0.1461  0.8278
 3965TIP3    H133458   4.130   6.182   7.364 -1.3061 -0.3999  0.5403
 3965TIP3    H233459   4.082   6.044   7.402 -0.0082 -0.6581  1.3277
 3966TIP3   OH233460   5.906   1.561   1.671  0.2630 -0.3758 -0.0718
 3966TIP3    H133461   5.927   1.616   1.596  2.1193  0.5248  1.0356
 3966TIP3    H233462   5.898   1.473   1.635 -0.4209  0.2411 -1.5297
 3967TIP3   OH233463   5.062   3.411   0.408  0.8753  0.4835 -0.6520
 3967TIP3    H133464   5.100   3.439   0.492  0.7152 -0.4466 -0.2473
 3967TIP3    H233465   4.985   3.466   0.397  1.3055  1.1105 -0.5473
 3968TIP3   OH233466   4.729   6.783   1.065 -0.6836  0.0289  0.7996
 3968TIP3    H133467   4.648   6.792   1.015 -1.0190 -0.1653  1.2912
 3968TIP3    H233468   4.752   6.691   1.059  0.8803  0.4999 -1.3989
 3969TIP3   OH233469   1.807   6.476   2.028  0.1982 -0.1901 -0.2076
 3969TIP3    H133470   1.728   6.435   2.065 -0.9201  1.1224 -1.0098
 3969TIP3    H233471   1.786   6.569   2.026  1.7002  0.1604 -0.6775
 3970TIP3   OH233472   0.795   3.464   0.497  0.0112  0.7004  0.2232
 3970TIP3    H133473   0.842   3.494   0.575 -1.3535  0.7384  1.0588
 3970TIP3    H233474   0.862   3.420   0.444  1.0590  1.0893  1.1888
 3971TIP3   OH233475   1.818   4.789   7.100  0.7212  0.0216  0.4432
 3971TIP3    H133476   1.837   4.846   7.026  0.7909  1.0726  1.2569
 3971TIP3    H233477   1.743   4.736   7.071  0.7518  0.4099 -0.3725
 3972TIP3   OH233478   1.001   3.028   1.008  0.3330 -0.1652  0.3468
 3972TIP3    H133479   1.015   2.970   1.082 -1.3876 -2.5649 -1.0557
 3972TIP3    H233480   0.914   3.066   1.023 -0.0263 -0.6660 -0.3904
 3973TIP3   OH233481   4.225   6.826   1.341  0.2109  0.0011 -0.2719
 3973TIP3    H133482   4.283   6.775   1.398 -0.4927 -0.3555  0.1468
 3973TIP3    H233483   4.170   6.761   1.298  0.1582  0.3290 -0.7078
 3974TIP3   OH233484   1.442   2.038   1.015  0.3805  0.3298 -0.2318
 3974TIP3    H133485   1.462   2.129   0.991  0.1893  0.5337  0.3732
 3974TIP3    H233486   1.437   2.039   1.110 -0.0863 -0.2232 -0.2467
 3975TIP3   OH233487   6.835   4.769   1.028  0.2936 -0.1092  0.1647
 3975TIP3    H133488   6.833   4.677   1.001 -1.6620 -0.1368  0.2373
 3975TIP3    H233489   6.856   4.765   1.122 -1.3238 -0.6207  0.5308
 3976TIP3   OH233490   2.948   1.411   0.133 -0.0515 -0.2421 -0.0048
 3976TIP3    H133491   2.978   1.413   0.224 -0.9590 -0.9692  0.3298
 3976TIP3    H233492   2.989   1.333   0.096  1.6087  0.9222 -0.7120
 3977TIP3   OH233493   1.480   4.107   2.257  0.1865  0.4595 -0.2776
 3977TIP3    H133494   1.427   4.090   2.334 -1.1012 -1.5526 -1.5145
 3977TIP3    H233495   1.433   4.177   2.211  2.0233  3.1368  1.6209
 3978TIP3   OH233496   6.804   4.504   6.188 -0.6379  0.2802  0.4146
 3978TIP3    H133497   6.865   4.574   6.211 -0.6532  0.7460 -0.8531
 3978TIP3    H233498   6.858   4.425   6.183  0.3655  1.0338 -2.7268
 3979TIP3   OH233499   3.117   4.860   7.131  0.0266  0.1031 -0.1632
 3979TIP3    H133500   3.025   4.883   7.121 -0.1438  0.0738  1.1747
 3979TIP3    H233501   3.116   4.774   7.173  0.6017  1.3831  2.7032
 3980TIP3   OH233502   2.517   3.605   1.422  0.0429  0.9764 -0.0422
 3980TIP3    H133503   2.504   3.512   1.440  0.2915  0.6879 -1.2382
 3980TIP3    H233504   2.600   3.608   1.375 -1.0605  1.4921 -2.0884
 3981TIP3   OH233505   1.501   1.780   6.958 -0.1950 -0.2908  0.2266
 3981TIP3    H133506   1.489   1.708   7.021  0.4391 -1.0529 -0.4971
 3981TIP3    H233507   1.508   1.736   6.873 -0.5957  0.6924 -0.3316
 3982TIP3   OH233508   5.052   3.627   7.547 -0.0403 -0.0892 -0.2143
 3982TIP3    H133509   4.999   3.700   7.516  2.0407  1.4317 -0.4612
 3982TIP3    H233510   5.085   3.585   7.467  1.3373  0.7471 -0.1253
 3983TIP3   OH233511   2.282   5.428   1.635 -0.1102 -0.1205  0.1564
 3983TIP3    H133512   2.218   5.389   1.695  0.2115  0.0944  0.6481
 3983TIP3    H233513   2.295   5.362   1.567 -0.0287 -0.6241  0.6515
 3984TIP3   OH233514   4.903   6.296   6.409  0.2706  0.4029 -0.5039
 3984TIP3    H133515   4.895   6.357   6.336  1.8450  1.1351 -0.1107
 3984TIP3    H233516   4.953   6.222   6.374 -0.3748  0.0016 -0.5893
 3985TIP3   OH233517   4.398   5.322   0.633  0.3365 -0.0433  0.3043
 3985TIP3    H133518   4.361   5.404   0.599 -0.5145 -1.0928 -1.4257
 3985TIP3    H233519   4.482   5.348   0.671  1.8821  1.1891 -3.4179
 3986TIP3   OH233520   2.642   2.644   0.745  0.2226  1.2577  0.1672
 3986TIP3    H133521   2.597   2.560   0.753 -1.2823  1.8793 -1.1634
 3986TIP3    H233522   2.725   2.631   0.791 -0.2728 -0.7180  0.6115
 3987TIP3   OH233523   2.316   0.560   7.347  0.0448 -0.1737 -0.2399
 3987TIP3    H133524   2.252   0.536   7.280 -0.9558 -1.2947  1.0708
 3987TIP3    H233525   2.309   0.656   7.353 -1.5722 -0.2707 -0.0740
 3988TIP3   OH233526   1.499   2.539   1.669  0.1278  0.4940 -0.2841
 3988TIP3    H133527   1.472   2.593   1.744  1.0175 -0.3417  0.6626
 3988TIP3    H233528   1.444   2.570   1.597 -1.7214  0.4228  1.0204
 3989TIP3   OH233529   5.503   4.283   0.190 -0.2954  0.2767  0.5562
 3989TIP3    H133530   5.544   4.360   0.151 -0.4298  0.5149  0.8827
 3989TIP3    H233531   5.525   4.211   0.131  1.7256  0.1407  1.4018
 3990TIP3   OH233532   2.261   5.341   7.929 -0.0198  0.5091  0.0648
 3990TIP3    H133533   2.267   5.401   7.855  0.6444  1.6431  0.9834
 3990TIP3    H233534   2.340   5.287   7.923 -0.6957 -0.4171 -0.8512
 3991TIP3   OH233535   2.700   1.242   1.065  0.7030 -0.8506  0.1034
 3991TIP3    H133536   2.690   1.164   1.120  2.4314 -1.4732 -0.3745
 3991TIP3    H233537   2.710   1.314   1.127 -0.0698 -1.1282  0.5632
 3992TIP3   OH233538   2.258   1.850   1.300  0.6222  0.0185 -0.4434
 3992TIP3    H133539   2.294   1.825   1.385  1.4043  0.8418 -0.5296
 3992TIP3    H233540   2.329   1.834   1.238  0.2365 -0.0483 -0.8773
 3993TIP3   OH233541   3.536   2.503   7.287 -0.0115 -0.3064  0.1236
 3993TIP3    H133542   3.567   2.438   7.223  0.7641 -0.7021  0.8801
 3993TIP3    H233543   3.451   2.530   7.254  1.0008  0.6029 -1.8763
 3994TIP3   OH233544   3.267   1.366   1.681  0.2629 -0.2229  0.3291
 3994TIP3    H133545   3.255   1.271   1.684  0.9484 -0.2991  0.7061
 3994TIP3    H233546   3.341   1.383   1.739  2.4541  0.1791 -2.3872
 3995TIP3   OH233547   1.180   4.235   0.167 -0.3013  0.3174  0.0224
 3995TIP3    H133548   1.219   4.315   0.132 -0.6323  0.4282 -0.0966
 3995TIP3    H233549   1.089   4.237   0.135  0.3435 -1.3712 -2.1618
 3996TIP3   OH233550   0.975   4.885   7.308  0.6601 -0.2463  1.0799
 3996TIP3    H133551   0.992   4.904   7.401  0.8752  1.6588  0.6896
 3996TIP3    H233552   0.997   4.966   7.263 -0.8093 -0.6785 -0.4985
 3997TIP3   OH233553   2.008   3.800   8.003  0.3256 -0.0890  0.7855
 3997TIP3    H133554   1.923   3.764   8.027  0.0714  0.4880  0.7430
 3997TIP3    H233555   2.056   3.725   7.967  0.0702 -0.5592  1.4031
 3998TIP3   OH233556   6.582   5.872   6.592  0.5598 -0.3555 -0.3767
 3998TIP3    H133557   6.537   5.793   6.563  1.6899 -1.7976  1.5718
 3998TIP3    H233558   6.512   5.927   6.629 -0.0165 -1.2245 -0.1590
 3999TIP3   OH233559   1.744   0.955   1.459  0.2896 -0.0388 -0.2463
 3999TIP3    H133560   1.783   0.999   1.535 -1.7997  2.7547 -0.6246
 3999TIP3    H233561   1.650   0.975   1.465  0.2168  2.0927 -4.5050
 4000TIP3   OH233562   4.749   5.866   0.626 -0.7598 -0.4378  0.4295
 4000TIP3    H133563   4.770   5.880   0.533  0.3342 -0.4528  0.6573
 4000TIP3    H233564   4.750   5.954   0.664  0.6393 -0.5633  0.7691
 4001TIP3   OH233565   2.861   0.340   1.050 -0.2474 -0.0862  0.0571
 4001TIP3    H133566   2.835   0.275   1.115 -0.5597 -0.3846 -0.3631
 4001TIP3    H233567   2.779   0.369   1.011 -0.2423  1.5609  1.1703
 4002TIP3   OH233568   1.240   5.455   7.211 -0.2459  0.0396 -0.5068
 4002TIP3    H133569   1.321   5.409   7.231 -1.8530 -2.4701  0.7121
 4002TIP3    H233570   1.240   5.530   7.270 -0.3040 -1.8252  2.0437
 4003TIP3   OH233571   1.126   3.399   7.878 -0.4192 -0.1783  0.0908
 4003TIP3    H133572   1.075   3.412   7.958 -2.2548 -0.1612 -1.0104
 4003TIP3    H233573   1.204   3.350   7.907 -0.8030  0.2114  1.9308
 4004TIP3   OH233574   3.337   1.013   6.042  0.2223 -0.2440  0.4144
 4004TIP3    H133575   3.275   1.080   6.071  0.0926  1.0381 -2.4355
 4004TIP3    H233576   3.420   1.060   6.034  0.5446 -0.8684  0.0861
 4005TIP3   OH233577   2.666   1.268   7.180  0.0467  0.3999  0.7323
 4005TIP3    H133578   2.637   1.182   7.210  0.6561 -0.3318 -0.6576
 4005TIP3    H233579   2.734   1.249   7.116  0.1519  1.9256  0.3465
 4006TIP3   OH233580   0.750   0.492   2.283 -0.6264  0.5648 -0.5231
 4006TIP3    H133581   0.760   0.397   2.279 -1.5740  0.2435  2.1945
 4006TIP3    H233582   0.669   0.510   2.235  0.8456  0.4128 -3.2666
 4007TIP3   OH233583   4.175   6.532   6.906  0.2619 -0.3009 -0.2538
 4007TIP3    H133584   4.252   6.479   6.927  0.3207  0.3350  1.2503
 4007TIP3    H233585   4.134   6.549   6.990 -0.2882  1.2513 -0.7963
 4008TIP3   OH233586   5.254   6.066   7.901 -0.0255 -0.2410 -0.2082
 4008TIP3    H133587   5.333   6.022   7.932  0.8395  1.7769  0.6709
 4008TIP3    H233588   5.287   6.141   7.852 -1.2768  1.8361  1.8942
 4009TIP3   OH233589   1.682   1.610   6.567 -0.4981 -0.4729  0.8735
 4009TIP3    H133590   1.748   1.679   6.568  0.6694 -1.5563  2.3333
 4009TIP3    H233591   1.709   1.550   6.498 -1.6755  0.6140 -0.5996
 4010TIP3   OH233592   6.310   6.737   7.065  0.0553 -0.2540 -0.3009
 4010TIP3    H133593   6.384   6.736   7.126 -1.2463  1.3347  1.4289
 4010TIP3    H233594   6.233   6.718   7.120 -1.4690  3.3618 -0.8766
 4011TIP3   OH233595   4.047   0.638   0.623 -0.1616  0.0085 -0.0066
 4011TIP3    H133596   4.129   0.592   0.644  0.0153  1.1599  2.1258
 4011TIP3    H233597   4.074   0.729   0.612 -1.1229  0.3579  0.4687
 4012TIP3   OH233598   3.862   4.492   8.024  0.5314 -0.1683  0.6276
 4012TIP3    H133599   3.802   4.534   8.085  1.4228 -0.3967  1.7034
 4012TIP3    H233600   3.947   4.532   8.042  1.2282 -1.7512  1.0648
 4013TIP3   OH233601   3.109   3.043   0.506 -0.5856  0.0112  0.1368
 4013TIP3    H133602   3.121   3.130   0.545 -0.8138  0.3335 -0.4979
 4013TIP3    H233603   3.044   3.001   0.562 -0.0589  0.0369  0.7762
 4014TIP3   OH233604   1.656   0.759   6.800  0.6612 -0.0613 -0.3115
 4014TIP3    H133605   1.674   0.665   6.803 -0.1088 -0.2100 -0.1345
 4014TIP3    H233606   1.609   0.777   6.882 -0.0760  0.2856 -0.7924
 4015TIP3   OH233607   3.947   0.235   7.768  0.3358 -0.1547  0.5349
 4015TIP3    H133608   3.866   0.207   7.809 -0.7873  1.4662 -0.4527
 4015TIP3    H233609   3.921   0.306   7.710  2.1237 -1.0149 -1.4694
 4016TIP3   OH233610   1.103   6.522   1.627 -0.0079 -0.4240  0.2469
 4016TIP3    H133611   1.063   6.504   1.712 -0.0012 -2.1996 -0.0872
 4016TIP3    H233612   1.192   6.488   1.634  1.0743  2.2023  0.5054
 4017TIP3   OH233613   3.440   4.839   1.902 -0.2098 -0.4322  0.0483
 4017TIP3    H133614   3.437   4.912   1.964  1.8631 -1.0869  0.9852
 4017TIP3    H233615   3.455   4.762   1.956  0.8496 -1.1276 -1.2011
 4018TIP3   OH233616   0.220   6.298   1.225 -0.1200  0.3470  0.6416
 4018TIP3    H133617   0.237   6.223   1.167 -0.4053  0.3260  0.5794
 4018TIP3    H233618   0.141   6.272   1.273 -2.2688  1.9665 -1.7701
 4019TIP3   OH233619   1.333   3.400   7.209  0.1007  0.7219  0.3501
 4019TIP3    H133620   1.246   3.439   7.212 -0.2290  0.5116 -2.7270
 4019TIP3    H233621   1.372   3.419   7.294 -2.7982  1.1320  1.6741
 4020TIP3   OH233622   2.915   0.076   5.975  0.4096  0.7563 -0.2551
 4020TIP3    H133623   2.995   0.059   6.025 -0.7061  2.2698  2.2478
 4020TIP3    H233624   2.945   0.124   5.897  2.2193 -1.8163 -1.2618
 4021TIP3   OH233625   4.109   1.952   6.712  0.5878 -0.3927  0.1472
 4021TIP3    H133626   4.092   1.985   6.623 -1.4309 -0.0102  0.6408
 4021TIP3    H233627   4.083   2.024   6.769  2.7782 -0.2620  1.0799
 4022TIP3   OH233628   2.967   5.399   2.170 -0.2578  0.0436 -0.5762
 4022TIP3    H133629   2.958   5.494   2.181 -0.0325 -0.0863  0.9780
 4022TIP3    H233630   3.028   5.373   2.238 -2.3966 -1.5899  0.8526
 4023TIP3   OH233631   3.374   3.022   8.141  0.0228  0.6908  0.7355
 4023TIP3    H133632   3.446   2.970   8.175  0.0816  0.9514  1.0075
 4023TIP3    H233633   3.297   2.967   8.154  0.1979  0.3141  0.2312
 4024TIP3   OH233634   2.243   3.942   8.113 -0.2796  0.2133  0.8693
 4024TIP3    H133635   2.218   4.024   8.072  1.8848 -0.9202 -3.3482
 4024TIP3    H233636   2.206   3.874   8.056  1.2323 -1.6192  1.9469
 4025TIP3   OH233637   1.728   0.263   5.941 -0.4020  0.0770 -0.7244
 4025TIP3    H133638   1.779   0.198   5.892  0.9285  0.1134  0.5566
 4025TIP3    H233639   1.647   0.218   5.964  0.2574 -0.9439 -0.3586
 4026TIP3   OH233640   2.833   4.603   7.713  0.4769 -0.4264 -0.4611
 4026TIP3    H133641   2.770   4.663   7.673  0.9635 -0.5843 -1.4967
 4026TIP3    H233642   2.779   4.530   7.743 -0.0507  0.2497  0.3118
 4027TIP3   OH233643   1.321   4.153   0.921  0.2621 -0.5101 -0.5479
 4027TIP3    H133644   1.374   4.082   0.958 -0.6671 -0.3699  1.1250
 4027TIP3    H233645   1.269   4.110   0.853 -0.5878 -1.5658  0.7122
 4028TIP3   OH233646   4.319   5.081   1.398 -0.3532  0.3789 -0.5592
 4028TIP3    H133647   4.235   5.037   1.414 -0.8479  1.6405  0.5105
 4028TIP3    H233648   4.351   5.104   1.485  1.1689 -0.1383 -0.9478
 4029TIP3   OH233649   1.387   1.892   0.169  0.3515 -0.1515 -0.2946
 4029TIP3    H133650   1.458   1.906   0.232  0.5888  1.0763 -0.7969
 4029TIP3    H233651   1.432   1.869   0.087  0.0016 -3.0623  0.2342
 4030TIP3   OH233652   1.967   3.506   0.594  0.2258 -0.0738  0.0042
 4030TIP3    H133653   1.941   3.590   0.558 -1.1775  0.3565  1.8451
 4030TIP3    H233654   1.922   3.441   0.540  1.3280  0.3235 -1.4339
 4031TIP3   OH233655   6.580   6.970   8.029 -0.1390 -0.2231  0.0719
 4031TIP3    H133656   6.590   7.029   8.104 -1.0013 -0.7346  0.6056
 4031TIP3    H233657   6.492   6.987   7.997 -0.1612 -0.7685 -0.1687
 4032TIP3   OH233658   3.079   5.972   1.294  0.1248 -0.6038  0.1595
 4032TIP3    H133659   3.060   6.062   1.321  1.8314 -0.2320  0.2632
 4032TIP3    H233660   3.003   5.921   1.322 -0.0775  0.4968  1.7536
 4033TIP3   OH233661   4.275   1.014   7.437  0.0701  0.1300  0.3517
 4033TIP3    H133662   4.334   0.973   7.500  0.9579  0.9270  0.0504
 4033TIP3    H233663   4.230   1.083   7.486  0.7958  0.7816  0.1119
 4034TIP3   OH233664   2.823   0.783   0.978  0.4356  0.0158 -0.2216
 4034TIP3    H133665   2.911   0.749   0.994  0.7659  1.2072  0.6136
 4034TIP3    H233666   2.829   0.827   0.893  0.9414  1.0197  0.3234
 4035TIP3   OH233667   4.120   2.379   0.360 -0.4850  0.2847  0.2883
 4035TIP3    H133668   4.091   2.387   0.451  0.9958 -1.6896  1.0029
 4035TIP3    H233669   4.064   2.312   0.322  1.5880 -2.0350  1.0770
 4036TIP3   OH233670   5.293   5.399   8.117  0.1529  1.1831 -0.0710
 4036TIP3    H133671   5.252   5.479   8.085 -0.0519  0.6521 -1.2053
 4036TIP3    H233672   5.281   5.336   8.046 -0.9395 -0.2842  1.3093
 4037TIP3   OH233673   3.636   3.304   0.983  0.7296  0.8181 -0.1872
 4037TIP3    H133674   3.606   3.363   0.914 -0.2760  0.0406 -0.4373
 4037TIP3    H233675   3.556   3.269   1.021  1.1417 -2.9623 -2.2736
 4038TIP3   OH233676   1.328   1.544   1.464  0.0549  0.8649  0.1032
 4038TIP3    H133677   1.326   1.617   1.403 -1.0503  0.6037 -0.1900
 4038TIP3    H233678   1.259   1.563   1.527 -0.1894  0.1255  0.0750
 4039TIP3   OH233679   0.266   4.802   7.939  0.1570 -0.2771 -0.6007
 4039TIP3    H133680   0.328   4.873   7.961  0.7207 -1.4028  1.7339
 4039TIP3    H233681   0.191   4.818   7.995 -0.3974 -0.6579 -1.2236
 4040TIP3   OH233682   1.063   6.665   8.199 -0.2630 -0.0210 -0.1839
 4040TIP3    H133683   1.092   6.686   8.288 -0.4724  1.1259 -0.3633
 4040TIP3    H233684   1.143   6.651   8.149 -0.0491  1.2509 -0.2418
 4041TIP3   OH233685   1.469   0.115   7.849  0.2845 -0.4065  0.5384
 4041TIP3    H133686   1.485   0.055   7.922 -1.8127 -0.3241  1.1281
 4041TIP3    H233687   1.394   0.166   7.877 -1.2454 -1.0691 -2.0823
 4042TIP3   OH233688   2.611   3.851   7.078 -0.0308  0.3472  0.3658
 4042TIP3    H133689   2.640   3.760   7.074 -3.4406 -0.8516  0.3091
 4042TIP3    H233690   2.625   3.885   6.990  1.8610  0.1519  0.5475
 4043TIP3   OH233691   3.763   5.395   6.457  0.3599  0.0216  0.2900
 4043TIP3    H133692   3.850   5.359   6.442  0.5041  0.3263  0.3980
 4043TIP3    H233693   3.710   5.361   6.385  0.5690 -0.1523  0.2185
 4044TIP3   OH233694   5.204   0.625   7.344 -0.0723  0.0448 -0.0887
 4044TIP3    H133695   5.145   0.558   7.378 -0.0828  1.0142  1.9343
 4044TIP3    H233696   5.238   0.588   7.262  0.5142 -2.7622  1.3220
 4045TIP3   OH233697   5.784   6.649   0.249 -0.1276 -0.1061  0.3388
 4045TIP3    H133698   5.831   6.569   0.226  1.5684  0.8987  0.1096
 4045TIP3    H233699   5.830   6.718   0.201 -0.9964  1.1199  1.2171
 4046TIP3   OH233700   6.231   2.703   8.175 -0.2392 -0.3838 -0.1672
 4046TIP3    H133701   6.296   2.751   8.124 -0.3546 -0.1228 -0.0676
 4046TIP3    H233702   6.258   2.611   8.168  0.0576 -0.2910 -0.2435
 4047TIP3   OH233703   2.456   3.208   6.414 -0.7265 -0.0372  0.3331
 4047TIP3    H133704   2.477   3.223   6.322 -2.6854 -0.8379 -0.3110
 4047TIP3    H233705   2.385   3.270   6.433 -1.3604 -0.8986  0.8465
 4048TIP3   OH233706   3.650   5.338   1.404 -0.1385  0.3540 -0.0503
 4048TIP3    H133707   3.619   5.271   1.342  1.1763 -2.1263  1.7848
 4048TIP3    H233708   3.588   5.333   1.477  1.5018 -0.9893  1.3532
 4049TIP3   OH233709   3.207   5.164   7.782  0.1141  0.0411 -0.3109
 4049TIP3    H133710   3.255   5.105   7.724 -1.3392 -0.8745 -0.6427
 4049TIP3    H233711   3.199   5.245   7.732  0.1292 -0.2606 -0.8150
 4050TIP3   OH233712   3.529   1.777   1.892  0.1829 -0.0328  0.0465
 4050TIP3    H133713   3.580   1.851   1.926 -0.7737  0.2969  0.7946
 4050TIP3    H233714   3.491   1.810   1.811 -0.8258  0.5638  0.7398
 4051TIP3   OH233715   2.959   6.550   6.303  0.3157 -0.5121 -0.1880
 4051TIP3    H133716   2.924   6.502   6.228  0.3364 -1.5961  0.4625
 4051TIP3    H233717   3.010   6.485   6.351  1.9314  0.6514 -0.2716
 4052TIP3   OH233718   1.498   5.796   8.265  0.3974 -0.3356  0.6864
 4052TIP3    H133719   1.456   5.826   8.345  0.0141  1.6633 -0.2190
 4052TIP3    H233720   1.591   5.819   8.276  0.2793  0.2858  0.4129
 4053TIP3   OH233721   0.181   0.677   1.239 -0.5851 -0.4325 -0.6755
 4053TIP3    H133722   0.251   0.734   1.271  0.5067 -0.9410 -2.0417
 4053TIP3    H233723   0.119   0.737   1.197 -0.6771 -0.0344  0.0161
 4054TIP3   OH233724   3.568   0.667   7.241  0.0181 -0.2155  0.0682
 4054TIP3    H133725   3.656   0.693   7.269  1.0301 -1.5927 -1.6362
 4054TIP3    H233726   3.543   0.733   7.176 -0.6633  0.7138  1.2196
 4055TIP3   OH233727   5.724   3.116   8.149 -0.1243  0.3554  0.0040
 4055TIP3    H133728   5.708   3.201   8.191 -1.5638 -0.2386  0.7267
 4055TIP3    H233729   5.817   3.100   8.162  0.3256  2.1393 -0.7724
 4056TIP3   OH233730   2.379   1.486   0.531 -0.4704 -0.1053  0.0274
 4056TIP3    H133731   2.417   1.398   0.523  0.3126  0.2297 -0.0217
 4056TIP3    H233732   2.315   1.491   0.460  0.5137 -0.1215 -0.8715
 4057TIP3   OH233733   5.603   0.937   1.330  0.5017  0.5631  0.2659
 4057TIP3    H133734   5.555   0.998   1.274  1.1848  1.2747  0.4390
 4057TIP3    H233735   5.579   0.962   1.419  0.6042  0.4292  0.3312
 4058TIP3   OH233736   6.994   5.074   0.696  0.3096 -0.1900  0.3783
 4058TIP3    H133737   6.934   5.002   0.677  0.9009 -0.7945  0.7554
 4058TIP3    H233738   7.003   5.073   0.791  2.3310 -1.2946  0.2173
 4059TIP3   OH233739   0.730   4.288   1.336 -0.9132  0.3859  0.5960
 4059TIP3    H133740   0.791   4.361   1.332 -1.6502  0.9864 -0.2575
 4059TIP3    H233741   0.784   4.211   1.321 -0.1270  0.7504  1.4656
 4060TIP3   OH233742   5.786   1.870   0.253 -0.1842 -0.1858  0.1636
 4060TIP3    H133743   5.692   1.852   0.263 -0.9979  2.6599 -1.2522
 4060TIP3    H233744   5.789   1.946   0.194  3.0465 -0.3816 -0.0669
 4061TIP3   OH233745   1.159   3.121   0.276  0.8743  0.1206 -0.1880
 4061TIP3    H133746   1.133   3.031   0.297 -0.4624  0.5311 -0.0382
 4061TIP3    H233747   1.167   3.122   0.181  1.2844 -0.2489 -0.1619
 4062TIP3   OH233748   5.378   2.085   8.123  0.4249 -0.0045  0.1982
 4062TIP3    H133749   5.388   2.180   8.132 -1.9341  0.2641  0.5530
 4062TIP3    H233750   5.411   2.050   8.206  2.1619  0.3885 -0.2877
 4063TIP3   OH233751   5.741   6.330   2.202  0.0810 -0.1276  0.1429
 4063TIP3    H133752   5.677   6.399   2.217 -1.2256 -1.4800  1.0396
 4063TIP3    H233753   5.693   6.248   2.216  1.7159 -1.2280 -0.3012
 4064TIP3   OH233754   2.083   5.079   0.555 -0.1575 -0.3480 -0.3067
 4064TIP3    H133755   2.073   5.056   0.648  0.0059 -0.8856 -0.4169
 4064TIP3    H233756   2.012   5.140   0.537 -0.7245 -0.9314 -0.0551
 4065TIP3   OH233757   1.515   2.289   0.939 -0.1346  0.3922 -0.1266
 4065TIP3    H133758   1.478   2.374   0.966 -1.5319 -0.5457  1.0933
 4065TIP3    H233759   1.506   2.289   0.844 -0.3146  1.5325 -0.1319
 4066TIP3   OH233760   4.477   3.669   1.577  0.5022 -0.0507  1.0570
 4066TIP3    H133761   4.401   3.675   1.519  1.2627  1.1556  0.1409
 4066TIP3    H233762   4.442   3.632   1.658 -0.4176 -2.6372 -0.4189
 4067TIP3   OH233763   5.185   2.287   1.743  0.1996 -0.8172 -0.5154
 4067TIP3    H133764   5.131   2.287   1.822  1.5063 -3.1003  0.5100
 4067TIP3    H233765   5.128   2.252   1.675 -0.6847  0.3515 -0.4106
 4068TIP3   OH233766   6.885   2.657   7.131 -0.1699  0.4400  0.0617
 4068TIP3    H133767   6.944   2.723   7.094 -0.9720  0.4518 -1.3008
 4068TIP3    H233768   6.941   2.602   7.185  0.9323  0.9392 -0.5298
 4069TIP3   OH233769   0.308   2.418   0.103 -0.3277  0.4577  0.1014
 4069TIP3    H133770   0.353   2.427   0.186  0.2157 -0.6425 -0.0568
 4069TIP3    H233771   0.233   2.476   0.110  0.5700  1.5705  0.7471
 4070TIP3   OH233772   0.723   6.030   1.923  0.1578  0.7311 -0.2386
 4070TIP3    H133773   0.672   6.106   1.949  1.3755  1.6998 -0.5518
 4070TIP3    H233774   0.662   5.974   1.875 -1.2696  0.5184  1.7143
 4071TIP3   OH233775   5.784   2.005   8.238  0.3531 -0.5856 -0.2492
 4071TIP3    H133776   5.870   1.997   8.279 -0.1487  0.2362  1.0538
 4071TIP3    H233777   5.778   2.098   8.213  0.4518 -0.9677 -1.7938
 4072TIP3   OH233778   1.311   1.373   8.299  0.3833  0.1254  0.6434
 4072TIP3    H133779   1.330   1.427   8.376  1.4036  0.3699  0.2347
 4072TIP3    H233780   1.300   1.284   8.335 -0.1905  0.4126  1.1872
 4073TIP3   OH233781   4.338   2.751   7.513  0.6319 -0.1643 -0.4339
 4073TIP3    H133782   4.347   2.746   7.608 -0.4873 -0.8024 -0.3307
 4073TIP3    H233783   4.386   2.830   7.487 -2.5190  2.5573  1.1937
 4074TIP3   OH233784   1.281   4.445   6.858  0.0057 -0.2081 -0.6068
 4074TIP3    H133785   1.307   4.519   6.802  0.7780 -0.5998 -0.7727
 4074TIP3    H233786   1.266   4.485   6.944  1.9116 -0.0661 -0.3033
 4075TIP3   OH233787   0.401   4.994   6.295 -0.0048  0.0971 -0.1589
 4075TIP3    H133788   0.409   4.947   6.212  0.4331  0.2952 -0.2297
 4075TIP3    H233789   0.307   5.007   6.306  0.0174  2.4447 -1.9543
 4076TIP3   OH233790   2.977   7.000   7.226 -0.5562  0.1347 -0.3478
 4076TIP3    H133791   2.915   6.930   7.244 -1.6047  1.8620  4.0420
 4076TIP3    H233792   2.923   7.076   7.203  0.0026  1.0653  1.2283
 4077TIP3   OH233793   0.499   1.938   1.116 -0.3129  0.3599 -0.0329
 4077TIP3    H133794   0.426   1.926   1.178 -1.4296  1.1840 -1.1415
 4077TIP3    H233795   0.571   1.888   1.154 -1.2319  0.1273  1.4824
 4078TIP3   OH233796   4.570   5.563   6.514 -0.3636 -0.6195 -0.3517
 4078TIP3    H133797   4.498   5.517   6.472  0.2477 -0.5151 -1.5756
 4078TIP3    H233798   4.645   5.547   6.457  0.4740 -0.3310  0.6371
 4079TIP3   OH233799   5.786   6.132   1.530 -0.4497 -0.5192 -0.2410
 4079TIP3    H133800   5.820   6.046   1.555 -0.8547 -0.5976  0.0655
 4079TIP3    H233801   5.827   6.151   1.446  0.7702 -0.3625  0.3624
 4080TIP3   OH233802   3.506   6.849   7.970  0.3393  0.3342  0.5250
 4080TIP3    H133803   3.490   6.819   8.059 -0.3749 -1.5118 -0.1854
 4080TIP3    H233804   3.422   6.838   7.925  1.3272 -1.3705 -1.0507
 4081TIP3   OH233805   5.460   6.044   8.118 -0.2080  0.1405 -0.6769
 4081TIP3    H133806   5.403   6.079   8.186 -0.1783  0.2561 -0.7113
 4081TIP3    H233807   5.546   6.081   8.138 -0.2147  0.2319 -0.8187
 4082TIP3   OH233808   3.231   3.216   1.652 -0.5103  0.2964  0.1299
 4082TIP3    H133809   3.288   3.140   1.652 -0.9788 -0.0723 -0.5869
 4082TIP3    H233810   3.142   3.180   1.647 -0.7533  0.8763  0.1574
 4083TIP3   OH233811   0.953   6.416   6.704 -0.4187 -0.4042 -0.6222
 4083TIP3    H133812   1.039   6.458   6.703 -0.2603 -0.6566 -2.6984
 4083TIP3    H233813   0.894   6.481   6.666 -1.1773 -0.2290  0.7937
 4084TIP3   OH233814   5.011   6.130   0.459 -0.7392  0.0907  0.0372
 4084TIP3    H133815   4.962   6.063   0.411 -2.5846  2.3067 -1.3162
 4084TIP3    H233816   5.019   6.203   0.399  0.1023  1.6021  1.8735
 4085TIP3   OH233817   1.630   3.397   6.875 -0.4387 -0.4392  0.4031
 4085TIP3    H133818   1.606   3.398   6.783 -2.0515 -2.8585  0.6985
 4085TIP3    H233819   1.560   3.447   6.918 -0.6152 -0.7449  0.4736
 4086TIP3   OH233820   3.059   3.144   6.331  0.0039  0.0779 -0.2215
 4086TIP3    H133821   3.070   3.049   6.324 -0.1812 -0.1114  1.4887
 4086TIP3    H233822   3.130   3.181   6.278  1.7865 -1.0562  1.2422
 4087TIP3   OH233823   3.601   6.361   7.995  0.3877 -0.3137  0.5157
 4087TIP3    H133824   3.528   6.410   8.033 -0.8615  2.2155 -4.4013
 4087TIP3    H233825   3.679   6.409   8.023 -0.5724  2.3138 -1.0363
 4088TIP3   OH233826   3.946   2.456   8.237 -0.0565 -0.3243  0.6112
 4088TIP3    H133827   3.942   2.371   8.281 -1.5984 -1.1352 -0.9503
 4088TIP3    H233828   4.008   2.442   8.165  2.5095  1.0072  2.4080
 4089TIP3   OH233829   6.126   5.280   7.610  0.3304  0.4691  0.3033
 4089TIP3    H133830   6.129   5.287   7.515 -0.4287 -0.8561  0.1446
 4089TIP3    H233831   6.210   5.314   7.640  0.6465  0.7311 -0.8529
 4090TIP3   OH233832   0.997   0.313   1.033 -0.2123  0.3182 -0.1510
 4090TIP3    H133833   1.090   0.300   1.015 -0.1651  1.6676 -1.0209
 4090TIP3    H233834   0.983   0.274   1.119  1.0467 -0.3473 -0.2320
 4091TIP3   OH233835   5.654   2.315   7.869  0.1530  0.3969 -0.1967
 4091TIP3    H133836   5.704   2.319   7.787 -1.1805  1.0111 -1.0229
 4091TIP3    H233837   5.603   2.234   7.861  1.1578 -0.3439  0.7383
 4092TIP3   OH233838   4.224   2.863   2.023  0.1244  0.1240  0.1614
 4092TIP3    H133839   4.253   2.800   2.089  0.5878 -0.3412 -0.4799
 4092TIP3    H233840   4.303   2.885   1.974 -0.6189 -1.5310 -1.9274
 4093TIP3   OH233841   1.534   4.668   1.828 -0.3460 -0.1893  0.0619
 4093TIP3    H133842   1.580   4.586   1.808 -0.3460 -0.4528  1.0400
 4093TIP3    H233843   1.603   4.734   1.835 -0.1970 -0.3942  0.6091
 4094TIP3   OH233844   3.399   4.708   1.572 -0.0728 -0.2754 -0.0610
 4094TIP3    H133845   3.358   4.622   1.583 -1.3280  0.2596 -0.3545
 4094TIP3    H233846   3.375   4.756   1.651  0.9583 -0.3139  0.2805
 4095TIP3   OH233847   2.644   4.000   6.569  0.2160 -0.5777  0.4571
 4095TIP3    H133848   2.646   4.004   6.665 -0.4305 -1.0836  0.4990
 4095TIP3    H233849   2.559   4.036   6.545  0.2961 -0.6287  0.0847
 4096TIP3   OH233850   3.137   2.260   7.029  0.2618 -0.4345  0.4465
 4096TIP3    H133851   3.126   2.215   6.946 -0.7405 -0.2512  0.4650
 4096TIP3    H233852   3.066   2.226   7.084  0.8117 -0.4374  1.1782
 4097TIP3   OH233853   1.948   3.412   7.430 -0.4030  0.5392  0.2448
 4097TIP3    H133854   1.985   3.486   7.382  0.4676 -1.3399 -2.2366
 4097TIP3    H233855   1.910   3.357   7.362 -1.7238 -0.9384  2.0799
 4098TIP3   OH233856   4.244   4.065   6.635 -0.3164 -0.9607  0.3217
 4098TIP3    H133857   4.332   4.071   6.599 -0.3257 -1.3713  0.2264
 4098TIP3    H233858   4.190   4.117   6.575 -0.1521 -0.7707  0.3390
 4099TIP3   OH233859   1.133   6.293   7.627 -0.3330 -0.1495  0.3555
 4099TIP3    H133860   1.053   6.344   7.613  1.2040  1.9899 -1.5795
 4099TIP3    H233861   1.146   6.294   7.722 -2.4456 -0.3288  0.6767
 4100TIP3   OH233862   0.505   6.857   6.663 -0.2387  0.2758  0.4230
 4100TIP3    H133863   0.575   6.809   6.620 -0.3405  0.6573 -0.1873
 4100TIP3    H233864   0.460   6.903   6.591  1.0437  2.8357  1.1176
 4101TIP3   OH233865   0.522   3.077   8.273  0.2359 -0.7557 -0.1220
 4101TIP3    H133866   0.455   3.013   8.250  1.3499 -1.2108 -2.3727
 4101TIP3    H233867   0.597   3.054   8.218  2.1512 -0.0372  1.9945
 4102TIP3   OH233868   6.633   6.484   7.005  0.0683  0.4888  0.0054
 4102TIP3    H133869   6.641   6.568   7.051 -1.3224  0.4100  0.4195
 4102TIP3    H233870   6.692   6.493   6.930  0.1696  1.7220  0.2013
 4103TIP3   OH233871   0.721   5.843   7.308  0.0287  0.3891 -0.5322
 4103TIP3    H133872   0.750   5.761   7.268  0.2633 -0.2565  0.9221
 4103TIP3    H233873   0.640   5.865   7.261  1.5073  0.9679 -2.9982
 4104TIP3   OH233874   6.898   6.367   8.316 -0.3854  0.8298  0.0973
 4104TIP3    H133875   6.809   6.384   8.347 -0.6934 -0.2276 -0.1629
 4104TIP3    H233876   6.944   6.336   8.394 -0.3817  0.8933  0.1207
 4105TIP3   OH233877   2.075   1.932   7.596 -0.8627 -0.6425 -0.2703
 4105TIP3    H133878   1.996   1.889   7.564 -0.4406 -1.7144  0.0954
 4105TIP3    H233879   2.044   2.012   7.639 -1.6707 -0.6777 -0.7711
 4106TIP3   OH233880   5.601   2.330   6.598  0.2510  0.3926 -0.3375
 4106TIP3    H133881   5.513   2.296   6.586  0.9443 -0.6725 -3.3311
 4106TIP3    H233882   5.595   2.423   6.576 -0.3409  0.6464  0.8400
 4107TIP3   OH233883   5.760   4.566   1.194  0.2678  0.6906  0.2109
 4107TIP3    H133884   5.786   4.658   1.197  2.0144  0.3442 -1.7393
 4107TIP3    H233885   5.664   4.568   1.188  0.3110  2.4311 -0.4614
 4108TIP3   OH233886   0.973   4.974   6.115 -0.1067  0.3777  0.5158
 4108TIP3    H133887   0.967   4.933   6.201  0.7442  0.3440  0.5655
 4108TIP3    H233888   1.062   5.009   6.111 -0.2471  0.6742 -0.2190
 4109TIP3   OH233889   3.939   4.367   7.305 -0.1816 -0.2003 -0.5657
 4109TIP3    H133890   3.863   4.340   7.357  1.3050 -0.9232  1.3584
 4109TIP3    H233891   3.982   4.285   7.280 -0.3539  0.1745 -2.2360
 4110TIP3   OH233892   4.592   0.930   7.467 -0.1485 -0.0834 -0.5327
 4110TIP3    H133893   4.640   0.850   7.447 -0.9426 -0.2105 -2.1443
 4110TIP3    H233894   4.570   0.923   7.559  2.2369 -0.3693  0.0813
 4111TIP3   OH233895   1.096   4.071   7.999  0.2700 -0.0786  0.3262
 4111TIP3    H133896   1.065   4.118   8.076  0.2986  0.8283 -0.2069
 4111TIP3    H233897   1.100   4.137   7.930  1.4433 -0.6046 -0.1374
 4112TIP3   OH233898   1.937   1.227   0.402  0.5138 -0.1468 -0.9056
 4112TIP3    H133899   1.946   1.321   0.418  2.1026 -0.3670 -0.3850
 4112TIP3    H233900   1.933   1.188   0.490 -0.0096 -0.5810 -1.1161
 4113TIP3   OH233901   2.944   4.515   0.499 -0.3782 -0.0796 -0.4503
 4113TIP3    H133902   2.881   4.481   0.563 -1.8033 -0.2305 -1.8858
 4113TIP3    H233903   3.027   4.520   0.548 -0.8268 -2.5276  0.7189
 4114TIP3   OH233904   4.984   0.328   0.072 -0.1837  0.0177 -0.6553
 4114TIP3    H133905   4.982   0.234   0.092 -0.5504  0.1176 -0.2129
 4114TIP3    H233906   4.938   0.335  -0.012  0.1553 -0.2376 -0.8661
 4115TIP3   OH233907   4.191   1.454   7.521 -0.2403 -0.5619 -0.2429
 4115TIP3    H133908   4.156   1.402   7.449  0.8382 -1.1455 -0.3612
 4115TIP3    H233909   4.165   1.406   7.600  0.3836 -1.0588 -0.3346
 4116TIP3   OH233910   2.137   2.532   7.212  0.3607 -0.1928  0.3599
 4116TIP3    H133911   2.104   2.616   7.246 -0.7507 -0.0173 -1.0724
 4116TIP3    H233912   2.166   2.485   7.290  0.2960  1.2123  1.2748
 4117TIP3   OH233913   6.077   0.628   6.331  0.0627 -0.1668  0.8728
 4117TIP3    H133914   6.154   0.665   6.289 -0.5660  0.6074  0.3538
 4117TIP3    H233915   6.009   0.694   6.318 -0.4293 -0.3793  2.2018
 4118TIP3   OH233916   3.068   1.190   7.546  0.2983  0.1993 -0.0001
 4118TIP3    H133917   3.101   1.100   7.552 -1.2936 -0.4856 -1.0696
 4118TIP3    H233918   3.116   1.227   7.472 -0.6898 -0.5495 -1.0571
 4119TIP3   OH233919   5.166   4.538   1.073  0.1599 -0.5903 -0.2994
 4119TIP3    H133920   5.163   4.568   1.164  0.4187 -1.7446  0.1043
 4119TIP3    H233921   5.108   4.462   1.071 -0.6146  0.0070 -1.3436
 4120TIP3   OH233922   2.573   0.795   1.065 -0.1804 -0.4519  0.6224
 4120TIP3    H133923   2.667   0.779   1.067 -0.0045  0.2720 -0.6833
 4120TIP3    H233924   2.563   0.873   1.010 -1.7774 -2.4330 -2.1032
 4121TIP3   OH233925   3.094   4.241   6.258  0.2867 -0.2222  0.4433
 4121TIP3    H133926   3.105   4.336   6.250  0.1594 -0.3385 -1.9084
 4121TIP3    H233927   3.179   4.209   6.287  0.2410  0.6266  1.5524
 4122TIP3   OH233928   2.841   3.127   0.051  0.0101 -0.4613 -0.4318
 4122TIP3    H133929   2.913   3.066   0.068  0.6524  0.0557 -1.2631
 4122TIP3    H233930   2.871   3.210   0.089  0.9846  0.4223 -2.9558
 4123TIP3   OH233931   0.865   5.542   7.981 -0.5522 -0.4223 -0.1611
 4123TIP3    H133932   0.935   5.480   7.997 -0.1914 -0.0376 -0.2262
 4123TIP3    H233933   0.869   5.604   8.054 -1.0405 -0.5880  0.0137
 4124TIP3   OH233934   4.866   4.784   0.128  0.5176  0.1809  0.3071
 4124TIP3    H133935   4.918   4.707   0.150  1.4152  1.3051  2.3934
 4124TIP3    H233936   4.861   4.784   0.033  0.7139 -2.2844  0.2449
 4125TIP3   OH233937   2.503   6.415   1.603 -0.1848  0.0992  0.9276
 4125TIP3    H133938   2.454   6.467   1.667  0.6463 -0.2252  1.8445
 4125TIP3    H233939   2.586   6.395   1.647  0.5533  0.1741 -0.3880
 4126TIP3   OH233940   5.779   4.631   7.490 -0.3162  0.6577  0.3182
 4126TIP3    H133941   5.723   4.562   7.526 -0.6219 -1.2552 -3.3112
 4126TIP3    H233942   5.719   4.704   7.472 -1.1217 -0.2344 -0.7637
 4127TIP3   OH233943   1.482   2.125   7.469 -0.3677 -0.6543  0.1672
 4127TIP3    H133944   1.506   2.038   7.439  2.3684 -0.8868  2.4961
 4127TIP3    H233945   1.516   2.184   7.401  1.5059 -1.3210  0.4468
 4128TIP3   OH233946   2.136   6.596   0.491  0.0152 -0.5344 -0.2005
 4128TIP3    H133947   2.230   6.609   0.480  0.1812 -0.9818  0.6320
 4128TIP3    H233948   2.119   6.618   0.582 -0.7212 -0.2885 -0.3915
 4129TIP3   OH233949   4.420   1.880   7.592 -0.1031 -0.0676 -0.0900
 4129TIP3    H133950   4.489   1.938   7.625  0.3743 -0.3858 -0.5145
 4129TIP3    H233951   4.467   1.806   7.554 -0.5641  0.7074 -2.3233
 4130TIP3   OH233952   4.547   0.733   1.933  0.3751  0.0989 -1.0279
 4130TIP3    H133953   4.513   0.814   1.970  0.5065 -0.3488  0.1009
 4130TIP3    H233954   4.618   0.761   1.875 -0.7791  0.9110 -2.0921
 4131TIP3   OH233955   1.756   3.187   0.196 -0.3509  0.0843 -0.4363
 4131TIP3    H133956   1.691   3.116   0.191 -0.9530  0.5410  0.6359
 4131TIP3    H233957   1.831   3.153   0.147 -0.5014 -1.4405  0.3246
 4132TIP3   OH233958   4.732   6.676   7.437 -0.3373 -0.4374  0.1014
 4132TIP3    H133959   4.803   6.643   7.493 -0.6887  1.4172  1.7515
 4132TIP3    H233960   4.653   6.669   7.490 -0.7614  0.9894 -0.2801
 4133TIP3   OH233961   6.771   4.438   0.055 -0.2886 -0.2020 -0.2428
 4133TIP3    H133962   6.683   4.466   0.030 -0.2653  0.9543  0.8599
 4133TIP3    H233963   6.824   4.452  -0.024 -1.0555 -0.8643 -0.9004
 4134TIP3   OH233964   6.043   6.845   1.534  0.0783  0.3970  0.2175
 4134TIP3    H133965   6.090   6.766   1.561 -0.9221 -0.3535 -0.1878
 4134TIP3    H233966   6.056   6.850   1.439 -0.8051  0.0605  0.0643
 4135TIP3   OH233967   0.960   4.107   6.958  0.2066 -0.5993  0.1466
 4135TIP3    H133968   1.044   4.064   6.972  0.8308  0.2757 -0.7857
 4135TIP3    H233969   0.914   4.050   6.896 -0.0303 -1.2238  0.8687
 4136TIP3   OH233970   2.129   0.269   6.743 -0.2631 -0.5749  0.2385
 4136TIP3    H133971   2.182   0.301   6.670 -2.1711  1.2960 -0.4387
 4136TIP3    H233972   2.100   0.182   6.715 -1.7741  0.5031 -1.7536
 4137TIP3   OH233973   1.566   6.246   1.792  0.2109  0.2342 -0.2403
 4137TIP3    H133974   1.639   6.245   1.729 -0.0890  1.0434 -0.6217
 4137TIP3    H233975   1.542   6.154   1.802  0.9935 -0.0066 -0.4503
 4138TIP3   OH233976   1.517   3.882   0.066 -0.0242  0.1359 -0.3838
 4138TIP3    H133977   1.465   3.960   0.086  0.2004  0.3883 -0.7862
 4138TIP3    H233978   1.601   3.915   0.035 -0.1978 -0.2554 -1.2960
 4139TIP3   OH233979   6.110   4.052   1.881 -0.3065  0.3937  0.3060
 4139TIP3    H133980   6.203   4.066   1.866 -0.0881 -1.3364 -0.0695
 4139TIP3    H233981   6.097   4.076   1.973  0.7009 -0.2563  0.6276
 4140TIP3   OH233982   1.463   0.166   7.143  0.6296 -0.3456 -0.0573
 4140TIP3    H133983   1.488   0.134   7.056  1.3855  0.0049  0.0181
 4140TIP3    H233984   1.376   0.203   7.131  0.0813 -1.6484 -0.3304
 4141TIP3   OH233985   0.127   6.616   7.584  0.7547 -0.0643 -0.0049
 4141TIP3    H133986   0.182   6.686   7.548  0.7611 -0.5279 -0.9160
 4141TIP3    H233987   0.105   6.647   7.673 -0.1118  1.5957 -0.7418
 4142TIP3   OH233988   4.236   4.833   0.600  0.0889  0.0932  0.2843
 4142TIP3    H133989   4.164   4.804   0.544  0.2073  0.4305 -0.0493
 4142TIP3    H233990   4.285   4.894   0.545  1.6559 -1.4614 -0.1198
 4143TIP3   OH233991   1.950   2.270   1.262 -0.3880  0.1450  0.1268
 4143TIP3    H133992   1.886   2.285   1.192 -1.3069 -2.1854  0.3524
 4143TIP3    H233993   1.981   2.181   1.246  2.9781  1.2308 -0.0484
 4144TIP3   OH233994   4.009   3.966   0.591 -0.0123 -0.7463  0.1154
 4144TIP3    H133995   4.022   3.897   0.526  1.3847  0.1468 -0.6022
 4144TIP3    H233996   4.093   4.012   0.593 -0.8572  0.8122  0.7273
 4145TIP3   OH233997   4.608   0.013   7.052  0.1291  0.4031 -0.1988
 4145TIP3    H133998   4.671   0.019   6.981  1.6298  1.1871  1.1226
 4145TIP3    H233999   4.653  -0.039   7.119 -0.7270  0.7613  0.6764
 4146TIP3   OH234000   5.673   5.415   1.951  0.0146 -0.1581  0.4345
 4146TIP3    H134001   5.739   5.365   2.000 -0.0823  0.1331  0.8726
 4146TIP3    H234002   5.604   5.432   2.016 -0.3327 -0.1727  0.0687
 4147TIP3   OH234003   5.777   3.022   0.189  0.1602 -0.3390 -0.4279
 4147TIP3    H134004   5.714   2.975   0.134 -0.0571 -1.4148  0.6992
 4147TIP3    H234005   5.861   3.006   0.148  0.1006 -1.8352 -0.0235
 4148TIP3   OH234006   1.047   2.870   1.267 -0.3666 -0.3909  0.2739
 4148TIP3    H134007   1.133   2.840   1.298 -1.0069 -0.2877  2.3176
 4148TIP3    H234008   1.041   2.960   1.298 -0.7603 -0.0061 -0.8799
 4149TIP3   OH234009   5.242   5.097   7.596  0.2339  0.1837  0.3729
 4149TIP3    H134010   5.257   5.117   7.503  0.2202 -1.3925 -0.0026
 4149TIP3    H234011   5.158   5.136   7.616 -0.6402 -0.9996 -0.8086
 4150TIP3   OH234012   5.190   2.741   2.410  0.3743  0.0020  0.0903
 4150TIP3    H134013   5.243   2.804   2.458 -1.3056  2.1538 -0.7262
 4150TIP3    H234014   5.108   2.736   2.459 -0.2267 -0.0795 -0.8978
 4151TIP3   OH234015   6.143   4.556   1.329 -0.0363  0.1807  0.3413
 4151TIP3    H134016   6.213   4.493   1.343 -0.3606 -0.2300  0.1071
 4151TIP3    H234017   6.182   4.640   1.354  1.0349  0.1886 -1.2068
 4152TIP3   OH234018   6.935   5.147   0.980  0.6830  0.1270  0.0840
 4152TIP3    H134019   6.950   5.059   1.015  2.6894 -0.1400 -1.2982
 4152TIP3    H234020   6.841   5.162   0.993  0.7323 -1.1385  2.7208
 4153TIP3   OH234021   3.723   3.067   0.449  0.0166 -0.1565  0.3404
 4153TIP3    H134022   3.697   2.974   0.448 -0.8156  0.0591 -1.0890
 4153TIP3    H234023   3.654   3.110   0.499 -0.1339 -0.1760  0.1518
 4154TIP3   OH234024   0.622   2.492   8.189  0.5562 -0.3477 -0.7100
 4154TIP3    H134025   0.669   2.444   8.257  0.7624  0.0604 -0.5566
 4154TIP3    H234026   0.567   2.427   8.146 -0.7907 -0.3227  0.8914
 4155TIP3   OH234027   6.092   6.019   1.050  0.1908  0.6182  0.3161
 4155TIP3    H134028   6.133   6.045   0.968 -0.7821  1.1857 -0.0005
 4155TIP3    H234029   6.137   6.071   1.117  0.5015  0.6637  0.0745
 4156TIP3   OH234030   6.898   3.539   0.094 -0.2864 -0.1196 -0.2009
 4156TIP3    H134031   6.882   3.565   0.184  0.9964  0.6411 -0.1719
 4156TIP3    H234032   6.941   3.615   0.054  0.7471 -1.0724 -0.9642
 4157TIP3   OH234033   2.353   3.777   6.868 -0.1406  0.2302  0.1269
 4157TIP3    H134034   2.364   3.852   6.810  0.1237  0.2152  0.1567
 4157TIP3    H234035   2.422   3.716   6.842  0.2785  0.4155  0.7590
 4158TIP3   OH234036   0.808   4.122   0.417 -0.5303  0.2063  0.9742
 4158TIP3    H134037   0.714   4.117   0.433 -1.0117  1.4912 -1.0589
 4158TIP3    H234038   0.818   4.194   0.355  1.6938 -0.5800  0.3144
 4159TIP3   OH234039   2.835   1.919   0.985  0.4361 -0.3522  0.6019
 4159TIP3    H134040   2.860   1.978   1.056 -0.8992 -1.6617  2.2074
 4159TIP3    H234041   2.887   1.840   1.000  1.2044 -0.1377 -0.7522
 4160TIP3   OH234042   1.150   3.885   6.919 -0.3430 -0.7903 -0.3154
 4160TIP3    H134043   1.236   3.844   6.909  2.7269  4.5334  0.4326
 4160TIP3    H234044   1.117   3.897   6.830  0.0888 -2.0837 -0.6581
 4161TIP3   OH234045   1.540   1.321   0.491  0.1382  0.2210  0.0455
 4161TIP3    H134046   1.463   1.275   0.458  1.4836 -1.4000 -1.0290
 4161TIP3    H234047   1.582   1.257   0.550  0.9616  0.8574  0.1636
 4162TIP3   OH234048   3.359   4.589   1.156  0.3960  0.3368 -0.3605
 4162TIP3    H134049   3.384   4.526   1.089  0.5671 -1.0131  0.9107
 4162TIP3    H234050   3.316   4.660   1.108  0.8618 -0.3814 -1.9119
 4163TIP3   OH234051   3.625   3.951   7.726  0.1521 -0.3127 -0.6210
 4163TIP3    H134052   3.610   3.915   7.813 -1.2618 -0.0213 -0.7161
 4163TIP3    H234053   3.575   3.894   7.668 -1.3780  1.1865 -0.8774
 4164TIP3   OH234054   0.745   2.395   8.401 -0.1684  0.0211 -0.2873
 4164TIP3    H134055   0.789   2.467   8.446 -2.1446  1.7267 -0.9188
 4164TIP3    H234056   0.748   2.322   8.463  0.4904  1.1222  1.0222
 4165TIP3   OH234057   2.593   4.470   0.875 -0.2898  0.2951 -0.0125
 4165TIP3    H134058   2.625   4.448   0.962 -0.8843  1.6800  0.5889
 4165TIP3    H234059   2.647   4.545   0.848 -1.5602  1.3014  0.1323
 4166TIP3   OH234060   1.321   5.933   6.407 -0.1763  0.3693 -0.5197
 4166TIP3    H134061   1.239   5.883   6.412 -1.0643  1.8596  2.6336
 4166TIP3    H234062   1.374   5.898   6.479  0.8981  1.1880 -0.8919
 4167TIP3   OH234063   5.325   0.143   7.530  0.1324  0.4176 -0.0125
 4167TIP3    H134064   5.335   0.078   7.460  0.4196  0.4402  0.0064
 4167TIP3    H234065   5.313   0.226   7.483 -0.3253  0.3397 -0.0372
 4168TIP3   OH234066   4.214   4.503   8.373  0.5101  0.4314 -0.2263
 4168TIP3    H134067   4.126   4.486   8.406  0.9558 -0.6920  0.4501
 4168TIP3    H234068   4.249   4.570   8.431  0.1321  0.8452 -0.4672
 4169TIP3   OH234069   2.851   1.164   1.801  0.1359  0.5412 -0.4421
 4169TIP3    H134070   2.918   1.187   1.865 -0.1949 -0.0875  0.1467
 4169TIP3    H234071   2.863   1.070   1.787 -1.4431  0.1099  0.6996
 4170TIP3   OH234072   6.044   1.228   1.124 -0.2375 -0.4358  0.0236
 4170TIP3    H134073   6.053   1.323   1.119  1.9596 -0.5509  0.5507
 4170TIP3    H234074   6.032   1.210   1.218  2.1498 -0.7669  0.3473
 4171TIP3   OH234075   6.413   0.746   1.169 -0.0474  0.3076  0.0611
 4171TIP3    H134076   6.453   0.716   1.251 -1.3647 -2.2805 -0.1542
 4171TIP3    H234077   6.354   0.817   1.196 -0.0870 -0.1596  1.2917
 4172TIP3   OH234078   5.800   6.177   7.073 -0.1474  0.0306 -0.2416
 4172TIP3    H134079   5.731   6.199   7.136  0.2377  1.2005 -0.1922
 4172TIP3    H234080   5.755   6.178   6.988 -0.3482  0.0300 -0.1369
 4173TIP3   OH234081   3.401   3.284   0.821  0.1676  0.7084 -0.1375
 4173TIP3    H134082   3.346   3.209   0.795  0.9743 -0.4304  1.3127
 4173TIP3    H234083   3.407   3.337   0.741 -3.9413  1.5361 -0.1078
 4174TIP3   OH234084   6.972   1.060   0.999  0.1680  1.0393  0.6994
 4174TIP3    H134085   6.936   1.051   0.910  0.4935 -1.0151  0.7230
 4174TIP3    H234086   7.060   1.095   0.985 -0.0295  1.3950  0.2853
 4175TIP3   OH234087   6.032   0.639   0.838 -0.4215 -0.3098 -0.4459
 4175TIP3    H134088   6.002   0.549   0.822 -4.7809  0.7491  0.4438
 4175TIP3    H234089   6.117   0.629   0.880 -0.4791 -3.9651 -0.8543
 4176TIP3   OH234090   4.306   0.680   1.014  0.8114  0.4260  0.2607
 4176TIP3    H134091   4.358   0.721   1.083  1.9350  1.7508 -1.2863
 4176TIP3    H234092   4.223   0.727   1.014 -0.0450 -0.9946  2.0505
 4177TIP3   OH234093   0.953   0.705   7.575 -0.5129 -0.4784  0.3568
 4177TIP3    H134094   0.988   0.729   7.660 -1.5190 -0.3651  0.7483
 4177TIP3    H234095   0.904   0.782   7.546 -0.5081 -0.6578 -0.1418
 4178TIP3   OH234096   5.808   4.889   7.842 -0.1203  0.9916 -0.5357
 4178TIP3    H134097   5.845   4.809   7.805  0.8499  0.6903  1.0184
 4178TIP3    H234098   5.863   4.960   7.807 -0.1009  0.8543 -0.7871
 4179TIP3   OH234099   0.261   0.940   8.242  0.5247 -0.0339 -0.0099
 4179TIP3    H134100   0.257   0.923   8.148 -1.4065  0.8584 -0.1467
 4179TIP3    H234101   0.203   1.015   8.255 -0.0734 -0.7782  2.0217
 4180TIP3   OH234102   2.987   6.825   1.611 -0.4949 -0.1119 -0.5050
 4180TIP3    H134103   2.989   6.875   1.692 -0.4518 -1.9872  0.7064
 4180TIP3    H234104   2.924   6.755   1.627 -0.0378 -0.8798 -1.8635
 4181TIP3   OH234105   0.804   3.619   6.731 -0.7224 -0.8843  0.4634
 4181TIP3    H134106   0.898   3.610   6.714  0.3281  1.5862  4.0263
 4181TIP3    H234107   0.772   3.675   6.660  0.9425 -0.1304  0.2678
 4182TIP3   OH234108   1.657   6.566   1.311 -0.1508 -0.2195  0.0560
 4182TIP3    H134109   1.738   6.531   1.347 -0.5709 -2.2539 -0.7836
 4182TIP3    H234110   1.613   6.606   1.386  0.4810 -1.3830  1.0935
 4183TIP3   OH234111   3.651   1.680   7.683  0.5862  0.2664  0.7850
 4183TIP3    H134112   3.647   1.713   7.773  1.3922  1.7316  0.3114
 4183TIP3    H234113   3.741   1.696   7.655  0.8495 -1.8179  0.2784
 4184TIP3   OH234114   4.851   5.016   8.061 -0.2850 -0.0595 -0.1948
 4184TIP3    H134115   4.865   5.109   8.044  1.6670 -0.1860  0.3762
 4184TIP3    H234116   4.803   4.984   7.985 -0.1920  1.2345 -0.8224
 4185TIP3   OH234117   3.087   0.875   1.290 -0.2695 -0.8265  0.3450
 4185TIP3    H134118   3.112   0.905   1.377  1.1726  1.3775 -0.7501
 4185TIP3    H234119   3.128   0.937   1.230 -1.3148 -2.1975 -1.9270
 4186TIP3   OH234120   0.140   1.676   2.306  0.0903 -0.5850  0.1958
 4186TIP3    H134121   0.209   1.658   2.242  0.4433 -1.2581  0.7483
 4186TIP3    H234122   0.065   1.625   2.276  0.3480 -1.1378  0.4608
 4187TIP3   OH234123   6.705   5.009   1.026 -0.1977  0.1014 -0.2924
 4187TIP3    H134124   6.749   4.923   1.021 -0.2220 -0.0119  1.0789
 4187TIP3    H234125   6.612   4.988   1.030 -0.2416  0.2271 -0.6461
 4188TIP3   OH234126   4.994   4.277   6.430 -0.1220 -0.3149  0.2401
 4188TIP3    H134127   4.956   4.296   6.344  0.9409 -0.5846 -0.3142
 4188TIP3    H234128   5.048   4.354   6.450  1.8914 -1.3879 -0.6831
 4189TIP3   OH234129   0.402   0.523   0.260 -0.5968 -0.9997 -0.2819
 4189TIP3    H134130   0.474   0.553   0.315 -2.0253 -1.6880  2.1465
 4189TIP3    H234131   0.438   0.449   0.211  0.4309 -1.1634  0.6829
 4190TIP3   OH234132   4.314   1.225   0.639 -0.2155 -0.5635  0.1790
 4190TIP3    H134133   4.293   1.142   0.680  0.8120 -0.6660  0.5221
 4190TIP3    H234134   4.337   1.283   0.712 -3.1735  0.7681  0.1897
 4191TIP3   OH234135   2.827   2.716   2.108  0.3857  0.0187  0.4847
 4191TIP3    H134136   2.735   2.691   2.103  0.2131  0.4301  1.4205
 4191TIP3    H234137   2.845   2.759   2.024 -0.5296  0.7799  0.6698
 4192TIP3   OH234138   0.630   0.428   0.770  0.5220  0.0944  0.2046
 4192TIP3    H134139   0.598   0.500   0.825 -0.0771 -0.8958  1.1917
 4192TIP3    H234140   0.717   0.409   0.804 -0.8737 -2.3469  2.7709
 4193TIP3   OH234141   1.004   4.649   1.310 -0.6304 -0.5778  0.8319
 4193TIP3    H134142   0.977   4.573   1.362  0.4340 -0.6275  1.3308
 4193TIP3    H234143   1.044   4.709   1.374  1.0006 -0.7821  0.0371
 4194TIP3   OH234144   0.566   4.610   7.001  0.0212  0.2013  0.3687
 4194TIP3    H134145   0.620   4.651   7.069 -3.1275  1.5193  2.2927
 4194TIP3    H234146   0.519   4.682   6.960 -1.2980 -0.9630 -0.2421
 4195TIP3   OH234147   5.553   4.923   7.892  0.9808  0.3623 -0.1557
 4195TIP3    H134148   5.646   4.917   7.869  1.0996  0.8763  0.1567
 4195TIP3    H234149   5.550   4.900   7.985  0.6589 -0.5906 -0.3876
 4196TIP3   OH234150   1.589   5.660   7.688 -0.6617 -0.4558  0.2582
 4196TIP3    H134151   1.577   5.755   7.692  1.1972 -0.1714 -0.0811
 4196TIP3    H234152   1.540   5.627   7.764  0.7660  1.0188  1.9122
 4197TIP3   OH234153   5.067   0.747   0.645 -0.0195 -0.2106 -0.1713
 4197TIP3    H134154   5.051   0.838   0.670 -0.4339 -0.2848 -0.1705
 4197TIP3    H234155   5.067   0.748   0.549 -2.1868 -0.5713 -0.2246
 4198TIP3   OH234156   0.240   4.404   8.341 -0.0736  0.3751  0.4942
 4198TIP3    H134157   0.262   4.484   8.292 -0.4761  0.7322  0.8847
 4198TIP3    H234158   0.323   4.374   8.376  0.3877 -0.4129 -1.1623
 4199TIP3   OH234159   6.195   2.594   5.848 -0.2667  0.3057  0.4375
 4199TIP3    H134160   6.146   2.512   5.853  0.2099 -0.1604 -1.7250
 4199TIP3    H234161   6.129   2.660   5.823  0.2447 -0.5481 -3.7872
 4200TIP3   OH234162   3.823   1.233   1.043 -0.1810 -1.0210  0.0764
 4200TIP3    H134163   3.902   1.238   1.098 -0.0006  2.3028 -0.2437
 4200TIP3    H234164   3.751   1.220   1.105  0.2795  0.0321  0.8727
 4201TIP3   OH234165   4.803   2.268   8.194 -0.1889 -0.3350 -0.2017
 4201TIP3    H134166   4.772   2.358   8.203  0.1192 -0.4096  2.0975
 4201TIP3    H234167   4.724   2.215   8.205  0.0287 -0.3990  1.1638
 4202TIP3   OH234168   4.619   4.939   1.589 -0.2030 -0.1549  0.2716
 4202TIP3    H134169   4.527   4.949   1.612 -0.3144 -3.2018  1.6215
 4202TIP3    H234170   4.665   4.944   1.673  0.8483  0.9218 -0.3435
 4203TIP3   OH234171   1.533   4.203   7.442  0.0133 -0.0076 -0.0861
 4203TIP3    H134172   1.531   4.287   7.488  0.4423 -1.1943  2.2639
 4203TIP3    H234173   1.604   4.212   7.378  1.3071  0.8513  1.3886
 4204TIP3   OH234174   0.582   5.173   1.246 -0.1905  0.0804  0.0307
 4204TIP3    H134175   0.508   5.145   1.299  0.7935 -0.7297  1.0422
 4204TIP3    H234176   0.612   5.094   1.203 -0.2776  0.5220 -0.8638
 4205TIP3   OH234177   1.797   0.476   7.797 -0.3256 -0.3630  0.3059
 4205TIP3    H134178   1.842   0.402   7.837 -1.0103 -0.4893  0.8606
 4205TIP3    H234179   1.868   0.530   7.760  0.2316 -0.8658  0.6218
 4206TIP3   OH234180   5.930   2.422   6.516  0.7427  0.1024  0.0506
 4206TIP3    H134181   5.987   2.422   6.439 -1.6993 -1.1683 -1.8738
 4206TIP3    H234182   5.849   2.463   6.487  0.3114  1.1926  2.5043
 4207TIP3   OH234183   4.623   4.509   8.121  0.2081 -0.1398  0.1580
 4207TIP3    H134184   4.600   4.421   8.091 -1.8180  0.1875  0.6107
 4207TIP3    H234185   4.681   4.494   8.196 -0.7051 -1.1374  0.6993
 4208TIP3   OH234186   5.991   1.967   6.853  0.3862 -0.1145  0.1244
 4208TIP3    H134187   5.936   2.003   6.783 -0.2530 -0.8576  0.2400
 4208TIP3    H234188   5.969   1.874   6.856 -1.7700  0.3374  3.2228
 4209TIP3   OH234189   4.886   1.566   1.614 -0.2732 -0.7602  0.5435
 4209TIP3    H134190   4.914   1.575   1.705  1.9277  0.0913 -0.1520
 4209TIP3    H234191   4.900   1.652   1.575 -3.7402 -0.3197 -0.0214
 4210TIP3   OH234192   2.687   0.573   0.374  0.0066 -0.2346 -0.4044
 4210TIP3    H134193   2.652   0.485   0.386  0.9133 -0.3556  1.6766
 4210TIP3    H234194   2.782   0.561   0.368  0.1505  0.6085  0.0312
 4211TIP3   OH234195   0.850   2.019   6.234 -0.7335 -0.8976 -0.0281
 4211TIP3    H134196   0.780   2.081   6.214 -0.6844 -0.6155  0.6221
 4211TIP3    H234197   0.857   1.963   6.157  0.4126  1.0042 -1.3730
 4212TIP3   OH234198   0.994   3.299   1.052  0.2660 -0.0158 -0.1344
 4212TIP3    H134199   1.050   3.369   1.084 -0.7682  0.2418  1.2417
 4212TIP3    H234200   0.913   3.308   1.103 -1.8451  0.8533 -3.3023
 4213TIP3   OH234201   1.866   2.647   6.250 -0.1805  0.1963 -0.0695
 4213TIP3    H134202   1.938   2.619   6.193  0.6798  1.8791  0.1211
 4213TIP3    H234203   1.897   2.628   6.339 -2.0416 -3.6360 -0.0547
 4214TIP3   OH234204   6.504   3.020   7.134 -0.4213  0.2947  0.2197
 4214TIP3    H134205   6.469   3.025   7.045 -0.2450  1.0585  0.1903
 4214TIP3    H234206   6.592   3.057   7.127 -0.0847 -0.4222  0.5479
 4215TIP3   OH234207   3.014   4.043   7.581  0.1751 -0.2463 -0.7387
 4215TIP3    H134208   3.032   3.961   7.535 -0.2823  0.4502 -2.2380
 4215TIP3    H234209   3.005   4.108   7.511 -0.3846  0.9091  0.3646
 4216TIP3   OH234210   3.619   0.410   0.491  0.1266  0.2035  0.0974
 4216TIP3    H134211   3.679   0.479   0.464 -0.9454  0.3948 -2.0260
 4216TIP3    H234212   3.550   0.456   0.539 -0.2167  0.5536 -0.7000
 4217TIP3   OH234213   2.283   0.642   8.178  0.4282 -0.0206 -0.1470
 4217TIP3    H134214   2.205   0.697   8.180  0.2506 -0.2691 -0.1983
 4217TIP3    H234215   2.314   0.647   8.088  1.0956  0.9452  0.1255
 4218TIP3   OH234216   1.360   1.527   6.464  0.0405 -0.1268 -0.4756
 4218TIP3    H134217   1.424   1.460   6.438 -0.1439  0.7382 -3.6538
 4218TIP3    H234218   1.412   1.605   6.482  0.2314 -0.8918  2.9643
 4219TIP3   OH234219   3.772   5.530   1.240 -0.1313 -0.0215 -0.0048
 4219TIP3    H134220   3.752   5.463   1.306  0.5739  0.6990  0.9822
 4219TIP3    H234221   3.859   5.561   1.264 -0.3646  1.1110 -0.5576
 4220TIP3   OH234222   4.274   2.498   7.421 -0.2507 -0.0477  0.0356
 4220TIP3    H134223   4.296   2.588   7.443  3.1741 -0.3756 -1.3589
 4220TIP3    H234224   4.317   2.483   7.336 -1.6211 -2.6746 -0.2958
 4221TIP3   OH234225   4.413   4.207   2.290 -0.2285  0.2873 -0.2547
 4221TIP3    H134226   4.351   4.278   2.277  0.3967  0.5868 -1.7559
 4221TIP3    H234227   4.445   4.219   2.379 -1.2415  0.9836  0.0273
 4222TIP3   OH234228   5.611   4.482   7.657 -0.1957 -0.5476  0.2871
 4222TIP3    H134229   5.552   4.485   7.581 -0.1984 -2.0353  0.2112
 4222TIP3    H234230   5.554   4.465   7.731 -0.5803  3.5050  1.1477
 4223TIP3   OH234231   1.441   1.465   0.959 -0.2202 -0.8832  0.1911
 4223TIP3    H134232   1.381   1.487   1.031  0.5168 -0.7999  0.7845
 4223TIP3    H234233   1.408   1.383   0.924 -1.8273  0.0955 -0.7428
 4224TIP3   OH234234   6.004   3.467   8.262 -0.1582 -0.0556  0.2980
 4224TIP3    H134235   6.021   3.485   8.169  1.1938  0.2077  0.5790
 4224TIP3    H234236   5.913   3.494   8.275 -1.2963 -2.5481 -1.5527
 4225TIP3   OH234237   5.580   2.144   1.689 -0.1343 -0.5763  0.1849
 4225TIP3    H134238   5.589   2.225   1.637 -0.0432 -0.6357  0.1054
 4225TIP3    H234239   5.650   2.088   1.656 -0.3777 -0.7959  0.0409
 4226TIP3   OH234240   6.924   2.981   7.401  0.3140 -0.0611  0.5863
 4226TIP3    H134241   6.989   2.916   7.373  0.8814 -0.0094  1.7371
 4226TIP3    H234242   6.912   2.963   7.495 -1.5615 -0.2682  0.3457
 4227TIP3   OH234243   4.179   6.203   1.460  0.0222  0.1946 -0.2332
 4227TIP3    H134244   4.101   6.232   1.414 -1.1240 -0.8583  0.9672
 4227TIP3    H234245   4.148   6.134   1.519  1.5600  0.8245  1.4246
 4228TIP3   OH234246   2.798   2.195   1.494  0.3912  0.1785  0.4662
 4228TIP3    H134247   2.760   2.269   1.541  1.7149  0.5699  0.9529
 4228TIP3    H234248   2.768   2.207   1.403 -0.3124  0.6789  0.7574
 4229TIP3   OH234249   0.870   5.401   6.711 -0.6547 -0.2465  0.2472
 4229TIP3    H134250   0.909   5.442   6.633 -0.3485 -1.7195 -0.4284
 4229TIP3    H234251   0.831   5.473   6.759 -0.9535  0.7058 -1.3378
 4230TIP3   OH234252   0.339   5.081   1.416  0.2740  0.7290  0.1277
 4230TIP3    H134253   0.285   5.153   1.449 -1.1096  0.0235 -0.5274
 4230TIP3    H234254   0.286   5.041   1.347  1.7622  0.1725 -0.7350
 4231TIP3   OH234255   1.084   1.908   7.666 -0.4635  0.4259  0.0749
 4231TIP3    H134256   1.158   1.847   7.675 -0.4961  0.2089 -0.9768
 4231TIP3    H234257   1.123   1.995   7.673 -0.1623  0.3060 -0.1049
 4232TIP3   OH234258   4.429   0.579   2.125  0.1083 -0.4268 -0.4368
 4232TIP3    H134259   4.406   0.659   2.173 -1.8556 -0.4112 -1.3050
 4232TIP3    H234260   4.472   0.612   2.046  1.1291 -0.3395  0.1446
 4233TIP3   OH234261   5.090   6.463   6.576  0.5775 -0.1630 -0.1344
 4233TIP3    H134262   5.128   6.407   6.643 -1.7294 -0.0197  1.3985
 4233TIP3    H234263   5.051   6.403   6.513 -0.0796 -0.2842  0.3902
 4234TIP3   OH234264   0.778   5.763   8.144  0.1093  0.5563  0.0089
 4234TIP3    H134265   0.854   5.791   8.195  0.0827  1.1214 -0.2513
 4234TIP3    H234266   0.782   5.817   8.065 -0.7182  0.7853  0.1175
 4235TIP3   OH234267   6.961   4.546   0.760  0.5414 -0.2870  0.4989
 4235TIP3    H134268   7.042   4.531   0.808  0.1187 -0.7001  1.0957
 4235TIP3    H234269   6.892   4.535   0.825 -0.0647 -1.2697 -0.2766
 4236TIP3   OH234270   4.338   2.391   6.564 -0.0926  0.1355 -0.5812
 4236TIP3    H134271   4.407   2.354   6.509 -0.0465  1.1228 -1.2019
 4236TIP3    H234272   4.385   2.439   6.632 -0.1420  1.5023 -1.4784
 4237TIP3   OH234273   1.925   4.865   0.980 -0.1473 -0.0617 -0.3927
 4237TIP3    H134274   1.920   4.925   1.054  1.2352  1.0623 -1.1556
 4237TIP3    H234275   1.871   4.905   0.912 -0.2669 -0.3540 -0.4748
 4238TIP3   OH234276   4.831   4.702   0.961 -0.0513 -0.7921 -0.2644
 4238TIP3    H134277   4.744   4.678   0.927 -1.2892  2.1547  0.5186
 4238TIP3    H234278   4.820   4.704   1.056  1.2314 -1.4545 -0.0795
 4239TIP3   OH234279   0.488   3.956   8.083 -0.4266  0.1419  0.4697
 4239TIP3    H134280   0.511   3.990   7.996 -0.6245 -1.3419 -0.1878
 4239TIP3    H234281   0.402   3.995   8.102  0.6949  2.4841  1.1562
 4240TIP3   OH234282   4.209   5.418   8.142 -0.2812 -0.2034 -0.6394
 4240TIP3    H134283   4.159   5.394   8.064 -0.3710 -0.1239 -0.6072
 4240TIP3    H234284   4.300   5.408   8.117 -0.1158  3.3611 -1.9796
 4241TIP3   OH234285   3.119   4.161   6.764 -0.0547 -0.1754  0.0726
 4241TIP3    H134286   3.196   4.130   6.718  0.8794  2.3097 -0.2167
 4241TIP3    H234287   3.153   4.196   6.847 -1.0216  0.0018  0.4115
 4242TIP3   OH234288   2.425   1.515   1.380  0.5502 -0.0450  0.0787
 4242TIP3    H134289   2.331   1.504   1.361  0.2432  0.0631  1.4268
 4242TIP3    H234290   2.467   1.515   1.294 -0.7119  0.1453 -0.5629
 4243TIP3   OH234291   3.127   2.942   8.243 -0.5195  0.5618 -0.0373
 4243TIP3    H134292   3.075   2.958   8.164  2.0246  1.1696 -1.7056
 4243TIP3    H234293   3.116   2.849   8.262 -1.0976  0.3981 -1.1361
 4244TIP3   OH234294   1.858   4.961   1.619  0.0292 -0.3381 -0.0832
 4244TIP3    H134295   1.854   4.922   1.532  1.3603  1.1896 -0.8943
 4244TIP3    H234296   1.949   4.989   1.629 -0.3105  0.3612  1.4192
 4245TIP3   OH234297   1.216   4.323   0.528  0.9345 -0.2448  0.2244
 4245TIP3    H134298   1.310   4.304   0.538  0.8315 -0.5776  0.6169
 4245TIP3    H234299   1.201   4.398   0.585  0.5290 -1.5850  2.0014
 4246TIP3   OH234300   1.805   0.008   7.267  0.0898 -0.1222 -0.4323
 4246TIP3    H134301   1.722  -0.022   7.303  0.7327 -3.9930 -1.6844
 4246TIP3    H234302   1.867  -0.001   7.339 -0.2464  1.2770  0.0593
 4247TIP3   OH234303   0.303   3.837   5.961 -0.2423  0.0006  0.7124
 4247TIP3    H134304   0.314   3.930   5.982 -0.4643 -0.0441  1.0340
 4247TIP3    H234305   0.381   3.815   5.910  0.6435 -0.0392  2.0132
 4248TIP3   OH234306   0.953   1.219   1.468  0.2882  0.3893 -0.0108
 4248TIP3    H134307   0.860   1.195   1.470 -0.3146  2.4412 -0.7362
 4248TIP3    H234308   0.953   1.313   1.450  2.5732  0.1606 -1.5698
 4249TIP3   OH234309   0.713   1.783   0.797  0.0948  0.5505 -0.3935
 4249TIP3    H134310   0.641   1.829   0.754 -0.0487  0.7240  0.0245
 4249TIP3    H234311   0.670   1.714   0.848  0.2632  0.3304 -0.5495
 4250TIP3   OH234312   4.122   5.873   8.297 -0.0182  0.8488  0.2253
 4250TIP3    H134313   4.184   5.917   8.239  0.6151 -1.8444 -1.2748
 4250TIP3    H234314   4.106   5.937   8.367  2.6404  2.5143 -0.5391
 4251TIP3   OH234315   3.661   4.657   7.398 -0.1715  0.2773  0.1104
 4251TIP3    H134316   3.626   4.569   7.385 -0.0123  0.2934 -0.4119
 4251TIP3    H234317   3.615   4.689   7.476 -0.3094 -0.2240  0.2394
 4252TIP3   OH234318   3.308   2.605   5.895  0.3864  0.4844 -0.0341
 4252TIP3    H134319   3.402   2.599   5.882  0.3535  0.7207 -0.3925
 4252TIP3    H234320   3.273   2.525   5.856  0.4130  0.5342 -0.1594
 4253TIP3   OH234321   3.747   6.269   6.241  0.0819  0.0979 -0.9107
 4253TIP3    H134322   3.733   6.205   6.310 -1.1886  1.0505 -0.2439
 4253TIP3    H234323   3.770   6.217   6.164  1.0364 -1.0092  0.0971
 4254TIP3   OH234324   0.706   3.184   0.847  0.4154  0.1383 -0.1203
 4254TIP3    H134325   0.724   3.176   0.941  0.7724  2.6675  0.0862
 4254TIP3    H234326   0.649   3.109   0.828 -0.3568  0.0079  2.2985
 4255TIP3   OH234327   2.667   6.084   1.876  0.0129 -0.0726 -0.2809
 4255TIP3    H134328   2.678   6.001   1.922 -1.6677 -1.2859 -1.9305
 4255TIP3    H234329   2.575   6.108   1.891 -0.7822 -0.8009 -3.3242
 4256TIP3   OH234330   5.462   4.635   7.447  0.5674  0.2442 -0.1343
 4256TIP3    H134331   5.380   4.588   7.433  1.7028 -1.5344 -1.2699
 4256TIP3    H234332   5.437   4.713   7.496 -1.4386 -1.5650  1.9802
 4257TIP3   OH234333   4.923   4.522   7.471  0.0854 -0.4085 -0.2870
 4257TIP3    H134334   4.992   4.458   7.484  0.9781  0.3730 -1.0638
 4257TIP3    H234335   4.879   4.495   7.390 -2.5688 -2.6670  1.6951
 4258TIP3   OH234336   3.511   2.894   7.303 -0.1323 -0.6223 -0.3393
 4258TIP3    H134337   3.510   2.900   7.399  0.2118  0.0268 -0.3712
 4258TIP3    H234338   3.547   2.807   7.286 -0.7479 -0.9758  0.1197
 4259TIP3   OH234339   6.269   4.140   2.109  0.3362 -0.3561  0.4832
 4259TIP3    H134340   6.265   4.213   2.047  1.6945 -1.8656 -1.5388
 4259TIP3    H234341   6.360   4.111   2.106 -0.5345 -3.3421 -0.3524
 4260TIP3   OH234342   4.820   0.040   6.874  0.3964 -0.9297  0.8110
 4260TIP3    H134343   4.893   0.065   6.931 -0.0917  0.1423  0.9875
 4260TIP3    H234344   4.840   0.081   6.790  0.7487 -1.9075  0.4037
 4261TIP3   OH234345   2.712   3.549   7.519  0.2635  0.1570 -0.7434
 4261TIP3    H134346   2.703   3.505   7.604 -1.0884  0.1107 -0.8870
 4261TIP3    H234347   2.724   3.641   7.541 -0.6286  0.2220 -0.4974
 4262TIP3   OH234348   3.280   2.777   0.858 -0.0026  0.6779 -0.0245
 4262TIP3    H134349   3.324   2.828   0.791 -0.6762  0.8332 -0.3505
 4262TIP3    H234350   3.189   2.805   0.855 -0.1221  0.3991  0.6819
 4263TIP3   OH234351   2.154   4.425   7.228  0.1743  0.2570 -0.4188
 4263TIP3    H134352   2.112   4.357   7.174  0.1822 -1.3101  1.4278
 4263TIP3    H234353   2.094   4.499   7.224 -0.6142 -0.3984 -1.2847
 4264TIP3   OH234354   6.033   6.829   0.209 -0.5306 -0.1441 -0.1991
 4264TIP3    H134355   6.034   6.870   0.295  1.0908  0.9628 -0.7015
 4264TIP3    H234356   6.125   6.811   0.189 -0.9287 -0.9762 -1.4182
 4265TIP3   OH234357   5.495   2.214   7.178 -1.0989  0.0197 -0.2039
 4265TIP3    H134358   5.561   2.253   7.119 -0.5259 -0.3745  0.1625
 4265TIP3    H234359   5.536   2.217   7.264 -1.2768 -0.8697 -0.0798
 4266TIP3   OH234360   0.346   1.576   2.142  0.0447 -0.3446 -0.0845
 4266TIP3    H134361   0.376   1.495   2.100 -1.2436 -1.5476  1.1836
 4266TIP3    H234362   0.425   1.628   2.154  1.3751 -2.5677  1.4492
 4267TIP3   OH234363   0.011   4.439   6.428 -0.1615  0.1535 -0.5751
 4267TIP3    H134364  -0.010   4.525   6.391 -2.4160 -0.2944 -0.4834
 4267TIP3    H234365  -0.037   4.378   6.372 -0.8453 -0.8123  1.0204
 4268TIP3   OH234366   0.230   1.221   2.249 -0.5744 -0.6819 -0.4380
 4268TIP3    H134367   0.276   1.302   2.230 -0.3659 -0.9270 -1.0002
 4268TIP3    H234368   0.202   1.188   2.163  1.0278 -2.1890 -0.4471
 4269TIP3   OH234369   2.320   3.268   1.756 -0.1474 -0.3383  0.3981
 4269TIP3    H134370   2.308   3.202   1.823 -1.3065 -0.7463 -0.1946
 4269TIP3    H234371   2.357   3.343   1.802 -0.2697 -0.8581  1.3511
 4270TIP3   OH234372   1.688   3.803   7.789  0.1907  0.4571  0.4304
 4270TIP3    H134373   1.666   3.895   7.807  0.7670  0.9219 -1.1074
 4270TIP3    H234374   1.740   3.806   7.709  0.5659 -1.1891  0.5834
 4271TIP3   OH234375   1.640   5.310   8.296  0.1045 -0.4249  0.0283
 4271TIP3    H134376   1.658   5.276   8.209  1.8970 -1.5440  0.7844
 4271TIP3    H234377   1.603   5.235   8.344 -3.8270  0.9509 -0.5327
 4272TIP3   OH234378   6.802   4.809   0.541  0.2882 -0.0568  0.6913
 4272TIP3    H134379   6.769   4.839   0.626  0.9476  0.0793  0.9041
 4272TIP3    H234380   6.743   4.738   0.516 -1.0249  1.1050  0.3964
 4273TIP3   OH234381   5.309   4.830   1.944  0.1854  0.0090 -0.0720
 4273TIP3    H134382   5.243   4.888   1.981 -1.9910 -1.9729 -0.5895
 4273TIP3    H234383   5.319   4.761   2.010  1.2786 -0.0812 -0.3081
 4274TIP3   OH234384   5.421   5.185   8.282  0.3461  0.1930 -0.2081
 4274TIP3    H134385   5.387   5.255   8.227 -0.4515 -0.0376 -0.0251
 4274TIP3    H234386   5.477   5.229   8.347 -0.0531  0.6412 -0.1691
 4275TIP3   OH234387   4.331   3.428   6.880 -0.4054 -0.2285  0.0904
 4275TIP3    H134388   4.388   3.390   6.814  0.0384 -0.1712  0.4428
 4275TIP3    H234389   4.261   3.470   6.829 -1.0864 -1.7643 -0.2905
 4276TIP3   OH234390   0.984   1.083   7.989  0.1409  0.3100  0.2086
 4276TIP3    H134391   0.970   1.046   7.901  1.5357  0.6908 -0.2022
 4276TIP3    H234392   1.057   1.033   8.024 -0.2178  0.3670  1.0566
 4277TIP3   OH234393   4.974   1.323   7.226  0.5460  0.2533 -0.2027
 4277TIP3    H134394   4.954   1.301   7.135  0.3765  2.7407 -0.8499
 4277TIP3    H234395   4.937   1.251   7.277  0.1492 -0.9252 -2.0595
 4278TIP3   OH234396   2.213   3.084   6.844  0.6600 -0.2957 -0.2907
 4278TIP3    H134397   2.283   3.109   6.904 -0.3076 -2.2014  1.7961
 4278TIP3    H234398   2.248   3.009   6.796  0.8357  0.1874 -0.9308
 4279TIP3   OH234399   1.331   4.853   6.963  0.6951 -0.0426 -0.0375
 4279TIP3    H134400   1.384   4.917   7.011  1.6723  0.9815 -2.3376
 4279TIP3    H234401   1.274   4.905   6.908 -2.5048 -1.1451  1.9895
 4280TIP3   OH234402   4.339   0.320   0.823  0.4331 -0.1520  0.3813
 4280TIP3    H134403   4.323   0.311   0.917 -0.3468  3.3656  0.7082
 4280TIP3    H234404   4.424   0.364   0.818 -1.7112  4.4622 -0.1355
 4281TIP3   OH234405   4.365   4.175   6.340 -0.3603  0.1181  0.1475
 4281TIP3    H134406   4.376   4.105   6.404 -0.1788 -0.0442 -0.0589
 4281TIP3    H234407   4.286   4.221   6.367 -0.8095 -0.5297 -0.0528
 4282TIP3   OH234408   0.992   0.908   7.039  0.1503 -0.4893 -0.0115
 4282TIP3    H134409   0.983   0.989   6.989 -1.7402 -1.2139 -0.9408
 4282TIP3    H234410   0.995   0.839   6.973  1.5906 -1.2136  0.7690
 4283TIP3   OH234411   6.892   2.231   8.264 -0.0806  0.8113  0.6881
 4283TIP3    H134412   6.947   2.269   8.196  1.1641 -0.6594  0.8056
 4283TIP3    H234413   6.911   2.137   8.260 -3.5674 -0.0160 -0.1276
 4284TIP3   OH234414   3.842   5.990   1.273 -0.1228  0.1765  0.2431
 4284TIP3    H134415   3.865   5.898   1.265 -1.3587 -0.1750  0.4840
 4284TIP3    H234416   3.909   6.036   1.222  0.5611 -0.8369  0.1992
 4285TIP3   OH234417   5.890   3.974   6.396  0.6992  0.0603  0.2442
 4285TIP3    H134418   5.926   4.060   6.377  0.4115 -0.1372 -1.4119
 4285TIP3    H234419   5.965   3.915   6.392  0.6659  0.0429 -0.1568
 4286TIP3   OH234420   5.636   5.009   1.148 -0.5718  0.6446 -0.1757
 4286TIP3    H134421   5.655   4.926   1.103  1.2060  1.4375 -0.9937
 4286TIP3    H234422   5.666   4.995   1.238  0.8219  0.7553 -0.6069
 4287TIP3   OH234423   1.934   4.019   2.267  0.4139 -0.1522  0.2368
 4287TIP3    H134424   1.913   4.008   2.360 -0.7183  2.1544  0.3108
 4287TIP3    H234425   2.023   4.056   2.267  0.3144  0.0844  0.4025
 4288TIP3   OH234426   6.964   4.199   1.177  0.0322  0.2367  0.2130
 4288TIP3    H134427   6.994   4.109   1.189 -1.2366 -0.2025  0.3459
 4288TIP3    H234428   6.885   4.205   1.231 -1.2851  0.6697 -1.6346
 4289TIP3   OH234429   4.381   3.055   0.610 -0.2288 -0.4501  0.0366
 4289TIP3    H134430   4.434   3.041   0.688 -0.4255 -0.7270  0.1246
 4289TIP3    H234431   4.395   2.977   0.557 -0.3382 -0.4049 -0.0604
 4290TIP3   OH234432   0.485   2.448   1.585 -0.6512  0.7382  0.9808
 4290TIP3    H134433   0.579   2.444   1.571 -0.6732 -2.1178  1.1278
 4290TIP3    H234434   0.471   2.408   1.671 -2.1415 -1.4664 -0.1935
 4291TIP3   OH234435   3.905   4.504   0.515  0.6379  0.1863 -0.3490
 4291TIP3    H134436   3.850   4.495   0.593  0.4067  0.7220 -0.4444
 4291TIP3    H234437   3.926   4.414   0.490 -1.1861 -0.0833 -1.0093
 4292TIP3   OH234438   2.758   5.390   8.280 -0.5966  0.0444  0.0712
 4292TIP3    H134439   2.671   5.428   8.268 -0.2119  0.7284 -0.6604
 4292TIP3    H234440   2.792   5.381   8.191 -0.3594 -1.3018  0.2701
 4293TIP3   OH234441   5.508   3.706   0.324 -0.1965 -0.7782 -0.1085
 4293TIP3    H134442   5.426   3.752   0.308 -0.0437  1.3214  3.9994
 4293TIP3    H234443   5.482   3.619   0.354 -1.1222  0.1942  2.1400
 4294TIP3   OH234444   4.927   0.056   7.403 -0.2060  0.3400 -0.0949
 4294TIP3    H134445   4.912   0.104   7.322 -0.2061 -1.7728 -1.4364
 4294TIP3    H234446   4.970   0.119   7.461 -1.5051  2.3323 -1.1996
 4295TIP3   OH234447   6.189   5.094   6.958 -0.0008  0.5073  0.3247
 4295TIP3    H134448   6.171   5.082   7.051 -0.5064 -0.4527  0.1212
 4295TIP3    H234449   6.102   5.094   6.917  0.2553  0.0514 -0.2368
 4296TIP3   OH234450   0.100   1.359   0.964 -0.0125  0.7312 -0.2402
 4296TIP3    H134451   0.105   1.392   1.054  0.6031 -0.6063  0.2392
 4296TIP3    H234452   0.022   1.400   0.928 -0.0260  1.6286  0.7639
 4297TIP3   OH234453   4.374   1.794   0.646  0.4740 -0.2049  0.4418
 4297TIP3    H134454   4.430   1.872   0.654 -1.5106  1.3341  0.2551
 4297TIP3    H234455   4.287   1.826   0.669 -0.4024 -2.4206  0.3551
 4298TIP3   OH234456   4.629   4.777   0.280  0.1655 -0.2591  0.4033
 4298TIP3    H134457   4.690   4.770   0.206 -0.4148 -0.6701 -0.0397
 4298TIP3    H234458   4.676   4.739   0.354  0.5348 -0.3609  0.1165
 4299TIP3   OH234459   4.851   0.207   7.156 -0.0297  0.4652 -0.1052
 4299TIP3    H134460   4.756   0.196   7.151 -0.0013  0.2418 -0.1924
 4299TIP3    H234461   4.867   0.294   7.122 -0.3543  1.1597  1.4261
 4300TIP3   OH234462   2.791   3.438   8.320 -0.5400  0.6449  0.5341
 4300TIP3    H134463   2.793   3.533   8.306 -1.2533  0.5968  0.0363
 4300TIP3    H234464   2.881   3.410   8.306 -0.7386  0.9399 -1.6733
 4301TIP3   OH234465   3.664   6.135   0.236 -0.7738 -0.9563 -0.0300
 4301TIP3    H134466   3.688   6.067   0.299 -2.7071 -0.8482  0.9155
 4301TIP3    H234467   3.574   6.159   0.259  0.0024  2.4174  0.1372
 4302TIP3   OH234468   4.041   1.890   7.216 -0.1471  0.5607  0.2065
 4302TIP3    H134469   3.963   1.892   7.161 -1.7677 -1.8319  2.1590
 4302TIP3    H234470   4.114   1.880   7.155 -1.8581 -2.2942 -1.5917
 4303TIP3   OH234471   2.849   2.840   7.343 -0.0674  0.2070  0.4530
 4303TIP3    H134472   2.848   2.936   7.352 -1.6169  0.0945  2.1951
 4303TIP3    H234473   2.937   2.820   7.311  1.0554  2.0875  2.1077
 4304TIP3   OH234474   3.307   1.917   6.856 -1.2208  0.6441  0.1188
 4304TIP3    H134475   3.270   1.829   6.855  0.0936  0.0355 -2.2957
 4304TIP3    H234476   3.233   1.975   6.839 -1.4869 -0.3992 -2.8010
 4305TIP3   OH234477   3.400   3.850   0.389 -0.4467  0.0536  0.1231
 4305TIP3    H134478   3.479   3.797   0.397 -2.2092 -2.4392  3.1630
 4305TIP3    H234479   3.341   3.797   0.334 -0.8635  0.7836 -0.1486
 4306TIP3   OH234480   1.541   6.701   5.977  0.2852 -0.0348 -0.3771
 4306TIP3    H134481   1.563   6.650   5.899  0.6139 -0.4099 -0.0480
 4306TIP3    H234482   1.612   6.765   5.985  0.0745  0.2257 -0.5728
 4307TIP3   OH234483   1.761   3.797   7.526  0.7276  0.0578  0.5009
 4307TIP3    H134484   1.826   3.838   7.469 -0.7620  0.5604 -0.9211
 4307TIP3    H234485   1.680   3.846   7.509  0.0727 -0.2270  2.5713
 4308TIP3   OH234486   6.241   3.543   1.893  0.4610 -0.0453 -0.0025
 4308TIP3    H134487   6.281   3.578   1.972  0.1727  1.4742 -0.5008
 4308TIP3    H234488   6.271   3.452   1.889  1.4331  0.2019  1.2118
 4309TIP3   OH234489   3.265   5.567   5.927 -0.1290 -0.2839  0.2068
 4309TIP3    H134490   3.313   5.498   5.971 -1.5692 -2.0384 -0.8179
 4309TIP3    H234491   3.184   5.576   5.978 -0.5087 -0.2715 -0.3825
 4310TIP3   OH234492   0.278   6.739   0.599  0.3051  0.3859 -0.1591
 4310TIP3    H134493   0.186   6.724   0.580  0.7675 -2.2320 -0.8096
 4310TIP3    H234494   0.319   6.751   0.514  0.8131 -0.4900 -0.0576
 4311TIP3   OH234495   1.784   4.609   7.969  0.1743  0.3164 -0.2533
 4311TIP3    H134496   1.774   4.703   7.953 -1.0936 -0.1567 -2.6363
 4311TIP3    H234497   1.717   4.589   8.035 -0.3509  0.8919 -0.6002
 4312TIP3   OH234498   3.391   0.700   1.060  0.4863  0.6630  0.0632
 4312TIP3    H134499   3.452   0.635   1.096 -0.2596  0.2160  0.5421
 4312TIP3    H234500   3.414   0.705   0.967  0.9101  0.1193  0.1324
 4313TIP3   OH234501   2.181   1.307   6.321  0.2890 -0.0209 -0.0797
 4313TIP3    H134502   2.213   1.232   6.271  0.7930 -0.3612  0.7318
 4313TIP3    H234503   2.117   1.270   6.382  0.1474  0.2876 -0.0409
 4314TIP3   OH234504   6.634   4.150   6.764  0.0957 -0.6380 -0.0608
 4314TIP3    H134505   6.655   4.129   6.854  1.9019 -0.4470 -0.4060
 4314TIP3    H234506   6.706   4.114   6.712 -0.8672 -0.6961 -1.4363
 4315TIP3   OH234507   3.601   5.104   6.369 -0.0898 -0.5744 -0.0281
 4315TIP3    H134508   3.652   5.053   6.306  0.8035 -0.5753  0.6611
 4315TIP3    H234509   3.603   5.194   6.335 -0.1448 -0.6835 -0.3213
 4316TIP3   OH234510   4.076   2.174   7.996  0.3366  0.2177  0.1032
 4316TIP3    H134511   3.988   2.171   7.961 -0.2854 -1.8048  1.6310
 4316TIP3    H234512   4.133   2.147   7.924 -0.4032  0.4193 -0.5604
 4317TIP3   OH234513   2.114   1.402   8.025 -0.5298  0.2820  0.0705
 4317TIP3    H134514   2.121   1.489   7.986 -1.6838  0.4957  0.2964
 4317TIP3    H234515   2.202   1.366   8.020 -0.4419  0.6343 -1.9484
 4318TIP3   OH234516   6.814   5.651   1.210  0.1956  0.0034  0.9568
 4318TIP3    H134517   6.828   5.744   1.223  1.0413 -0.0253  0.3380
 4318TIP3    H234518   6.732   5.632   1.256 -0.8306  1.3611 -0.2339
 4319TIP3   OH234519   3.678   2.188   6.871 -0.3063 -0.0518 -0.0102
 4319TIP3    H134520   3.595   2.236   6.877 -1.3613 -2.0070  3.0602
 4319TIP3    H234521   3.718   2.222   6.791 -2.7328  3.0248 -0.1504
 4320TIP3   OH234522   3.280   1.716   8.002  0.4519  0.4982 -0.5858
 4320TIP3    H134523   3.267   1.638   7.947 -2.2589  1.1325 -1.0089
 4320TIP3    H234524   3.253   1.687   8.090  1.2375  0.4812 -0.3440
 4321TIP3   OH234525   1.686   1.619   0.629 -0.3052 -0.0009 -0.0063
 4321TIP3    H134526   1.594   1.601   0.611 -0.2825 -2.9573  2.0262
 4321TIP3    H234527   1.696   1.600   0.722  2.2964  0.6854 -0.0741
 4322TIP3   OH234528   3.226   3.162   7.480  0.1897 -0.1258  0.0323
 4322TIP3    H134529   3.294   3.176   7.546  0.4567  1.6846 -0.5892
 4322TIP3    H234530   3.257   3.085   7.431  0.5497 -0.8016  1.2619
 4323TIP3   OH234531   4.218   1.097   7.199 -0.0386 -0.1113 -0.3237
 4323TIP3    H134532   4.278   1.145   7.142 -0.2613  0.5192 -0.0364
 4323TIP3    H234533   4.274   1.060   7.267  0.0823  0.0897 -0.3141
 4324TIP3   OH234534   6.132   4.086   6.663  0.2271  0.1640  0.3389
 4324TIP3    H134535   6.122   4.039   6.580  2.3518  0.7630 -0.3299
 4324TIP3    H234536   6.226   4.082   6.681 -0.1069  0.5828  2.4228
 4325TIP3   OH234537   6.924   0.604   8.020 -0.5204  0.3555 -0.8972
 4325TIP3    H134538   6.930   0.688   7.974  0.6262  0.9051  0.2011
 4325TIP3    H234539   6.997   0.605   8.082  0.0346 -1.8269 -1.4285
 4326TIP3   OH234540   1.279   5.812   0.603  0.0843  0.4422  0.4216
 4326TIP3    H134541   1.278   5.842   0.512 -0.5794 -1.1749 -0.1444
 4326TIP3    H234542   1.336   5.735   0.603 -0.6460 -0.1212  1.1661
 4327TIP3   OH234543   0.905   6.103   8.231  0.5357  0.8488 -0.4011
 4327TIP3    H134544   0.825   6.085   8.280  1.4449 -1.7726  0.2769
 4327TIP3    H234545   0.929   6.192   8.256 -1.8216  1.5040 -0.2074
 4328TIP3   OH234546   1.096   6.956   1.281  0.7060 -0.6434 -0.6215
 4328TIP3    H134547   1.034   6.909   1.224 -0.8150 -0.6555  0.9324
 4328TIP3    H234548   1.064   7.046   1.282 -0.1818 -0.9043  1.2048
 4329TIP3   OH234549   1.532   0.768   0.326  0.4284  0.0934 -0.5263
 4329TIP3    H134550   1.566   0.712   0.256  1.7089 -0.9591  0.8775
 4329TIP3    H234551   1.443   0.734   0.342  1.7899 -2.9508  1.5616
 4330TIP3   OH234552   4.458   2.355   0.221 -0.2634  0.0782 -0.1240
 4330TIP3    H134553   4.514   2.320   0.151 -0.1756 -0.3640  0.1605
 4330TIP3    H234554   4.474   2.297   0.295  0.8055  1.4588  0.7522
 4331TIP3   OH234555   6.909   5.043   7.482  0.8772  0.2285 -0.5431
 4331TIP3    H134556   6.973   5.052   7.553  0.2949  0.3260 -0.0274
 4331TIP3    H234557   6.826   5.028   7.526  0.5571 -0.0123 -1.2149
 4332TIP3   OH234558   3.370   5.892   7.029  0.0170 -0.1816 -0.1276
 4332TIP3    H134559   3.431   5.922   7.097 -0.7766  1.6910 -0.1739
 4332TIP3    H234560   3.410   5.813   6.994  1.7045  0.2077  0.8098
 4333TIP3   OH234561   6.559   4.991   6.697 -0.9329  0.1139 -0.6429
 4333TIP3    H134562   6.539   5.052   6.768 -0.2090 -0.5051  0.1091
 4333TIP3    H234563   6.546   4.904   6.735  2.0774 -0.3124 -0.3908
 4334TIP3   OH234564   0.475   5.466   0.718  0.1558 -0.6501  0.0392
 4334TIP3    H134565   0.501   5.376   0.739  2.1981  0.4725  3.1502
 4334TIP3    H234566   0.555   5.507   0.684  0.4265  0.8630  2.2644
 4335TIP3   OH234567   5.582   2.786   0.843  0.0462 -0.0667  0.5560
 4335TIP3    H134568   5.618   2.853   0.784  1.5234 -1.3896 -0.1414
 4335TIP3    H234569   5.650   2.775   0.910 -0.0598 -1.0070  0.5235
 4336TIP3   OH234570   6.060   3.089   1.985 -0.0546 -0.7155 -0.2076
 4336TIP3    H134571   6.151   3.060   1.977 -0.6426 -3.9323  2.4286
 4336TIP3    H234572   6.062   3.153   2.055  0.2925  0.1466 -0.9845
 4337TIP3   OH234573   1.227   0.585   7.112 -0.1318  0.3171  0.4005
 4337TIP3    H134574   1.206   0.529   7.037  1.4341  1.4824 -0.9961
 4337TIP3    H234575   1.143   0.607   7.151 -1.0940  0.6467 -1.7639
 4338TIP3   OH234576   0.138   5.825   7.695  0.7325  0.5531 -0.5048
 4338TIP3    H134577   0.231   5.815   7.713  0.3392  0.2012  1.5769
 4338TIP3    H234578   0.098   5.838   7.781 -1.2428 -0.1752 -1.2554
 4339TIP3   OH234579   6.682   5.784   0.181 -0.1184  0.4030  0.1366
 4339TIP3    H134580   6.615   5.776   0.249  1.9435  0.5000  2.3453
 4339TIP3    H234581   6.665   5.869   0.140 -2.5331 -0.4679 -0.8351
 4340TIP3   OH234582   5.734   3.570   6.176  0.5870  0.0614 -0.2817
 4340TIP3    H134583   5.791   3.647   6.174  1.4755 -0.4803  1.6558
 4340TIP3    H234584   5.793   3.496   6.165  0.5859 -0.5894  3.1081
 4341TIP3   OH234585   5.902   1.518   0.420 -0.2295 -0.1502  0.6969
 4341TIP3    H134586   5.934   1.476   0.500  0.3790 -0.5169  0.2732
 4341TIP3    H234587   5.972   1.578   0.395  1.0505 -2.2720 -1.2404
 4342TIP3   OH234588   5.806   4.858   8.319 -0.0515  0.2294  0.4304
 4342TIP3    H134589   5.794   4.765   8.302 -0.6147  0.3623  0.0709
 4342TIP3    H234590   5.891   4.864   8.362 -0.4951 -0.5727  1.4781
 4343TIP3   OH234591   3.029   6.564   0.826 -0.2245  0.1537 -0.5790
 4343TIP3    H134592   3.058   6.602   0.743  0.6627  0.6526 -0.0632
 4343TIP3    H234593   2.990   6.481   0.802 -1.6405  1.0947 -1.6804
 4344TIP3   OH234594   0.078   2.100   7.794 -0.3122 -0.2053 -0.5514
 4344TIP3    H134595   0.088   2.130   7.885  0.5417 -0.0125 -0.7051
 4344TIP3    H234596  -0.010   2.127   7.770  0.0482  1.2549 -0.3335
 4345TIP3   OH234597   3.800   0.917   7.079 -0.3471  0.5275  0.2142
 4345TIP3    H134598   3.864   0.952   7.141 -0.8367  1.2312  0.3265
 4345TIP3    H234599   3.744   0.991   7.057 -1.4678 -0.2015  0.5290
 4346TIP3   OH234600   2.943   2.813   0.564 -0.2484  0.4085  0.3109
 4346TIP3    H134601   2.979   2.739   0.515 -0.0773 -0.1258  1.2072
 4346TIP3    H234602   2.874   2.847   0.508 -0.8954 -0.9617  0.2172
 4347TIP3   OH234603   0.722   3.654   7.020  0.6253 -0.1263 -0.2180
 4347TIP3    H134604   0.747   3.620   6.934 -0.1161 -0.2035 -0.4086
 4347TIP3    H234605   0.784   3.613   7.080  2.8087  1.8994 -0.9740
 4348TIP3   OH234606   3.250   3.302   1.387 -0.2647 -0.0116 -0.5191
 4348TIP3    H134607   3.184   3.291   1.319 -0.8076  1.0312 -0.1857
 4348TIP3    H234608   3.211   3.263   1.465 -1.6706  2.8744  0.3518
 4349TIP3   OH234609   6.472   5.155   6.902  0.1832  0.3703  0.5824
 4349TIP3    H134610   6.378   5.143   6.915 -0.1129  1.2997 -0.5161
 4349TIP3    H234611   6.511   5.125   6.984 -0.8778 -2.0102  0.2909
 4350TIP3   OH234612   0.895   6.124   6.949  0.6349 -0.1102  0.1982
 4350TIP3    H134613   0.944   6.177   7.012  1.5081 -0.0414 -0.5241
 4350TIP3    H234614   0.843   6.187   6.899 -1.3927 -0.2907  1.9148
 4351TIP3   OH234615   0.977   3.520   0.707 -0.5267 -0.1735  0.3785
 4351TIP3    H134616   1.017   3.434   0.720 -0.6715 -0.5061 -1.1613
 4351TIP3    H234617   1.042   3.582   0.740  0.5193 -0.7843 -0.4655
 4352TIP3   OH234618   3.249   0.234   8.178  0.0944 -0.0633  0.2299
 4352TIP3    H134619   3.297   0.159   8.215 -1.0343  0.2138  2.4480
 4352TIP3    H234620   3.219   0.203   8.093  1.4051 -1.3793  0.1965
 4353TIP3   OH234621   2.578   5.310   7.265 -0.3861 -0.2705 -0.0669
 4353TIP3    H134622   2.645   5.335   7.202 -0.8921 -1.7987 -1.2627
 4353TIP3    H234623   2.619   5.240   7.317 -1.0230 -1.1698 -0.7659
 4354TIP3   OH234624   5.491   5.846   8.406 -0.1377  0.2377  0.6731
 4354TIP3    H134625   5.554   5.912   8.435  1.6189 -1.2708  0.4660
 4354TIP3    H234626   5.529   5.808   8.327 -1.0607 -1.0595  0.8003
 4355TIP3   OH234627   6.759   5.364   0.847 -0.0499 -0.6012  0.1611
 4355TIP3    H134628   6.805   5.373   0.931 -1.1508  3.6111  0.5224
 4355TIP3    H234629   6.825   5.383   0.781  0.1859 -1.2158  0.2082
 4356TIP3   OH234630   5.221   1.492   0.935  0.4366  0.1431 -0.0198
 4356TIP3    H134631   5.300   1.530   0.898  1.7715 -0.8209  1.6814
 4356TIP3    H234632   5.213   1.532   1.021 -0.7857  0.0042 -0.0460
 4357TIP3   OH234633   6.072   2.631   0.123 -0.2203 -0.0546  0.0482
 4357TIP3    H134634   6.037   2.717   0.147 -2.9378 -0.5966 -1.6233
 4357TIP3    H234635   6.009   2.568   0.157 -0.0131 -1.2044 -1.5673
 4358TIP3   OH234636   1.491   4.500   7.315  0.1915  0.0449 -0.2003
 4358TIP3    H134637   1.494   4.505   7.410  0.3122  0.9972 -0.2430
 4358TIP3    H234638   1.406   4.461   7.296  0.5434 -1.0113  0.3104
 4359TIP3   OH234639   0.284   6.012   1.429  0.4405  0.0467  0.0843
 4359TIP3    H134640   0.194   5.980   1.433  0.1361  0.9558  1.0642
 4359TIP3    H234641   0.291   6.073   1.502  1.4647  0.9862 -0.7632
 4360TIP3   OH234642   5.696   4.262   8.368  0.5090  0.1212  0.1491
 4360TIP3    H134643   5.774   4.235   8.416 -0.8724 -0.0062  2.4387
 4360TIP3    H234644   5.725   4.340   8.319  1.9737  0.3003  1.2255
 4361TIP3   OH234645   1.416   3.490   1.733  0.2759  0.2681  0.2598
 4361TIP3    H134646   1.448   3.580   1.737 -0.1213  0.4059  0.3532
 4361TIP3    H234647   1.486   3.438   1.773  0.5101  0.5343  0.1970
 4362TIP3   OH234648   1.079   6.251   7.115  0.2577 -0.1096  0.2559
 4362TIP3    H134649   1.046   6.336   7.145  0.7126  0.0439  0.3198
 4362TIP3    H234650   1.094   6.202   7.196  0.1652 -0.1896  0.2251
 4363TIP3   OH234651   6.871   4.348   7.276 -0.2697 -0.4371  0.0529
 4363TIP3    H134652   6.939   4.306   7.223  0.9386 -0.5429  1.6195
 4363TIP3    H234653   6.903   4.437   7.291 -0.0157 -0.7439  1.5088
 4364TIP3   OH234654   0.851   2.415   2.206 -0.4304 -0.8226  0.6225
 4364TIP3    H134655   0.799   2.485   2.167  1.0286  0.0205  0.1271
 4364TIP3    H234656   0.794   2.377   2.273 -1.5109  0.3362  0.3970
 4365TIP3   OH234657   1.225   5.329   8.114  0.0393  0.4098 -0.3336
 4365TIP3    H134658   1.279   5.400   8.147 -0.5691 -0.0542  1.8757
 4365TIP3    H234659   1.284   5.275   8.061  2.1956 -0.7449  2.9392
 4366TIP3   OH234660   4.385   5.198   1.133 -0.1656  0.3744 -0.1547
 4366TIP3    H134661   4.310   5.183   1.074 -0.6595  0.1884  0.5045
 4366TIP3    H234662   4.365   5.144   1.210  0.6110  0.3939  0.0643
 4367TIP3   OH234663   6.867   2.987   6.176  0.3392 -1.1302 -0.1642
 4367TIP3    H134664   6.845   2.900   6.141  0.3083 -0.7406 -1.1322
 4367TIP3    H234665   6.799   3.004   6.241  0.4797 -1.9272  0.2092
 4368TIP3   OH234666   2.329   5.364   0.358 -0.2187 -0.2686 -0.1605
 4368TIP3    H134667   2.237   5.382   0.376  0.1423  1.6007  0.0488
 4368TIP3    H234668   2.342   5.274   0.387 -1.7175 -0.1870  0.8900
 4369TIP3   OH234669   5.080   1.474   8.235  0.6027 -0.1858 -0.9860
 4369TIP3    H134670   4.999   1.504   8.194  0.9489 -1.9805 -3.1568
 4369TIP3    H234671   5.114   1.407   8.176  1.8823 -2.0127  1.6302
 4370TIP3   OH234672   5.572   2.586   7.799  0.2124 -0.4253  0.5674
 4370TIP3    H134673   5.586   2.496   7.768 -0.6224 -0.0144 -1.0890
 4370TIP3    H234674   5.520   2.628   7.730  2.9685  2.1884 -0.1530
 4371TIP3   OH234675   3.750   1.870   6.547  0.3061 -0.4279  0.0107
 4371TIP3    H134676   3.706   1.921   6.615 -0.1527 -0.0108 -0.5856
 4371TIP3    H234677   3.790   1.936   6.490  1.5971 -0.7904  0.4525
 4372TIP3   OH234678   6.582   0.822   8.363  0.2912  0.8583 -0.4255
 4372TIP3    H134679   6.646   0.752   8.372  0.1009  0.6739 -0.5069
 4372TIP3    H234680   6.510   0.797   8.421  0.2733  1.0446 -0.3659
 4373TIP3   OH234681   2.926   3.419   1.725  0.6804 -0.3294  0.1073
 4373TIP3    H134682   2.866   3.493   1.731 -0.9226 -1.5568 -0.0134
 4373TIP3    H234683   2.959   3.408   1.814 -0.1745 -0.3238  0.4400
 4374TIP3   OH234684   3.611   0.507   6.661 -0.3848 -0.4281  0.3149
 4374TIP3    H134685   3.585   0.551   6.742 -0.8111 -0.3213  0.1256
 4374TIP3    H234686   3.705   0.495   6.669 -0.2669  0.4684  0.4056
 4375TIP3   OH234687   0.213   3.634   8.012  0.0010 -0.0853  0.0240
 4375TIP3    H134688   0.303   3.650   7.983 -0.4100  0.6587 -0.8782
 4375TIP3    H234689   0.183   3.560   7.958 -0.5073  0.8069 -0.9462
 4376TIP3   OH234690   4.513   1.019   6.620 -0.0460 -0.4488 -0.0738
 4376TIP3    H134691   4.420   0.997   6.619  0.1525 -1.9358  2.7961
 4376TIP3    H234692   4.516   1.111   6.592 -2.6919  0.4129  1.9196
 4377TIP3   OH234693   1.970   3.510   0.274 -0.3793 -0.2096  0.2184
 4377TIP3    H134694   1.883   3.469   0.272  0.7201 -2.6529 -1.9876
 4377TIP3    H234695   2.028   3.442   0.306  0.9945  0.8645  0.0951
 4378TIP3   OH234696   3.805   2.281   0.648  0.5220  0.3117  0.5485
 4378TIP3    H134697   3.857   2.361   0.656  2.1623 -0.8101  1.9552
 4378TIP3    H234698   3.720   2.304   0.686  1.2930  1.1482  1.8929
 4379TIP3   OH234699   4.596   4.980   0.681  0.1053  0.0305  0.1611
 4379TIP3    H134700   4.520   4.958   0.735  1.2486 -2.6974  0.8621
 4379TIP3    H234701   4.668   4.987   0.744  0.8910 -0.0656 -0.7096
 4380TIP3   OH234702   0.945   3.812   2.266 -0.0927 -0.2005 -0.3960
 4380TIP3    H134703   0.952   3.719   2.284 -0.1061  0.0083  0.7711
 4380TIP3    H234704   0.873   3.819   2.204 -1.8492 -0.7796  1.4638
 4381TIP3   OH234705   1.395   3.392   0.275  0.8252 -0.2522 -0.6041
 4381TIP3    H134706   1.440   3.475   0.288  0.4124  0.0328 -0.9789
 4381TIP3    H234707   1.343   3.380   0.354  2.1039 -0.9401  0.1593
 4382TIP3   OH234708   4.010   4.971   8.226  0.3879 -0.4769 -0.4538
 4382TIP3    H134709   4.088   4.994   8.175 -0.1494 -0.6204 -1.3591
 4382TIP3    H234710   3.958   5.052   8.227  0.2409 -0.5720 -0.4268
 4383TIP3   OH234711   2.737   1.994   7.727 -0.0210 -0.3406 -0.4734
 4383TIP3    H134712   2.821   1.998   7.681  2.6638 -0.8186  3.7853
 4383TIP3    H234713   2.701   2.082   7.718  2.3054  0.7199 -0.3036
 4384TIP3   OH234714   2.920   3.321   0.898 -0.0541  0.0863  0.2649
 4384TIP3    H134715   2.950   3.341   0.987 -0.4513 -0.1402  0.4570
 4384TIP3    H234716   2.830   3.291   0.910 -0.2474  0.4360 -0.2570
 4385TIP3   OH234717   3.580   6.453   0.190  0.4167 -0.3122  0.7572
 4385TIP3    H134718   3.545   6.398   0.119 -0.2248 -0.0101  0.8333
 4385TIP3    H234719   3.525   6.432   0.266 -0.8458  1.5202  0.4191
 4386TIP3   OH234720   4.496   4.871   6.979  0.8638 -0.5261  0.6427
 4386TIP3    H134721   4.412   4.896   7.018  0.2166 -0.8369 -0.4932
 4386TIP3    H234722   4.557   4.938   7.009  0.1587 -0.1651  1.3104
 4387TIP3   OH234723   6.398   6.720   7.772 -0.3683  0.2931 -0.4725
 4387TIP3    H134724   6.381   6.813   7.763 -0.0765  0.3381 -0.5448
 4387TIP3    H234725   6.386   6.703   7.866 -0.5608  0.3721 -0.4806
 4388TIP3   OH234726   3.579   1.901   1.077  0.2837 -0.4219 -0.1487
 4388TIP3    H134727   3.650   1.880   1.138  0.3483  0.7535  0.2072
 4388TIP3    H234728   3.543   1.816   1.051  1.3750 -1.0080  0.1953
 4389TIP3   OH234729   5.061   1.805   0.352  0.3856  0.2363  0.1475
 4389TIP3    H134730   5.110   1.810   0.270  0.3233 -0.6212  0.0557
 4389TIP3    H234731   5.018   1.891   0.359  1.4667  0.8118 -0.0332
 4390TIP3   OH234732   6.860   0.635   0.358  0.5686  0.4162  0.1890
 4390TIP3    H134733   6.889   0.706   0.301  0.8729 -1.9359 -2.7954
 4390TIP3    H234734   6.774   0.609   0.324  0.4931 -0.7181  1.1518
 4391TIP3   OH234735   1.069   4.788   2.186 -0.2574  0.2655 -0.0068
 4391TIP3    H134736   1.129   4.830   2.248 -0.2342  1.7695 -0.9997
 4391TIP3    H234737   1.085   4.832   2.103 -1.7249 -0.3063 -0.6319
 4392TIP3   OH234738   1.470   2.290   7.201  0.4805 -0.2299 -0.2259
 4392TIP3    H134739   1.531   2.352   7.162  0.8218 -0.0549  0.5651
 4392TIP3    H234740   1.446   2.232   7.129  0.0998  0.8480 -1.0000
 4393TIP3   OH234741   0.389   4.248   1.126  0.3297 -0.6469 -0.3575
 4393TIP3    H134742   0.455   4.178   1.121  0.4981 -0.4099 -2.2137
 4393TIP3    H234743   0.380   4.278   1.036  0.2903  1.7634  0.3781
 4394TIP3   OH234744   6.574   1.344   6.654  0.0684  0.5092 -0.0299
 4394TIP3    H134745   6.515   1.408   6.613 -0.6422 -0.8746 -1.2836
 4394TIP3    H234746   6.596   1.382   6.738 -0.0052  2.5941 -0.8914
 4395TIP3   OH234747   5.052   1.423   7.838  0.3557 -0.0930  0.1878
 4395TIP3    H134748   5.111   1.456   7.906 -0.2437  0.5493  0.4001
 4395TIP3    H234749   5.070   1.478   7.762  2.4034 -2.0140 -0.8339
 4396TIP3   OH234750   4.552   1.525   0.020  0.0124  0.3145 -0.3222
 4396TIP3    H134751   4.617   1.461  -0.008  0.8204  1.9586 -2.4631
 4396TIP3    H234752   4.469   1.476   0.020  0.0568 -0.2099 -4.8448
 4397TIP3   OH234753   3.819   2.093   8.216 -0.1135 -0.5247 -0.1601
 4397TIP3    H134754   3.791   2.120   8.128 -0.4721  1.4940  0.5448
 4397TIP3    H234755   3.911   2.119   8.221 -0.3138  0.1104  0.3370
 4398TIP3   OH234756   0.707   1.068   0.077 -0.5946  0.6079  0.4353
 4398TIP3    H134757   0.613   1.077   0.089 -0.6158  0.7026  0.2130
 4398TIP3    H234758   0.724   1.108  -0.009 -0.4806 -0.1556  0.0908
 4399TIP3   OH234759   1.637   2.960   7.960 -0.1550  0.4744  0.0252
 4399TIP3    H134760   1.678   3.001   7.883  0.4253 -0.5500 -0.2371
 4399TIP3    H234761   1.705   2.902   7.994 -0.8612 -0.0534  0.5456
 4400TIP3   OH234762   3.642   3.090   0.774 -0.4506 -0.5056  0.1523
 4400TIP3    H134763   3.659   3.122   0.863 -2.1461  1.7882 -0.2234
 4400TIP3    H234764   3.708   3.133   0.720  0.8226 -2.2039  0.3078
 4401TIP3   OH234765   0.990   3.767   1.987  0.4601  0.2245 -0.1558
 4401TIP3    H134766   0.899   3.788   1.967  0.1251  0.6679  1.6128
 4401TIP3    H234767   1.036   3.850   1.975  0.9925 -0.3382 -2.5993
 4402TIP3   OH234768   6.653   3.578   7.589  0.6424 -0.2439  0.0554
 4402TIP3    H134769   6.641   3.608   7.499 -0.1030 -2.8726 -0.7990
 4402TIP3    H234770   6.568   3.540   7.613  0.9279  0.1161  1.7804
 4403TIP3   OH234771   5.205   1.505   0.465  0.0363 -0.2588  0.3984
 4403TIP3    H134772   5.112   1.486   0.458  0.2048 -0.8966 -0.2556
 4403TIP3    H234773   5.228   1.543   0.381  0.9045 -2.5990 -0.5102
 4404TIP3   OH234774   2.436   6.004   0.446 -0.3987 -0.0892 -0.5160
 4404TIP3    H134775   2.427   6.097   0.424  1.9091  0.6840  1.3376
 4404TIP3    H234776   2.442   6.002   0.541  0.4327 -2.0281 -0.5541
 4405TIP3   OH234777   6.819   0.930   0.288  0.6840 -0.7962 -0.1393
 4405TIP3    H134778   6.875   0.877   0.231  0.6029 -0.1262 -0.8540
 4405TIP3    H234779   6.770   0.986   0.228 -1.9221 -2.4079  0.3108
 4406TIP3   OH234780   4.788   1.491   7.655 -0.0432 -0.3690 -0.1182
 4406TIP3    H134781   4.817   1.402   7.634  0.4756 -0.1546 -0.3316
 4406TIP3    H234782   4.867   1.535   7.683 -0.2021  0.1747 -0.5096
 4407TIP3   OH234783   4.385   3.300   7.157  0.5493 -0.1721  0.1782
 4407TIP3    H134784   4.362   3.341   7.073 -1.6081  0.0871  0.8256
 4407TIP3    H234785   4.409   3.210   7.134 -3.2583 -1.1760 -0.5393
 4408TIP3   OH234786   1.428   2.601   8.071  0.0978 -0.0340  0.9633
 4408TIP3    H134787   1.423   2.531   8.006 -1.7395  0.3357  0.6543
 4408TIP3    H234788   1.425   2.682   8.020 -2.5993  0.2846  1.4422
 4409TIP3   OH234789   1.452   3.118   0.216  0.7589  0.4963 -0.0827
 4409TIP3    H134790   1.362   3.101   0.187 -0.0257  1.3513  1.7017
 4409TIP3    H234791   1.448   3.204   0.256  1.9973 -0.1435  1.5196
 4410TIP3   OH234792   1.731   5.309   7.957  0.2780  0.6208  0.3057
 4410TIP3    H134793   1.767   5.398   7.960 -0.5094  0.9309  1.0011
 4410TIP3    H234794   1.808   5.252   7.953  1.0725  1.1266  4.1522
 4411TIP3   OH234795   1.556   0.058   6.522  0.0974 -0.3331  0.4940
 4411TIP3    H134796   1.503  -0.008   6.479 -0.3391 -0.1530  0.7440
 4411TIP3    H234797   1.590   0.015   6.600  1.0214 -0.7089 -0.1086
 4412TIP3   OH234798   0.190   3.251   7.226 -0.4935  0.2276  0.2647
 4412TIP3    H134799   0.199   3.181   7.291 -1.3941 -0.7042 -0.5810
 4412TIP3    H234800   0.275   3.296   7.228 -0.1764 -0.3691  1.3959
 4413TIP3   OH234801   0.059   1.945   0.296  0.4342 -0.0847  0.4562
 4413TIP3    H134802  -0.012   1.937   0.232 -1.1111  1.8556  1.7885
 4413TIP3    H234803   0.066   1.858   0.334 -0.6807 -0.5341 -0.3079
 4414TIP3   OH234804   0.970   1.817   0.756  0.0513 -0.1661  0.6283
 4414TIP3    H134805   0.874   1.808   0.761 -0.0141  0.9126  1.6568
 4414TIP3    H234806   1.002   1.758   0.824  0.1396 -0.6448  0.1799
 4415TIP3   OH234807   1.976   4.250   7.085  0.2024 -0.6977 -0.3483
 4415TIP3    H134808   1.981   4.225   6.992  0.6920  1.2894 -0.8964
 4415TIP3    H234809   1.884   4.237   7.108 -0.2696  0.2214 -1.5698
 4416TIP3   OH234810   1.150   6.638   2.129  0.5813  0.6644  0.4948
 4416TIP3    H134811   1.174   6.719   2.084 -1.2428  2.0244  1.7730
 4416TIP3    H234812   1.213   6.630   2.200 -1.2428  3.0538  2.5694
 4417TIP3   OH234813   3.484   4.298   0.610  0.1301 -0.4667  0.0764
 4417TIP3    H134814   3.492   4.243   0.688 -0.9395 -1.0913 -0.2480
 4417TIP3    H234815   3.438   4.244   0.546  0.3377  0.3024 -0.7471
 4418TIP3   OH234816   3.085   3.552   7.078 -0.4711 -0.4024 -0.4609
 4418TIP3    H134817   3.032   3.523   7.004  0.5832 -0.7546 -1.1107
 4418TIP3    H234818   3.131   3.629   7.044  0.5346 -0.9650 -0.4202
 4419TIP3   OH234819   2.073   3.138   1.561  0.0729 -0.3014  0.3747
 4419TIP3    H134820   2.018   3.136   1.482 -0.7822 -0.5759  0.9598
 4419TIP3    H234821   2.139   3.205   1.543  0.2117 -0.7285 -0.7811
 4420TIP3   OH234822   3.064   6.264   0.851 -0.2346 -0.2048  0.1338
 4420TIP3    H134823   3.159   6.277   0.844 -0.0026 -2.3578 -2.2788
 4420TIP3    H234824   3.054   6.179   0.895 -0.7582 -1.8953 -2.9183
 4421TIP3   OH234825   1.466   5.985   0.747  0.1031 -0.9185 -0.2043
 4421TIP3    H134826   1.392   5.927   0.726  1.7742 -2.8207 -1.1189
 4421TIP3    H234827   1.519   5.936   0.809  1.9863 -0.7496 -1.5983
 4422TIP3   OH234828   2.849   3.173   6.742  0.3971 -0.2757  0.2796
 4422TIP3    H134829   2.934   3.148   6.780  1.2088  0.1269 -1.2091
 4422TIP3    H234830   2.848   3.269   6.747  0.5316 -0.2143 -0.7187
 4423TIP3   OH234831   5.963   1.522   0.802 -0.0332  0.1420  0.4450
 4423TIP3    H134832   5.889   1.472   0.837 -0.3240  0.0005 -0.3639
 4423TIP3    H234833   6.005   1.463   0.739 -0.0759  0.7323 -0.1482
 4424TIP3   OH234834   6.516   0.321   7.960  0.1363  0.3280  0.3553
 4424TIP3    H134835   6.601   0.356   7.933  0.4019 -0.5521 -0.0016
 4424TIP3    H234836   6.521   0.317   8.056  0.0171  1.4270  0.4208
 4425TIP3   OH234837   1.245   5.876   2.416 -0.0389 -0.2960 -0.3965
 4425TIP3    H134838   1.213   5.884   2.327 -0.7269 -1.5847 -0.2934
 4425TIP3    H234839   1.303   5.799   2.414  1.9187  1.0986 -0.2507
 4426TIP3   OH234840   5.272   6.141   1.792 -0.3269 -0.0024 -0.0611
 4426TIP3    H134841   5.282   6.190   1.711  0.7579  1.0386  0.6712
 4426TIP3    H234842   5.321   6.060   1.777  1.0269  0.7841  0.0148
 4427TIP3   OH234843   6.281   2.048   6.908 -0.3360  0.0288 -0.2652
 4427TIP3    H134844   6.297   2.050   7.002  0.1394 -0.6127 -0.3227
 4427TIP3    H234845   6.216   1.978   6.896 -0.7152  0.3952 -0.3738
 4428TIP3   OH234846   4.215   3.989   0.326  0.0412 -0.2322  0.1160
 4428TIP3    H134847   4.275   4.036   0.270  0.5982 -0.3595  0.5963
 4428TIP3    H234848   4.212   3.900   0.289  0.8638 -0.4784  0.6285
 4429TIP3   OH234849   0.493   3.431   2.177  0.0326 -0.4985  0.1342
 4429TIP3    H134850   0.468   3.402   2.265  2.0096 -0.7912  0.6513
 4429TIP3    H234851   0.415   3.475   2.143 -0.9060 -0.7207  1.8771
 4430TIP3   OH234852   6.148   3.285   0.626 -0.3474  0.6069 -0.2403
 4430TIP3    H134853   6.154   3.282   0.531 -1.5048 -0.6798 -0.2989
 4430TIP3    H234854   6.234   3.255   0.656  0.0473  1.0884 -0.8691
 4431TIP3   OH234855   5.564   3.576   0.720  0.0078  0.0176 -0.2663
 4431TIP3    H134856   5.633   3.580   0.786 -0.0398 -1.4267 -0.0996
 4431TIP3    H234857   5.610   3.582   0.636  0.0278  2.3937 -0.1690
 4432TIP3   OH234858   6.525   2.085   7.937  0.0219 -0.0944 -0.0329
 4432TIP3    H134859   6.451   2.063   7.880  1.1812 -1.1876 -1.2061
 4432TIP3    H234860   6.582   2.008   7.932  0.2480 -0.1505  2.5462
 4433TIP3   OH234861   2.321   2.904   8.183  0.2549  0.0164  0.1047
 4433TIP3    H134862   2.272   2.836   8.138  3.0004 -0.5118 -2.3776
 4433TIP3    H234863   2.279   2.986   8.156 -0.1669 -0.4684 -0.7290
 4434TIP3   OH234864   5.749   5.039   1.871 -0.0519  0.1158 -0.2965
 4434TIP3    H134865   5.760   5.117   1.926 -0.3975  0.1581 -0.2871
 4434TIP3    H234866   5.738   4.968   1.934 -1.2332  0.2723 -0.2967
 4435TIP3   OH234867   4.090   1.780   6.140 -0.5896 -0.2016  0.3123
 4435TIP3    H134868   4.168   1.749   6.095  0.3814  0.1402  1.6943
 4435TIP3    H234869   4.087   1.874   6.123 -0.4309 -0.1349  0.6487
 4436TIP3   OH234870   3.508   5.692   1.260 -0.4492  0.0126  0.0571
 4436TIP3    H134871   3.540   5.737   1.338  1.5900  3.4902 -2.5240
 4436TIP3    H234872   3.586   5.650   1.224 -1.0529 -0.2787 -0.9297
 4437TIP3   OH234873   3.473   1.339   0.733 -0.5412 -0.0413 -0.1893
 4437TIP3    H134874   3.470   1.389   0.652  1.8990 -1.8087 -1.4779
 4437TIP3    H234875   3.560   1.357   0.769 -1.4272  0.4146  1.9256
 4438TIP3   OH234876   3.325   0.773   7.430 -0.3047 -0.2802  0.0517
 4438TIP3    H134877   3.277   0.718   7.492 -0.3317  0.3681  0.6179
 4438TIP3    H234878   3.387   0.714   7.388 -1.9847 -1.2708 -1.1245
 4439TIP3   OH234879   2.693   1.640   7.260 -0.0999 -0.3011 -0.3275
 4439TIP3    H134880   2.641   1.706   7.307  0.7452 -0.2671  0.6008
 4439TIP3    H234881   2.767   1.622   7.318 -0.3436 -2.1396 -0.5112
 4440TIP3   OH234882   3.404   0.454   8.189 -0.2701 -0.0765 -0.0895
 4440TIP3    H134883   3.435   0.476   8.101 -1.2670 -2.5386 -1.1450
 4440TIP3    H234884   3.351   0.375   8.177  0.2963 -1.0325  2.8641
 4441TIP3   OH234885   2.043   3.378   7.858  0.0067  0.7702 -0.5522
 4441TIP3    H134886   2.091   3.410   7.781 -0.8322  1.4299 -0.8108
 4441TIP3    H234887   1.951   3.382   7.833 -0.1954 -1.1690 -0.3269
 4442TIP3   OH234888   1.068   5.665   6.865  0.4235 -0.2647  0.4325
 4442TIP3    H134889   1.087   5.755   6.837  1.7634 -0.3436  1.0380
 4442TIP3    H234890   0.988   5.642   6.817  0.9845  0.6452 -1.0102
 4443TIP3   OH234891   5.468   1.588   6.661  0.0402  0.4010 -0.3529
 4443TIP3    H134892   5.439   1.626   6.743  2.3766 -0.0818  0.7927
 4443TIP3    H234893   5.511   1.660   6.615 -1.7974  0.8261 -1.4927
 4444TIP3   OH234894   5.532   1.628   7.245 -0.2769 -0.0599 -0.1330
 4444TIP3    H134895   5.478   1.612   7.167 -0.3504  0.0356 -0.1013
 4444TIP3    H234896   5.619   1.647   7.209  0.3771 -2.5957 -0.1372
 4445TIP3   OH234897   5.412   1.218   1.332  0.0481 -0.1480  0.4296
 4445TIP3    H134898   5.444   1.277   1.265 -0.0034 -0.6239 -0.0195
 4445TIP3    H234899   5.486   1.204   1.390  1.7706 -3.6766 -2.2629
 4446TIP3   OH234900   1.759   3.105   1.489  0.8831  0.0519  0.0961
 4446TIP3    H134901   1.684   3.156   1.520  0.5003  0.6512 -1.7147
 4446TIP3    H234902   1.820   3.171   1.456  1.9876 -0.4705  1.0267
 4447TIP3   OH234903   2.609   6.330   6.233 -0.1012 -0.2873  0.6481
 4447TIP3    H134904   2.648   6.389   6.169  1.5687 -3.4998 -1.5822
 4447TIP3    H234905   2.683   6.293   6.280 -1.0556 -0.8172  1.7918
 4448TIP3   OH234906   0.450   6.070   6.944  0.8439 -0.0977  0.6039
 4448TIP3    H134907   0.508   6.113   7.007  1.8492 -1.8089  0.9030
 4448TIP3    H234908   0.445   5.979   6.975  1.2600 -0.9599 -1.6786
 4449TIP3   OH234909   4.972   6.387   8.322  0.0168  0.0737 -0.0494
 4449TIP3    H134910   5.063   6.390   8.294 -0.1458  0.4785 -0.5443
 4449TIP3    H234911   4.975   6.390   8.417  0.4561  1.6119 -0.0991
 4450TIP3   OH234912   4.747   5.369   0.054  0.0408  0.0799 -0.2130
 4450TIP3    H134913   4.789   5.455   0.059 -0.6744  0.4512 -0.4544
 4450TIP3    H234914   4.816   5.311   0.022  1.1734  0.1008  2.0242
 4451TIP3   OH234915   2.040   3.100   0.076  0.2407  0.1926  0.0275
 4451TIP3    H134916   2.088   3.180   0.051  0.8192 -0.6675 -1.7990
 4451TIP3    H234917   2.070   3.081   0.165 -0.2450  2.2192  0.7009
 4452TIP3   OH234918   0.226   1.700   7.700  0.2667  0.0211  0.0677
 4452TIP3    H134919   0.163   1.632   7.723  0.6968  0.1213  1.6821
 4452TIP3    H234920   0.220   1.707   7.605 -2.5429  0.3997  0.1793
 4453TIP3   OH234921   5.165   2.301   0.678 -0.0276  1.0518  0.2282
 4453TIP3    H134922   5.132   2.246   0.607 -0.1326  0.0025  1.0726
 4453TIP3    H234923   5.245   2.257   0.707  0.0974  1.5588  0.6657
 4454TIP3   OH234924   4.680   5.292   0.383 -0.7081  0.2715  0.0471
 4454TIP3    H134925   4.770   5.320   0.401  0.5680 -2.7533 -0.9264
 4454TIP3    H234926   4.672   5.295   0.288 -1.2455 -0.4611  0.0576
 4455TIP3   OH234927   4.528   6.242   1.653 -0.0761  0.1907 -0.0022
 4455TIP3    H134928   4.451   6.300   1.653  0.8087  1.4316  0.8228
 4455TIP3    H234929   4.531   6.206   1.564 -1.9407 -0.3601  0.1289
 4456TIP3   OH234930   1.193   6.118   7.320  0.1680  0.2737 -0.1388
 4456TIP3    H134931   1.193   6.146   7.412 -0.9470 -0.8574  0.2332
 4456TIP3    H234932   1.285   6.115   7.296  0.4358  1.6122  0.6129
 4457TIP3   OH234933   6.089   5.754   7.259  0.6555  0.0597 -0.2431
 4457TIP3    H134934   6.157   5.766   7.193 -1.0743  0.6421 -2.0089
 4457TIP3    H234935   6.029   5.828   7.245 -3.0733 -3.0014 -2.2460
 4458TIP3   OH234936   5.351   6.911   7.312  0.2706  0.0928  0.1290
 4458TIP3    H134937   5.410   6.913   7.237  1.0521  1.4291  0.7491
 4458TIP3    H234938   5.269   6.949   7.279  0.0900 -0.7429 -0.4329
 4459TIP3   OH234939   2.088   6.820   0.901  0.2417 -0.3950 -0.0202
 4459TIP3    H134940   2.132   6.761   0.962 -0.3569 -0.9434 -0.1091
 4459TIP3    H234941   2.033   6.876   0.956  2.6835  1.8419  0.3415
 4460TIP3   OH234942   0.472   6.159   0.942  0.5201  0.2831  0.3412
 4460TIP3    H134943   0.514   6.092   0.888 -2.1879 -0.8289 -0.5813
 4460TIP3    H234944   0.450   6.114   1.024  2.8797  1.4344  1.6893
 4461TIP3   OH234945   3.838   4.992   2.186  0.0575 -0.1600  0.0667
 4461TIP3    H134946   3.792   5.072   2.164 -0.3708 -0.4760 -0.2106
 4461TIP3    H234947   3.916   5.021   2.234 -0.0254  0.4212 -0.1437
 4462TIP3   OH234948   1.126   3.285   0.802 -0.3035  0.1907  0.3349
 4462TIP3    H134949   1.220   3.302   0.811  0.1994 -1.8324 -0.5844
 4462TIP3    H234950   1.092   3.290   0.891  1.2182 -1.7644  1.1009
 4463TIP3   OH234951   1.776   6.454   0.140 -0.2694 -0.2216  0.1581
 4463TIP3    H134952   1.855   6.475   0.191 -0.0216  1.3042 -0.7804
 4463TIP3    H234953   1.704   6.464   0.202 -0.0302  2.2488  0.1229
 4464TIP3   OH234954   2.857   0.239   7.153  0.5851 -0.4569 -0.4750
 4464TIP3    H134955   2.875   0.256   7.060  1.8387 -2.2462 -0.6111
 4464TIP3    H234956   2.884   0.319   7.198  1.4134 -0.1402 -1.5077
 4465TIP3   OH234957   2.539   4.949   6.113  0.0891 -0.1287  0.9517
 4465TIP3    H134958   2.569   4.907   6.193  2.8202  0.4863  0.3602
 4465TIP3    H234959   2.489   5.026   6.143 -0.4166 -0.8486  2.0154
 4466TIP3   OH234960   5.320   1.767   1.652  0.0885 -0.0853 -0.8831
 4466TIP3    H134961   5.267   1.697   1.690  1.2942 -0.0303  1.0327
 4466TIP3    H234962   5.259   1.839   1.638 -0.6718 -0.6202 -0.3672
 4467TIP3   OH234963   6.556   4.278   1.293  0.9997  0.0126  0.1590
 4467TIP3    H134964   6.553   4.297   1.386  0.5266  1.3464 -0.0992
 4467TIP3    H234965   6.521   4.189   1.285 -1.8606  0.9465  1.0138
 4468TIP3   OH234966   2.791   1.958   7.296 -0.0051 -0.1721 -0.4043
 4468TIP3    H134967   2.847   1.952   7.374 -2.1444  0.7095  1.3121
 4468TIP3    H234968   2.843   1.918   7.227  3.5169  2.1439  0.5694
 4469TIP3   OH234969   1.837   4.295   1.445 -0.1887  0.2573 -0.6400
 4469TIP3    H134970   1.870   4.252   1.524  0.2116  0.5118 -0.6654
 4469TIP3    H234971   1.861   4.237   1.373  0.5016  0.5934 -0.6921
 4470TIP3   OH234972   5.070   4.894   1.127 -0.0444 -0.2425  0.0136
 4470TIP3    H134973   5.039   4.947   1.200 -2.1078  0.4718 -1.2926
 4470TIP3    H234974   5.009   4.821   1.122 -0.2582  0.0019 -1.2945
 4471TIP3   OH234975   3.147   1.836   1.233  0.1219  0.0700 -0.0447
 4471TIP3    H134976   3.214   1.848   1.301  0.3581 -0.9157 -0.0841
 4471TIP3    H234977   3.077   1.789   1.278  0.3405 -0.7112 -0.5044
 4472TIP3   OH234978   4.060   6.563   0.573 -0.2654 -0.2073 -0.1955
 4472TIP3    H134979   4.049   6.586   0.665 -1.8229  0.9839 -0.6390
 4472TIP3    H234980   4.121   6.629   0.539 -0.3031 -0.1742 -0.1987
 4473TIP3   OH234981   4.695   4.423   7.668 -0.5980  0.3373  0.7644
 4473TIP3    H134982   4.661   4.479   7.598  1.1558  0.6736  0.1332
 4473TIP3    H234983   4.750   4.481   7.721  2.5160 -0.9472 -0.7758
 4474TIP3   OH234984   5.656   5.574   6.720  0.4778 -0.1299 -0.1111
 4474TIP3    H134985   5.597   5.574   6.645  0.8873 -1.1725 -0.4532
 4474TIP3    H234986   5.615   5.633   6.783 -1.1065 -1.0805 -0.2106
 4475TIP3   OH234987   4.925   0.890   1.638  0.0914  0.2895 -0.4115
 4475TIP3    H134988   4.984   0.958   1.607  0.3626 -0.4109 -1.4588
 4475TIP3    H234989   4.982   0.815   1.659 -0.3076  0.0163 -0.2751
 4476TIP3   OH234990   6.588   6.906   0.313 -0.1217 -0.1622 -0.6503
 4476TIP3    H134991   6.644   6.974   0.351  0.4058 -1.2889  0.6568
 4476TIP3    H234992   6.646   6.855   0.257 -0.2263 -0.3236 -0.6123
 4477TIP3   OH234993   3.691   3.703   1.662  0.1583  0.0113  0.4643
 4477TIP3    H134994   3.722   3.750   1.585 -0.3972  0.3837  0.4599
 4477TIP3    H234995   3.621   3.758   1.697 -1.4942 -1.4636 -0.3464
 4478TIP3   OH234996   0.232   4.536   0.235 -0.4115 -0.3862 -0.1461
 4478TIP3    H134997   0.201   4.533   0.145 -0.1226 -1.6564 -0.2167
 4478TIP3    H234998   0.326   4.522   0.229 -0.1862  0.8268  0.2706
 4479TIP3   OH234999   5.237   6.196   8.276 -0.2213  0.0190 -0.7538
 4479TIP3    H135000   5.226   6.263   8.344 -1.9659 -0.0825 -0.9043
 4479TIP3    H235001   5.298   6.236   8.214 -1.4197  1.6288 -0.9828
 4480TIP3   OH235002   5.793   1.636   7.441 -0.3373  0.3938 -0.0958
 4480TIP3    H135003   5.826   1.564   7.495 -0.1666  0.1917 -0.4725
 4480TIP3    H235004   5.773   1.596   7.357 -0.3097  0.7743 -0.2837
 4481TIP3   OH235005   5.543   5.547   0.783 -0.4589  0.0216  0.2111
 4481TIP3    H135006   5.612   5.520   0.844 -1.3078 -0.3796  1.0263
 4481TIP3    H235007   5.583   5.614   0.728  0.8213 -0.8041  0.1114
 4482TIP3   OH235008   6.526   6.702   1.699  0.0790 -0.4229  0.0447
 4482TIP3    H135009   6.580   6.691   1.621  1.8087  1.0123  0.9640
 4482TIP3    H235010   6.511   6.797   1.704 -1.3840 -0.6523  0.5914
 4483TIP3   OH235011   1.332   3.563   6.304  0.2970 -0.4109 -0.2017
 4483TIP3    H135012   1.323   3.473   6.271  1.9816 -0.3376 -0.9506
 4483TIP3    H235013   1.334   3.617   6.225  1.8358  0.0205  0.1003
 4484TIP3   OH235014   1.496   5.786   6.870 -0.3905 -0.0780 -0.2756
 4484TIP3    H135015   1.512   5.879   6.852  0.4998 -0.3679 -1.0419
 4484TIP3    H235016   1.416   5.786   6.923 -1.1226  1.0431 -1.3229
 4485TIP3   OH235017   0.952   1.439   7.476 -0.7905 -0.1752 -0.0495
 4485TIP3    H135018   0.875   1.395   7.512  0.0111  0.0162  2.0346
 4485TIP3    H235019   0.940   1.531   7.499  0.2324 -0.2064  0.6602
 4486TIP3   OH235020   6.130   0.959   2.236  0.2999 -0.2601  0.0409
 4486TIP3    H135021   6.119   0.887   2.174  1.1898  0.2223 -0.6879
 4486TIP3    H235022   6.218   0.948   2.271  1.1180  1.4264 -1.3504
 4487TIP3   OH235023   3.875   2.590   6.919 -0.2209 -0.2307  0.7227
 4487TIP3    H135024   3.971   2.589   6.913 -0.1674  0.4185  1.3985
 4487TIP3    H235025   3.846   2.584   6.828  0.4591 -0.2361  0.4958
 4488TIP3   OH235026   3.287   5.035   7.321 -0.2380 -0.1964 -0.1587
 4488TIP3    H135027   3.213   4.981   7.297 -0.9957  0.4460  0.6348
 4488TIP3    H235028   3.353   5.017   7.255 -1.5990  0.2524 -1.7092
 4489TIP3   OH235029   5.584   1.752   7.566  0.2487  0.2136  0.3346
 4489TIP3    H135030   5.549   1.804   7.493 -0.7423 -1.3305 -0.3456
 4489TIP3    H235031   5.653   1.698   7.526 -1.0927 -1.5022  0.2055
 4490TIP3   OH235032   4.278   5.611   0.999  0.3938 -0.0426 -0.3260
 4490TIP3    H135033   4.344   5.605   0.929  1.7246 -0.6133  0.9282
 4490TIP3    H235034   4.312   5.554   1.069 -2.4653 -2.0868 -0.4096
 4491TIP3   OH235035   6.798   2.900   1.449  0.2181 -0.0152  0.2276
 4491TIP3    H135036   6.754   2.984   1.434 -0.4365 -0.4778 -0.5414
 4491TIP3    H235037   6.824   2.870   1.362  1.5263 -0.0527  0.6137
 4492TIP3   OH235038   6.520   6.024   7.042  0.1393 -0.5344  0.4594
 4492TIP3    H135039   6.519   5.930   7.028 -0.5617 -0.3336 -1.0433
 4492TIP3    H235040   6.496   6.061   6.957 -0.9614  0.9571  1.3700
 4493TIP3   OH235041   1.372   2.467   0.091 -0.3026  0.0162 -0.0166
 4493TIP3    H135042   1.447   2.509   0.134 -0.7914  0.8716  0.0254
 4493TIP3    H235043   1.307   2.537   0.083 -2.1753 -1.2989  2.4150
 4494TIP3   OH235044   2.913   3.297   0.237  0.1227 -0.4768 -0.6108
 4494TIP3    H135045   2.875   3.359   0.299  0.8549  0.5999 -1.2060
 4494TIP3    H235046   3.001   3.329   0.220  0.3513 -1.4032 -1.3257
 4495TIP3   OH235047   1.668   4.446   1.761 -0.5062  0.7568 -0.3936
 4495TIP3    H135048   1.654   4.381   1.692  0.6339 -1.5294  1.4026
 4495TIP3    H235049   1.757   4.429   1.792 -1.2983  1.0492  2.2620
 4496TIP3   OH235050   2.154   2.209   8.293  0.4497  0.2419 -0.1721
 4496TIP3    H135051   2.184   2.136   8.238 -0.5929  1.0219 -1.8612
 4496TIP3    H235052   2.113   2.167   8.368 -0.3130 -0.9496 -1.2108
 4497TIP3   OH235053   0.628   3.095   0.208 -0.3517  0.1959  0.4007
 4497TIP3    H135054   0.631   3.167   0.270 -0.4009  0.3517  0.2246
 4497TIP3    H235055   0.545   3.051   0.226  0.1385 -0.4286  1.1830
 4498TIP3   OH235056   1.109   6.784   7.627  0.0335 -0.0356  0.5136
 4498TIP3    H135057   1.020   6.748   7.621 -0.3407  1.0839 -1.2329
 4498TIP3    H235058   1.097   6.878   7.630  1.1679  0.2598 -1.8203
 4499TIP3   OH235059   5.474   4.315   8.074 -0.5862 -0.0993 -0.1031
 4499TIP3    H135060   5.442   4.404   8.058 -0.7600 -0.1683 -0.1369
 4499TIP3    H235061   5.415   4.259   8.024 -0.1768 -0.1991 -0.4814
 4500TIP3   OH235062   5.738   4.329   8.047 -0.1752  0.1169  0.0987
 4500TIP3    H135063   5.643   4.324   8.052 -0.1053 -0.8318  0.8337
 4500TIP3    H235064   5.760   4.415   8.083 -0.8123  0.8915 -1.2986
 4501TIP3   OH235065   3.841   6.917   1.407  0.3985 -0.2352 -0.7591
 4501TIP3    H135066   3.786   6.919   1.329 -0.7776 -1.0573  0.0098
 4501TIP3    H235067   3.795   6.973   1.470  0.7551 -0.4563 -0.2940
 4502TIP3   OH235068   4.517   3.982   1.238 -0.4733 -0.2824  0.3324
 4502TIP3    H135069   4.510   4.014   1.148  0.3164 -0.8877  0.0537
 4502TIP3    H235070   4.525   3.887   1.230  3.1152 -0.1408  0.8055
 4503TIP3   OH235071   3.051   1.201   1.032 -0.9086  0.2417  0.1576
 4503TIP3    H135072   3.038   1.108   1.053 -2.2546  0.2711 -0.4167
 4503TIP3    H235073   3.145   1.209   1.018 -0.5373 -0.6726  1.8380
 4504TIP3   OH235074   3.873   4.524   2.140 -0.1076  0.3520 -1.0671
 4504TIP3    H135075   3.930   4.516   2.217 -0.1279  3.1584 -0.6608
 4504TIP3    H235076   3.917   4.473   2.072  0.4580 -1.3211  0.4644
 4505TIP3   OH235077   3.588   1.129   2.003 -0.1927  0.1759 -0.4427
 4505TIP3    H135078   3.574   1.038   2.026 -0.2766  0.4494  0.6596
 4505TIP3    H235079   3.676   1.132   1.966  0.9810  0.0525  2.1111
 4506TIP3   OH235080   1.161   5.183   6.063  0.3592  0.6216 -0.2030
 4506TIP3    H135081   1.231   5.120   6.079 -0.8549 -0.8145 -0.3375
 4506TIP3    H235082   1.204   5.257   6.020  1.8648 -0.0118  0.1759
 4507TIP3   OH235083   4.799   0.826   1.954 -0.3001 -0.2899  0.0937
 4507TIP3    H135084   4.814   0.829   2.048  0.0966  1.8366 -0.0043
 4507TIP3    H235085   4.830   0.739   1.928 -0.0654 -0.7679  1.8485
 4508TIP3   OH235086   5.467   6.723   7.812 -0.4752 -0.5086 -0.0785
 4508TIP3    H135087   5.561   6.714   7.792 -0.4384  1.6775 -1.1614
 4508TIP3    H235088   5.424   6.686   7.735 -0.4361  0.8153 -0.7601
 4509TIP3   OH235089   4.124   6.597   1.703  0.2952  0.4009 -0.0733
 4509TIP3    H135090   4.088   6.619   1.789  0.2492  0.0189  0.0061
 4509TIP3    H235091   4.063   6.636   1.641 -0.4039 -0.4665  0.0560
 4510TIP3   OH235092   0.441   6.290   0.329  0.1397 -0.5461  0.0037
 4510TIP3    H135093   0.477   6.378   0.320  0.2664 -0.4984  0.8836
 4510TIP3    H235094   0.349   6.303   0.349  0.3439 -0.5864  0.9960
 4511TIP3   OH235095   3.945   3.063   1.267 -0.3755 -0.5837  0.0249
 4511TIP3    H135096   3.862   3.033   1.302 -0.6664  1.3260  1.0923
 4511TIP3    H235097   3.922   3.130   1.202  0.2799  1.5980  1.9102
 4512TIP3   OH235098   6.793   0.261   7.754  0.0883 -0.5859  0.6413
 4512TIP3    H135099   6.875   0.244   7.707  0.0042 -0.2595  0.3658
 4512TIP3    H235100   6.725   0.250   7.687  0.1003  2.0751  0.0659
 4513TIP3   OH235101   0.881   1.227   0.594 -0.3443 -0.4597 -0.2613
 4513TIP3    H135102   0.938   1.152   0.612 -0.6111 -0.2582  1.5936
 4513TIP3    H235103   0.809   1.219   0.656 -0.0716  1.6396  0.4244
 4514TIP3   OH235104   5.328   3.365   8.364  0.0312 -0.0228  0.5191
 4514TIP3    H135105   5.362   3.453   8.352  0.6337 -0.2869  0.2582
 4514TIP3    H235106   5.261   3.374   8.431 -0.4466  0.7628 -0.0488
 4515TIP3   OH235107   5.199   1.071   0.559 -0.6243  0.3991  0.7070
 4515TIP3    H135108   5.249   1.153   0.564  3.0591 -1.5943  0.0739
 4515TIP3    H235109   5.153   1.077   0.475  0.1839  1.4949  0.3138
 4516TIP3   OH235110   3.921   5.073   0.600 -0.3300 -0.3363 -0.4304
 4516TIP3    H135111   4.008   5.092   0.566  0.1226  0.0579  0.8956
 4516TIP3    H235112   3.873   5.156   0.593 -1.5030 -1.1142 -3.5263
 4517TIP3   OH235113   2.042   4.648   0.203  0.0444  0.3083 -0.0294
 4517TIP3    H135114   2.026   4.621   0.293  0.0031 -0.5978 -0.2972
 4517TIP3    H235115   1.955   4.650   0.162  0.1263  0.0622 -0.2204
 4518TIP3   OH235116   1.925   4.528   8.193 -0.2444 -0.1317 -0.0697
 4518TIP3    H135117   1.903   4.568   8.109  0.6679  1.5845  0.4663
 4518TIP3    H235118   1.889   4.439   8.187 -2.4031  0.7449 -1.2832
 4519TIP3   OH235119   5.898   1.637   8.398 -0.3013 -0.1564  0.6273
 4519TIP3    H135120   5.921   1.627   8.306 -0.5189  0.3005  0.5250
 4519TIP3    H235121   5.826   1.700   8.399  0.2908  0.5317  1.1844
 4520TIP3   OH235122   6.032   6.668   0.920  1.1315 -0.1045 -0.1062
 4520TIP3    H135123   6.032   6.582   0.878  0.1159 -2.2635  3.8118
 4520TIP3    H235124   6.109   6.667   0.977  2.1072  2.3968 -1.2583
 4521TIP3   OH235125   2.787   0.349   8.347  0.0405  0.1402  1.0608
 4521TIP3    H135126   2.767   0.443   8.342  0.3626  0.1478 -1.7901
 4521TIP3    H235127   2.882   0.345   8.344  0.0074 -0.2571 -0.1537
 4522TIP3   OH235128   1.443   1.677   7.646  0.1049  0.0085  0.5449
 4522TIP3    H135129   1.512   1.650   7.707 -0.9697 -1.4525  1.1836
 4522TIP3    H235130   1.364   1.682   7.700 -1.2699 -3.0238 -0.8957
 4523TIP3   OH235131   4.495   6.153   0.481  0.3644  0.3362  0.2019
 4523TIP3    H135132   4.556   6.188   0.545  1.1748  1.6625 -1.2093
 4523TIP3    H235133   4.408   6.168   0.519  0.8581 -0.8534  1.8804
 4524TIP3   OH235134   1.221   0.937   0.194  0.4537 -0.2179  0.2988
 4524TIP3    H135135   1.227   0.928   0.289  0.1245 -0.7553  0.2765
 4524TIP3    H235136   1.127   0.942   0.176  0.5391  1.1761  0.0986
 4525TIP3   OH235137   3.654   5.055   7.309  0.1601 -0.3037 -0.3066
 4525TIP3    H135138   3.625   5.097   7.390  1.9909  1.7607 -0.6066
 4525TIP3    H235139   3.575   5.050   7.255 -0.3560  2.0413  0.1198
 4526TIP3   OH235140   0.532   2.815   1.021 -0.5131 -0.2000 -0.0085
 4526TIP3    H135141   0.462   2.780   1.077 -0.2338  1.1950  1.2673
 4526TIP3    H235142   0.610   2.766   1.046 -0.2693  0.7827  1.2868
 4527TIP3   OH235143   2.085   0.204   7.314 -0.0001  0.2510 -0.0097
 4527TIP3    H135144   2.094   0.278   7.375  1.2818 -0.5964  0.8986
 4527TIP3    H235145   2.039   0.240   7.239  2.3755  2.5414 -0.5193
 4528TIP3   OH235146   0.946   6.627   1.380 -0.1296  0.3069  0.6735
 4528TIP3    H135147   0.965   6.663   1.294 -0.2259  1.4780  1.1259
 4528TIP3    H235148   1.030   6.633   1.428 -0.2450  0.2846  0.8811
 4529TIP3   OH235149   0.389   6.790   7.248  0.4855 -0.6493  0.2227
 4529TIP3    H135150   0.448   6.716   7.231  2.5150  1.1527 -1.2774
 4529TIP3    H235151   0.443   6.868   7.232 -2.1837  1.1660 -0.7963
 4530TIP3   OH235152   5.475   1.327   6.151 -0.2132 -0.1424 -0.1658
 4530TIP3    H135153   5.559   1.373   6.157  0.5297 -1.2495 -1.3618
 4530TIP3    H235154   5.490   1.259   6.085 -2.0725 -0.3558 -0.4278
 4531TIP3   OH235155   5.682   6.685   2.090  0.0634  0.1339  0.3520
 4531TIP3    H135156   5.631   6.625   2.145 -0.8285  1.2074  0.7262
 4531TIP3    H235157   5.632   6.692   2.009  0.3454  0.1052  0.1750
 4532TIP3   OH235158   6.793   6.973   6.426 -0.4248 -0.2007 -0.0928
 4532TIP3    H135159   6.798   6.878   6.417  0.8811 -0.0757 -0.9650
 4532TIP3    H235160   6.744   7.002   6.349  0.9307 -0.0279 -0.9177
 4533TIP3   OH235161   5.374   2.484   1.641 -0.2877  0.3312 -0.7821
 4533TIP3    H135162   5.451   2.495   1.696  0.0241  2.2488 -1.5509
 4533TIP3    H235163   5.338   2.399   1.667  0.0667  0.9607  2.1007
 4534TIP3   OH235164   2.004   3.869   0.826 -0.5097 -0.5939  0.2966
 4534TIP3    H135165   2.060   3.942   0.801  1.0136 -0.2629  4.0639
 4534TIP3    H235166   2.049   3.792   0.792  2.4556 -0.3312  3.1587
 4535TIP3   OH235167   6.224   3.548   0.717  0.1626  0.3099  0.2344
 4535TIP3    H135168   6.219   3.456   0.690 -3.8461 -0.0230  1.4352
 4535TIP3    H235169   6.243   3.545   0.811 -0.8314  0.5928  0.4630
 4536TIP3   OH235170   3.155   3.638   8.398  0.2318 -0.2279  0.1709
 4536TIP3    H135171   3.062   3.629   8.376  0.7558 -2.4042 -1.4995
 4536TIP3    H235172   3.191   3.694   8.330  0.1760  0.5378  0.7650
 4537TIP3   OH235173   6.813   1.717   7.204  0.2437 -0.7115  0.2765
 4537TIP3    H135174   6.855   1.776   7.141 -2.7988  0.1556 -1.1133
 4537TIP3    H235175   6.759   1.774   7.258 -0.8527 -1.9430  0.5243
 4538TIP3   OH235176   5.729   2.381   1.532 -0.0035  0.7770  0.1404
 4538TIP3    H135177   5.788   2.412   1.600  0.8169 -0.3546 -0.0291
 4538TIP3    H235178   5.776   2.395   1.450  0.4610 -0.9955  0.0704
 4539TIP3   OH235179   1.311   1.769   1.281 -0.1975 -0.3620 -0.0895
 4539TIP3    H135180   1.329   1.857   1.248  1.1767 -1.8481 -3.8783
 4539TIP3    H235181   1.216   1.759   1.272 -0.5222  1.0162  1.4038
 4540TIP3   OH235182   5.827   2.463   7.148  0.2094 -0.4040  0.2750
 4540TIP3    H135183   5.901   2.415   7.110 -0.1256 -0.1667 -0.7226
 4540TIP3    H235184   5.824   2.545   7.099 -0.8402 -0.5031  0.1265
 4541TIP3   OH235185   4.340   6.406   0.705 -0.3982  0.2480  0.3082
 4541TIP3    H135186   4.305   6.323   0.737 -1.3747  0.7553  0.5763
 4541TIP3    H235187   4.426   6.413   0.746 -1.0690  0.2358  1.7628
 4542TIP3   OH235188   4.946   4.344   8.073 -0.4617 -0.3576 -0.3270
 4542TIP3    H135189   5.004   4.281   8.116  0.0041  0.5913  0.4574
 4542TIP3    H235190   4.874   4.290   8.038  0.2130 -1.3833 -0.1674
 4543TIP3   OH235191   1.204   6.360   8.162 -0.3568  0.2660 -0.5313
 4543TIP3    H135192   1.220   6.309   8.242 -1.0469 -0.0938 -0.6177
 4543TIP3    H235193   1.291   6.383   8.131 -0.0689  1.7692  1.1850
 4544TIP3   OH235194   6.416   3.835   1.926  0.2945 -0.1980 -0.3405
 4544TIP3    H135195   6.495   3.868   1.884  0.4789 -1.7827 -1.2937
 4544TIP3    H235196   6.440   3.822   2.018  1.1828 -0.8138 -0.6569
 4545TIP3   OH235197   6.559   3.202   1.971  0.0497 -0.3555  0.0844
 4545TIP3    H135198   6.612   3.129   2.004  3.7276  0.8390 -2.5567
 4545TIP3    H235199   6.583   3.276   2.027  1.4911  0.2376 -1.2465
 4546TIP3   OH235200   0.108   2.144   0.599 -0.1964  0.5064 -0.4162
 4546TIP3    H135201   0.091   2.191   0.681  0.6757  1.7453 -0.9055
 4546TIP3    H235202   0.045   2.181   0.537 -0.8040 -0.3758 -0.3366
 4547TIP3   OH235203   0.154   3.628   5.854 -0.0241  0.0411 -0.1381
 4547TIP3    H135204   0.194   3.709   5.885  0.6963 -0.6508  0.8119
 4547TIP3    H235205   0.223   3.562   5.864 -0.1928 -0.4764 -2.0328
 4548TIP3   OH235206   4.481   0.814   0.342  0.2574 -0.1948 -0.2839
 4548TIP3    H135207   4.525   0.764   0.411 -0.9686  0.9862  1.4468
 4548TIP3    H235208   4.439   0.748   0.287  0.4882 -1.1409  0.6486
 4549TIP3   OH235209   1.656   6.034   8.321  0.0561 -0.2374  0.2116
 4549TIP3    H135210   1.683   5.993   8.403  1.8205 -2.5271 -1.3833
 4549TIP3    H235211   1.730   6.020   8.262 -1.8552 -0.3862 -2.3236
 4550TIP3   OH235212   2.377   1.649   0.203  0.4100  0.1733  0.3372
 4550TIP3    H135213   2.469   1.676   0.206 -0.0347  1.6707  1.7923
 4550TIP3    H235214   2.374   1.566   0.250  0.8638  0.6248  1.1671
 4551TIP3   OH235215   5.892   1.402   7.124  0.3979  0.2673  0.5329
 4551TIP3    H135216   5.891   1.320   7.076  0.3799  0.9507 -0.6758
 4551TIP3    H235217   5.815   1.449   7.094  0.0188  0.4629  1.7335
 4552TIP3   OH235218   6.936   4.275   6.210  0.1193 -0.0925  0.6217
 4552TIP3    H135219   7.008   4.212   6.214  0.5326  0.3761  0.5107
 4552TIP3    H235220   6.866   4.227   6.164 -0.1247 -1.0024  1.8936
 4553TIP3   OH235221   0.071   1.147   0.311 -0.1561  0.0120 -0.0649
 4553TIP3    H135222   0.060   1.136   0.217  0.8451 -1.3469 -0.0718
 4553TIP3    H235223   0.132   1.221   0.320 -0.5965  0.4252 -0.4559
 4554TIP3   OH235224   2.513   4.188   1.330  0.1455  0.2191  0.4822
 4554TIP3    H135225   2.553   4.104   1.349  0.6287  0.4119  0.3406
 4554TIP3    H235226   2.538   4.244   1.404 -0.0048  0.2954  0.4763
 4555TIP3   OH235227   2.319   0.013   7.482  0.5317 -0.6107 -0.8126
 4555TIP3    H135228   2.377  -0.011   7.410  1.9532  3.5703 -1.3125
 4555TIP3    H235229   2.247   0.061   7.441  2.1344  3.2008  0.3792
 4556TIP3   OH235230   5.647   3.497   8.034  0.2045 -0.2241  0.0985
 4556TIP3    H135231   5.691   3.445   7.966  0.5052 -0.4756  0.4795
 4556TIP3    H235232   5.621   3.577   7.989  2.4202  0.6220  0.1921
 4557TIP3   OH235233   6.395   1.998   6.293  0.3559 -0.1459  0.0018
 4557TIP3    H135234   6.328   1.930   6.300  0.4886 -0.6251 -2.6081
 4557TIP3    H235235   6.478   1.951   6.299  0.4977  0.2318  1.4173
 4558TIP3   OH235236   4.487   6.484   1.291 -0.0046  0.0774 -0.0024
 4558TIP3    H135237   4.498   6.402   1.340 -0.2227 -0.6689 -1.1673
 4558TIP3    H235238   4.509   6.553   1.354  0.6820 -0.8974  0.8508
 4559TIP3   OH235239   3.175   0.086   1.568  0.4494 -0.6242  0.6095
 4559TIP3    H135240   3.225   0.035   1.632 -0.3094 -1.1742  0.7769
 4559TIP3    H235241   3.091   0.103   1.612  0.8137  1.1260  0.7245
 4560TIP3   OH235242   2.795   3.181   7.141  0.1947  0.1524 -0.0899
 4560TIP3    H135243   2.714   3.208   7.098  0.7413  1.5379 -0.3073
 4560TIP3    H235244   2.863   3.200   7.076  0.7423 -0.5299  0.2750
 4561TIP3   OH235245   0.560   6.544   0.357 -0.2725 -0.5847  0.0984
 4561TIP3    H135246   0.625   6.602   0.398 -2.6192  0.6106  2.4720
 4561TIP3    H235247   0.492   6.604   0.326 -1.1474 -1.9156 -0.6067
 4562TIP3   OH235248   5.869   4.857   0.942  0.3565 -0.2684 -0.4034
 4562TIP3    H135249   5.864   4.940   0.990  0.4454 -0.1008 -0.6803
 4562TIP3    H235250   5.927   4.802   0.995  1.2076  0.2397 -0.7902
 4563TIP3   OH235251   5.130   1.914   7.617  0.0602  0.3322 -0.6655
 4563TIP3    H135252   5.147   2.007   7.610 -0.5524  0.6096  1.1083
 4563TIP3    H235253   5.097   1.889   7.531  0.9149  1.5793 -1.3813
 4564TIP3   OH235254   6.174   0.570   0.169 -0.0739 -0.1192 -0.2238
 4564TIP3    H135255   6.155   0.495   0.226 -0.3157 -2.0814 -2.7260
 4564TIP3    H235256   6.088   0.602   0.142  0.0547 -0.0067 -0.4964
 4565TIP3   OH235257   2.672   5.151   6.842 -0.1206 -0.1098 -0.2867
 4565TIP3    H135258   2.726   5.082   6.804  0.4290  0.6503 -0.9432
 4565TIP3    H235259   2.722   5.231   6.826 -1.3793  0.6074 -0.7900
 4566TIP3   OH235260   1.199   6.461   6.889 -0.0557  0.0137 -0.0783
 4566TIP3    H135261   1.258   6.525   6.848  1.3428 -0.1154  1.6210
 4566TIP3    H235262   1.130   6.515   6.927 -1.0684  0.1739 -2.0194
 4567TIP3   OH235263   3.414   0.909   6.651 -0.0493  0.0418  0.5006
 4567TIP3    H135264   3.387   0.971   6.719 -0.4300  0.0441  0.3481
 4567TIP3    H235265   3.401   0.957   6.569  0.2728 -0.0114  0.4194
 4568TIP3   OH235266   2.193   2.711   2.221  0.7015 -0.4798 -0.3263
 4568TIP3    H135267   2.132   2.773   2.261 -1.4597 -1.3449 -2.0424
 4568TIP3    H235268   2.272   2.762   2.203 -1.3879  2.2183 -2.7972
 4569TIP3   OH235269   6.779   3.137   1.042 -0.2313 -0.5366 -0.0962
 4569TIP3    H135270   6.844   3.164   1.107  0.2521 -0.3483 -0.6468
 4569TIP3    H235271   6.770   3.214   0.985 -0.7023 -0.6758 -0.2124
 4570TIP3   OH235272   6.779   2.530   8.174 -0.0135  0.0074  0.0969
 4570TIP3    H135273   6.766   2.622   8.150 -0.3805 -0.6301 -2.3222
 4570TIP3    H235274   6.696   2.505   8.215 -0.9130  0.0663 -1.6189
 4571TIP3   OH235275   3.219   2.446   8.067 -0.5048  0.5178  0.9262
 4571TIP3    H135276   3.218   2.351   8.055  1.6301  0.6595 -1.2135
 4571TIP3    H235277   3.156   2.479   8.004  1.0995  0.6231 -0.6838
 4572TIP3   OH235278   3.249   2.026   8.318  0.2507  0.0570 -0.0036
 4572TIP3    H135279   3.273   2.050   8.408  1.0186  1.6184 -0.5955
 4572TIP3    H235280   3.160   1.991   8.326  0.4164 -0.1122  1.4058
 4573TIP3   OH235281   6.172   2.265   0.166 -0.2900 -0.5240 -0.1501
 4573TIP3    H135282   6.183   2.255   0.260  0.6984 -0.3131 -0.2285
 4573TIP3    H235283   6.220   2.346   0.145 -0.3260 -0.6781 -0.8566
 4574TIP3   OH235284   6.253   1.098   6.509  0.3438 -0.2699  0.1130
 4574TIP3    H135285   6.313   1.046   6.454  0.7018 -0.0868  0.3230
 4574TIP3    H235286   6.172   1.047   6.510  0.0813  0.0922 -1.1830
 4575TIP3   OH235287   0.346   2.919   0.517  0.0445  0.3180  0.5871
 4575TIP3    H135288   0.375   2.974   0.590  1.4717 -0.5041  0.6718
 4575TIP3    H235289   0.404   2.942   0.445  0.1691 -0.5235  0.4058
 4576TIP3   OH235290   0.022   6.223   1.398 -0.2632  0.0674 -0.0360
 4576TIP3    H135291   0.013   6.264   1.483  0.2012 -0.8187  0.4551
 4576TIP3    H235292  -0.001   6.131   1.412  0.2752 -0.1967 -0.7528
 4577TIP3   OH235293   0.681   3.272   7.207 -0.4791 -0.0209  0.9942
 4577TIP3    H135294   0.656   3.190   7.164 -2.1012  1.8474 -1.9520
 4577TIP3    H235295   0.598   3.315   7.228  0.2987  1.3720  1.3466
 4578TIP3   OH235296   3.010   3.252   6.993 -0.1027  0.1362  0.1111
 4578TIP3    H135297   3.083   3.252   7.054  1.5316  0.3067 -1.7466
 4578TIP3    H235298   3.030   3.323   6.932 -2.8989  1.5895  0.6944
 4579TIP3   OH235299   1.290   1.238   7.325  0.5328 -0.7271 -0.2180
 4579TIP3    H135300   1.242   1.308   7.281 -0.0081 -1.3963 -0.7315
 4579TIP3    H235301   1.365   1.220   7.268  0.9473 -0.2334  0.1677
 4580TIP3   OH235302   2.969   6.632   6.571 -0.2716 -0.4473 -0.4008
 4580TIP3    H135303   2.955   6.620   6.477  2.4455 -0.3310 -0.8838
 4580TIP3    H235304   3.030   6.563   6.596  0.7029  0.7897  0.7957
 4581TIP3   OH235305   4.599   4.372   0.977  0.2838 -0.0448 -0.1402
 4581TIP3    H135306   4.684   4.362   1.022 -1.3232 -2.5286  2.7215
 4581TIP3    H235307   4.553   4.438   1.029 -0.3916 -0.4997 -0.1501
 4582TIP3   OH235308   4.281   1.000   0.800  0.0650 -0.7464 -0.1118
 4582TIP3    H135309   4.227   0.923   0.779 -1.3183  0.1957 -0.1766
 4582TIP3    H235310   4.364   0.964   0.831  0.0805 -2.2426 -1.7332
 4583TIP3   OH235311   2.137   5.061   6.851 -0.4254 -0.6896 -0.5095
 4583TIP3    H135312   2.043   5.059   6.873 -0.1204 -0.9608  0.8697
 4583TIP3    H235313   2.176   5.116   6.919  0.5510 -1.3206 -0.5458
 4584TIP3   OH235314   2.516   5.504   8.258 -0.8737  0.5866 -0.1592
 4584TIP3    H135315   2.439   5.519   8.204 -0.3177  0.4255 -1.0018
 4584TIP3    H235316   2.483   5.511   8.348 -1.4155  2.9722 -0.4843
 4585TIP3   OH235317   1.468   1.332   1.572  0.1109 -0.0312  0.9002
 4585TIP3    H135318   1.422   1.392   1.515  1.2579  0.0835  0.0726
 4585TIP3    H235319   1.409   1.320   1.647 -1.7305 -0.7327 -0.5900
 4586TIP3   OH235320   2.744   5.781   7.053 -0.0442 -0.2437  0.4132
 4586TIP3    H135321   2.687   5.720   7.007 -0.2220  0.7153 -0.6839
 4586TIP3    H235322   2.825   5.781   7.003 -1.2715  3.1394 -1.9230
 4587TIP3   OH235323   0.656   5.690   1.174  0.4574 -0.7511 -0.6374
 4587TIP3    H135324   0.672   5.749   1.248 -0.3911 -1.0828 -0.1804
 4587TIP3    H235325   0.724   5.623   1.182  0.4121 -0.7471 -0.1983
 4588TIP3   OH235326   5.008   3.886   8.222  0.1082 -0.0442  0.4132
 4588TIP3    H135327   5.054   3.856   8.143 -0.8588  0.9108 -0.5536
 4588TIP3    H235328   4.962   3.809   8.254  1.9180 -0.9005  1.1195
 4589TIP3   OH235329   1.898   0.166   0.200  0.1471 -0.1573  0.2515
 4589TIP3    H135330   1.912   0.176   0.106  0.7869 -1.1879  0.2228
 4589TIP3    H235331   1.984   0.182   0.239 -0.0975  0.1998  0.6650
 4590TIP3   OH235332   1.515   4.026   0.386  0.4762 -0.2935 -0.4638
 4590TIP3    H135333   1.421   4.032   0.405  0.6536 -2.0630  1.3538
 4590TIP3    H235334   1.530   4.091   0.318 -1.9577  0.4367 -0.4015
 4591TIP3   OH235335   5.533   1.254   7.984 -0.1969 -0.2642 -0.2800
 4591TIP3    H135336   5.485   1.278   7.904 -0.0834  0.0709 -0.2469
 4591TIP3    H235337   5.613   1.213   7.952  0.1337  0.4187 -0.3480
 4592TIP3   OH235338   1.299   1.490   6.794 -0.0551 -0.1721  0.2130
 4592TIP3    H135339   1.356   1.424   6.756  0.3519 -1.3669  2.6830
 4592TIP3    H235340   1.327   1.572   6.753  0.7608 -1.2548 -1.4832
 4593TIP3   OH235341   6.553   5.641   8.022 -0.4427  0.5176  0.6080
 4593TIP3    H135342   6.577   5.598   8.104 -0.7075  0.2248  0.5365
 4593TIP3    H235343   6.492   5.710   8.048 -0.2572  0.6486  0.6934
 4594TIP3   OH235344   1.255   1.320   7.636 -0.1575 -0.1983 -0.2485
 4594TIP3    H135345   1.345   1.298   7.662 -0.5061 -0.7634  0.4866
 4594TIP3    H235346   1.249   1.292   7.545  0.8371  1.0962 -0.7467
 4595TIP3   OH235347   6.095   3.271   1.426 -0.5053 -0.0750  0.2312
 4595TIP3    H135348   6.114   3.228   1.509  1.1102  1.4671  0.7183
 4595TIP3    H235349   6.036   3.211   1.381 -0.0813 -1.7307  1.7673
 4596TIP3   OH235350   4.381   1.874   0.296 -0.0420  0.2526 -0.2057
 4596TIP3    H135351   4.368   1.967   0.313  1.7581  0.4976 -0.0244
 4596TIP3    H235352   4.312   1.830   0.346 -0.8392  1.4565 -0.2024
 4597TIP3   OH235353   4.054   0.587   8.374  0.9885 -0.3793  0.0307
 4597TIP3    H135354   4.119   0.532   8.329 -0.2857 -0.4576 -1.8562
 4597TIP3    H235355   3.987   0.525   8.403  1.6372 -0.2804  1.8306
 4598TIP3   OH235356   0.746   2.724   1.802  0.2683 -0.1297 -1.0039
 4598TIP3    H135357   0.699   2.641   1.802 -2.3677  1.2850 -1.5180
 4598TIP3    H235358   0.758   2.745   1.710  0.9914  0.0653 -0.8743
 4599TIP3   OH235359   1.513   6.782   0.581  0.4068  0.0786 -0.9029
 4599TIP3    H135360   1.558   6.866   0.589 -1.1273  0.8425  0.1540
 4599TIP3    H235361   1.528   6.738   0.664  0.3476 -0.2594 -1.0689
 4600TIP3   OH235362   5.059   5.095   6.166  0.3785 -0.4163 -0.2134
 4600TIP3    H135363   5.011   5.140   6.096  0.7146 -0.4965 -0.4997
 4600TIP3    H235364   5.065   5.004   6.135 -0.0586 -0.6035  0.2342
 4601TIP3   OH235365   2.357   5.787   6.798 -0.0246  0.0137 -0.1727
 4601TIP3    H135366   2.368   5.795   6.703 -1.2692 -0.3133 -0.3749
 4601TIP3    H235367   2.307   5.865   6.822  0.1780  0.0292  0.1907
 4602TIP3   OH235368   6.353   6.911   1.538  0.1001  0.3284 -0.1273
 4602TIP3    H135369   6.382   6.892   1.449 -2.9673  2.0011 -1.6662
 4602TIP3    H235370   6.314   6.829   1.569  1.1745 -0.2568 -0.3029
 4603TIP3   OH235371   5.072   3.605   8.331  0.6053 -0.2649  0.7053
 4603TIP3    H135372   5.038   3.622   8.418  1.3787 -2.4600  1.5125
 4603TIP3    H235373   5.167   3.603   8.342  0.8698  1.7505 -0.6932
 4604TIP3   OH235374   5.077   3.795   1.400 -0.1302  0.2397 -0.0151
 4604TIP3    H135375   5.101   3.702   1.407  0.1335  0.3401  0.4902
 4604TIP3    H235376   5.161   3.841   1.397 -0.2375  0.3982 -1.4258
 4605TIP3   OH235377   6.139   3.340   0.070 -0.1542  0.1104 -1.1167
 4605TIP3    H135378   6.220   3.386   0.051 -0.6619  1.3590 -0.3916
 4605TIP3    H235379   6.075   3.377   0.009  0.0025 -1.5774 -2.3823
 4606TIP3   OH235380   2.668   6.870   7.606  0.4807  0.3395  0.0797
 4606TIP3    H135381   2.671   6.965   7.595 -0.8571  0.4524  0.5571
 4606TIP3    H235382   2.699   6.854   7.694  1.3514  0.2681 -0.2322
 4607TIP3   OH235383   1.571   3.303   6.379  0.3605 -0.2238  0.2058
 4607TIP3    H135384   1.492   3.274   6.335 -0.5861  1.4571  0.6975
 4607TIP3    H235385   1.642   3.253   6.338 -1.1557 -4.0482  1.7891
 4608TIP3   OH235386   4.045   4.921   7.448 -0.7124 -0.1908  0.3952
 4608TIP3    H135387   3.991   4.981   7.397 -0.4601 -0.0674  0.2704
 4608TIP3    H235388   3.983   4.877   7.507 -0.8004  0.7134  1.0018
 4609TIP3   OH235389   2.439   1.864   1.075  0.4048 -0.3365 -0.1681
 4609TIP3    H135390   2.505   1.801   1.104 -1.1067 -2.0947 -0.4181
 4609TIP3    H235391   2.411   1.832   0.990 -1.1342  0.0812  0.1594
 4610TIP3   OH235392   6.463   1.593   6.588 -0.2928 -0.3795  0.0484
 4610TIP3    H135393   6.372   1.619   6.573 -0.6143 -0.7137  1.3278
 4610TIP3    H235394   6.512   1.675   6.588 -0.3841 -0.2788 -1.8203
 4611TIP3   OH235395   6.964   4.214   0.062  0.8439 -0.4686 -0.0424
 4611TIP3    H135396   7.025   4.225   0.135 -0.0588 -1.2385  0.8608
 4611TIP3    H235397   6.902   4.287   0.071 -0.5250 -1.7158  1.2841
 4612TIP3   OH235398   2.515   2.380   0.667  0.0308 -0.1990  0.0026
 4612TIP3    H135399   2.574   2.321   0.619 -1.4601 -1.3092 -0.5577
 4612TIP3    H235400   2.486   2.443   0.601  2.2073  1.7584  0.7622
 4613TIP3   OH235401   5.453   5.187   7.217  0.4856  0.6489  0.2991
 4613TIP3    H135402   5.519   5.230   7.162  0.6220  1.3022  0.9614
 4613TIP3    H235403   5.463   5.227   7.303 -1.4236  1.4917  0.1895
 4614TIP3   OH235404   5.859   6.817   1.095 -0.0196 -0.1777 -0.4608
 4614TIP3    H135405   5.791   6.758   1.127  0.8387 -0.5554  0.7604
 4614TIP3    H235406   5.921   6.759   1.049 -1.0638  0.3145 -2.6271
 4615TIP3   OH235407   1.114   2.848   0.827  0.4036  0.0883  0.3542
 4615TIP3    H135408   1.090   2.922   0.882  0.2032  0.0516  0.3179
 4615TIP3    H235409   1.045   2.783   0.843  0.4083  0.0323  0.1479
 4616TIP3   OH235410   0.106   3.378   6.808  0.1737  0.0068 -0.2722
 4616TIP3    H135411   0.182   3.427   6.841 -0.9133  1.6031 -0.0316
 4616TIP3    H235412   0.062   3.345   6.886 -0.9949  1.6251 -0.2078
 4617TIP3   OH235413   3.018   3.642   2.222  0.2703  0.2690 -0.2929
 4617TIP3    H135414   3.088   3.670   2.281  0.0649  0.7890 -0.2911
 4617TIP3    H235415   3.063   3.598   2.151  0.3983 -2.4073  1.3256
 4618TIP3   OH235416   0.994   2.882   0.014 -0.3703  0.0055 -0.4567
 4618TIP3    H135417   1.037   2.967   0.009 -0.8646  0.1686 -2.9779
 4618TIP3    H235418   0.916   2.898   0.068  0.5251  0.6510  0.6982
 4619TIP3   OH235419   5.151   2.164   6.367 -0.2001  0.3446 -0.7478
 4619TIP3    H135420   5.206   2.182   6.290  0.7252 -2.6925 -0.9171
 4619TIP3    H235421   5.063   2.156   6.331  0.2352 -1.1376 -1.5890
 4620TIP3   OH235422   6.295   3.880   7.213 -0.2976 -0.1209  0.0179
 4620TIP3    H135423   6.323   3.970   7.230  0.6441 -0.3584 -0.2143
 4620TIP3    H235424   6.248   3.885   7.130 -1.0872  0.3098  0.4809
 4621TIP3   OH235425   3.274   3.863   6.749  0.1915 -0.8476  0.4024
 4621TIP3    H135426   3.360   3.902   6.766 -0.0053  0.0074 -0.4914
 4621TIP3    H235427   3.248   3.898   6.664 -1.4560 -0.3459  1.0768
 4622TIP3   OH235428   4.313   0.072   7.782  0.1436  0.3083  0.2262
 4622TIP3    H135429   4.373   0.090   7.710 -0.1771  0.8158  0.0823
 4622TIP3    H235430   4.363   0.093   7.861  0.0580  0.9978  0.0952
 4623TIP3   OH235431   5.287   2.688   6.320  0.0163  0.4251  0.1547
 4623TIP3    H135432   5.305   2.782   6.329  1.7490  0.0749  0.8788
 4623TIP3    H235433   5.279   2.656   6.410  1.4406 -0.4261  0.0235
 4624TIP3   OH235434   1.472   4.309   0.630 -0.3493  0.1716  0.5024
 4624TIP3    H135435   1.544   4.269   0.677 -0.3600 -0.1797  0.2239
 4624TIP3    H235436   1.482   4.403   0.645  1.2708  0.3023 -1.0725
 4625TIP3   OH235437   6.742   5.045   6.305  0.2468 -0.3521 -0.0325
 4625TIP3    H135438   6.804   5.117   6.317  0.2756 -0.2354 -0.8231
 4625TIP3    H235439   6.750   5.021   6.213 -2.4545  1.1405 -0.7840
 4626TIP3   OH235440   6.158   4.816   7.698 -0.0797 -0.1308 -0.7074
 4626TIP3    H135441   6.069   4.782   7.706 -0.2697  0.5278  0.0854
 4626TIP3    H235442   6.204   4.750   7.645 -0.9007 -0.7183 -0.7085
 4627TIP3   OH235443   6.529   2.987   0.353  1.3749  0.4390 -0.0432
 4627TIP3    H135444   6.575   2.904   0.348 -1.0163 -1.0658  1.1436
 4627TIP3    H235445   6.517   3.013   0.261  1.4312 -0.9538 -0.4672
 4628TIP3   OH235446   3.282   5.011   0.456 -0.1831 -0.5324 -0.1401
 4628TIP3    H135447   3.360   5.062   0.432  1.0498 -3.0093 -1.9349
 4628TIP3    H235448   3.308   4.963   0.535 -0.4064 -0.2777  0.0872
 4629TIP3   OH235449   4.521   4.217   0.414 -0.0190 -0.2835  0.2521
 4629TIP3    H135450   4.438   4.190   0.453 -1.8212  2.5216 -1.2477
 4629TIP3    H235451   4.573   4.249   0.487 -0.5955 -1.2570  1.1177
 4630TIP3   OH235452   1.848   4.959   6.540  0.2800  0.0008 -0.6890
 4630TIP3    H135453   1.938   4.928   6.527  1.1732  2.1256 -0.0336
 4630TIP3    H235454   1.806   4.890   6.591  1.5885 -0.9542 -0.8404
 4631TIP3   OH235455   3.873   1.353   7.090  0.1413 -0.6888 -0.7533
 4631TIP3    H135456   3.968   1.347   7.088  0.4144  1.2040  1.4799
 4631TIP3    H235457   3.845   1.279   7.143  0.4863 -0.6950 -0.5763
 4632TIP3   OH235458   1.414   2.360   0.376  0.3197 -0.3997  0.1910
 4632TIP3    H135459   1.461   2.438   0.345  1.0901 -0.5398  0.9549
 4632TIP3    H235460   1.322   2.378   0.357  0.5062  0.6167  0.1830
 4633TIP3   OH235461   2.491   4.233   1.605  0.0993 -0.4602 -0.1441
 4633TIP3    H135462   2.574   4.214   1.648 -0.3548 -1.8727  0.1696
 4633TIP3    H235463   2.430   4.250   1.677  0.3316  1.7453 -0.3931
 4634TIP3   OH235464   3.061   1.679   8.369  0.4769  0.1935 -0.0227
 4634TIP3    H135465   2.997   1.631   8.316  1.3238  0.6703 -1.5053
 4634TIP3    H235466   3.009   1.743   8.418 -0.4044 -0.7908  0.3768
 4635TIP3   OH235467   3.641   3.484   7.979 -0.6890  0.0900 -0.3109
 4635TIP3    H135468   3.686   3.426   8.040 -2.0272 -1.0513 -0.3743
 4635TIP3    H235469   3.631   3.431   7.899 -0.5379  0.9584 -0.9212
 4636TIP3   OH235470   5.472   5.767   6.584  0.7452  0.2932  0.1131
 4636TIP3    H135471   5.445   5.683   6.549  3.1843 -0.7400  0.4756
 4636TIP3    H235472   5.530   5.803   6.517  1.2101  0.8000  0.7735
 4637TIP3   OH235473   4.504   5.232   1.845 -0.4218  0.4587  0.4007
 4637TIP3    H135474   4.581   5.283   1.873  0.2258  0.2450 -0.9392
 4637TIP3    H235475   4.431   5.274   1.890  0.7088 -1.3306  4.4742
 4638TIP3   OH235476   6.141   5.229   0.562 -0.3987 -0.3765 -0.9405
 4638TIP3    H135477   6.185   5.168   0.622 -0.9133 -0.4380 -0.6206
 4638TIP3    H235478   6.190   5.311   0.571  1.5987 -1.2552 -2.8778
 4639TIP3   OH235479   1.498   0.205   1.698 -0.1993  0.0455 -0.1574
 4639TIP3    H135480   1.591   0.201   1.675  0.2147 -2.3069  1.5791
 4639TIP3    H235481   1.491   0.284   1.753  0.3228  1.2945 -1.7876
 4640TIP3   OH235482   0.640   5.939   1.539  0.0621 -0.2147 -0.2584
 4640TIP3    H135483   0.563   5.950   1.595  0.2086 -1.8556  0.3099
 4640TIP3    H235484   0.642   5.846   1.518 -0.1715  0.3936 -3.3532
 4641TIP3   OH235485   6.221   1.690   8.312 -0.8774  0.1184  0.1767
 4641TIP3    H135486   6.141   1.702   8.261 -0.3226 -0.4827 -0.8775
 4641TIP3    H235487   6.212   1.603   8.350 -0.5984 -0.0753 -0.1941
 4642TIP3   OH235488   0.899   2.409   1.887 -0.4120  0.3390 -0.7013
 4642TIP3    H135489   0.879   2.344   1.955  1.8976 -1.6920 -1.8206
 4642TIP3    H235490   0.822   2.409   1.830 -0.9942 -0.4207  0.0654
 4643TIP3   OH235491   2.675   0.759   7.686  0.0172  0.1976  0.2652
 4643TIP3    H135492   2.726   0.840   7.687 -0.8386  0.7541  0.0381
 4643TIP3    H235493   2.591   0.783   7.724  0.2758 -0.9629  1.6618
 4644TIP3   OH235494   4.557   2.197   6.132 -0.1940  0.2832 -0.6065
 4644TIP3    H135495   4.503   2.128   6.171 -0.6506  0.6678 -0.5547
 4644TIP3    H235496   4.517   2.279   6.160 -1.5269  0.6195 -3.1526
 4645TIP3   OH235497   1.490   3.732   6.666 -0.4534 -0.5892 -0.3795
 4645TIP3    H135498   1.546   3.661   6.635 -0.3327 -1.2397  1.2222
 4645TIP3    H235499   1.401   3.703   6.646 -0.4748 -1.7301  1.2132
 4646TIP3   OH235500   4.799   6.172   2.362 -0.0947  0.4135  0.3288
 4646TIP3    H135501   4.810   6.160   2.268 -2.0256  1.5296 -0.0880
 4646TIP3    H235502   4.805   6.084   2.399  1.6174  0.0696 -0.7027
 4647TIP3   OH235503   6.110   6.492   6.571 -0.0836 -0.4328 -0.0958
 4647TIP3    H135504   6.081   6.575   6.610 -0.1479 -0.8623  0.7905
 4647TIP3    H235505   6.105   6.429   6.643  3.1650 -0.5329  0.2209
 4648TIP3   OH235506   4.146   6.128   6.640 -0.2853 -0.0677  0.3444
 4648TIP3    H135507   4.156   6.223   6.641 -1.1938  0.0779 -1.2572
 4648TIP3    H235508   4.136   6.106   6.547 -1.5690 -1.5608  0.7989
 4649TIP3   OH235509   4.907   3.215   1.662 -0.1368  0.0807  0.2085
 4649TIP3    H135510   4.974   3.147   1.653  1.6258  1.5316  1.4582
 4649TIP3    H235511   4.846   3.180   1.726  0.3667 -0.6204  0.3188
 4650TIP3   OH235512   5.910   0.104   8.283 -0.3933  0.0489  0.4343
 4650TIP3    H135513   5.987   0.148   8.247  0.4614 -1.1655  0.7086
 4650TIP3    H235514   5.910   0.128   8.376 -0.0550 -0.3450  0.5376
 4651TIP3   OH235515   6.270   4.795   1.360  0.4532 -0.0935 -0.1591
 4651TIP3    H135516   6.311   4.790   1.447  1.0274 -1.8171 -0.4970
 4651TIP3    H235517   6.222   4.877   1.362 -0.4097 -0.5548  2.1961
 4652TIP3   OH235518   5.376   2.771   7.027 -0.3391  0.6850 -0.6210
 4652TIP3    H135519   5.370   2.866   7.036 -1.6913  0.5967 -0.3783
 4652TIP3    H235520   5.285   2.742   7.011 -0.2136 -0.7069  0.8733
 4653TIP3   OH235521   5.444   4.226   7.684  0.6117  0.4441 -0.3189
 4653TIP3    H135522   5.450   4.212   7.590  0.6554  0.4553 -0.3177
 4653TIP3    H235523   5.494   4.154   7.722  0.6692  0.4903 -0.3068
 4654TIP3   OH235524   6.638   0.276   6.774  0.1000  0.3814  0.0484
 4654TIP3    H135525   6.611   0.185   6.786 -0.3153  0.2962 -1.3773
 4654TIP3    H235526   6.557   0.327   6.785 -0.0956  0.3812 -1.2737
 4655TIP3   OH235527   5.358   4.149   8.390  0.6772 -0.0327 -0.3234
 4655TIP3    H135528   5.428   4.099   8.347  2.1960  1.1392  0.6857
 4655TIP3    H235529   5.284   4.144   8.329  2.0210 -0.2919 -2.0120
 4656TIP3   OH235530   2.155   1.656   0.980 -0.2020 -0.1439  0.4614
 4656TIP3    H135531   2.218   1.625   1.046  0.6481  1.2116  0.3199
 4656TIP3    H235532   2.183   1.614   0.899  0.1542 -0.0256  0.5194
 4657TIP3   OH235533   0.441   3.799   7.810  0.3958  0.5474 -0.3113
 4657TIP3    H135534   0.385   3.876   7.816  0.9986  1.0092 -0.5059
 4657TIP3    H235535   0.387   3.733   7.766 -0.2538  0.7252  0.2029
 4658TIP3   OH235536   5.807   5.208   2.060  0.3162  0.2598 -0.0676
 4658TIP3    H135537   5.897   5.240   2.057  0.6439 -0.6684 -0.8481
 4658TIP3    H235538   5.790   5.192   2.153  2.8441 -4.4403 -0.1151
 4659TIP3   OH235539   1.940   2.531   7.767 -0.1699  0.0459  0.3971
 4659TIP3    H135540   1.920   2.508   7.858 -0.5301  0.1068  0.3330
 4659TIP3    H235541   2.005   2.601   7.775  0.4212 -0.5156  0.5980
 4660TIP3   OH235542   1.888   2.108   0.825  0.1247 -0.3964  0.0975
 4660TIP3    H135543   1.936   2.184   0.858 -2.0663  0.9308  0.4138
 4660TIP3    H235544   1.957   2.044   0.805  2.0053  1.3554  0.5265
 4661TIP3   OH235545   5.068   5.807   0.563 -0.1102 -0.1655 -0.0136
 4661TIP3    H135546   5.125   5.867   0.612 -1.5164  0.6704  0.6528
 4661TIP3    H235547   5.000   5.863   0.527  1.6158 -0.4471 -4.3487
 4662TIP3   OH235548   4.568   5.790   6.679 -0.1993 -0.0346  0.7766
 4662TIP3    H135549   4.553   5.713   6.623 -1.0786  0.3761  0.4219
 4662TIP3    H235550   4.482   5.809   6.716 -0.6281  2.3456 -1.2058
 4663TIP3   OH235551   4.708   1.888   0.371  0.4819 -0.8621 -0.2342
 4663TIP3    H135552   4.803   1.898   0.369  0.4722 -0.8252 -0.6858
 4663TIP3    H235553   4.683   1.874   0.279  0.0783 -1.1300 -0.0893
 4664TIP3   OH235554   4.801   2.214   5.984 -0.2547 -0.0593 -0.4601
 4664TIP3    H135555   4.712   2.205   6.016 -0.3254  1.1194 -0.2780
 4664TIP3    H235556   4.817   2.308   5.984  1.0362 -0.2591 -0.3620
 4665TIP3   OH235557   2.820   4.553   0.011  0.4098 -0.3035 -0.1607
 4665TIP3    H135558   2.742   4.606  -0.005  0.7308 -0.3481 -2.0066
 4665TIP3    H235559   2.892   4.603  -0.025  0.9094 -1.3551 -0.6764
 4666TIP3   OH235560   2.259   0.020   2.306  0.0591  0.0968  0.2351
 4666TIP3    H135561   2.325  -0.037   2.266 -0.0937  0.6178 -0.7837
 4666TIP3    H235562   2.288   0.109   2.284 -0.2566  0.3862  0.9441
 4667TIP3   OH235563   3.580   4.538   0.927  0.0563  0.9480  0.3062
 4667TIP3    H135564   3.518   4.599   0.888 -3.1550 -2.2862 -0.1765
 4667TIP3    H235565   3.640   4.517   0.856 -1.3603  0.4969 -0.8120
 4668TIP3   OH235566   1.212   2.112   0.546 -0.1813 -0.0683  0.4395
 4668TIP3    H135567   1.247   2.092   0.460 -0.4891 -1.0294  0.5305
 4668TIP3    H235568   1.283   2.091   0.607  0.1529  0.9183  0.4155
 4669TIP3   OH235569   3.855   1.930   1.381 -0.0906 -0.0046 -0.3481
 4669TIP3    H135570   3.764   1.957   1.396 -0.0381  0.9714 -1.6049
 4669TIP3    H235571   3.891   1.917   1.469 -1.1325  0.7011  0.2012
 4670TIP3   OH235572   3.609   6.938   0.951 -0.0283 -0.0782  0.2066
 4670TIP3    H135573   3.620   6.886   0.871  1.8965 -0.4192  0.6461
 4670TIP3    H235574   3.628   7.028   0.923  0.1374 -0.1202  0.1856
 4671TIP3   OH235575   3.098   1.281   6.652 -0.3198  0.1168  1.0967
 4671TIP3    H135576   3.023   1.341   6.656 -0.1928  0.3386  0.2314
 4671TIP3    H235577   3.175   1.337   6.659 -0.1401  0.2959 -1.5276
 4672TIP3   OH235578   0.946   0.240   6.848 -0.0603  0.7612 -0.2195
 4672TIP3    H135579   0.979   0.292   6.776 -0.5799  1.1283 -0.1896
 4672TIP3    H235580   0.908   0.162   6.807  0.4566  0.5298 -0.2783
 4673TIP3   OH235581   0.353   1.899   1.985  0.1003  0.0170 -0.4417
 4673TIP3    H135582   0.413   1.837   2.027 -1.4773 -0.6840  0.8578
 4673TIP3    H235583   0.359   1.978   2.039 -0.1960 -0.0800 -0.2659
 4674TIP3   OH235584   0.593   5.421   1.338 -0.1435 -0.5082 -0.5663
 4674TIP3    H135585   0.589   5.333   1.300  1.5438 -1.1180  0.5498
 4674TIP3    H235586   0.687   5.441   1.344 -0.4051  0.4563  1.2029
 4675TIP3   OH235587   3.730   6.789   6.351  0.0378 -0.2777  0.0033
 4675TIP3    H135588   3.667   6.849   6.312  0.8298 -0.2732 -1.3181
 4675TIP3    H235589   3.739   6.818   6.442 -1.1512  0.2891 -0.0540
 4676TIP3   OH235590   2.266   2.058   0.171 -0.1201 -0.4581 -0.0451
 4676TIP3    H135591   2.234   2.061   0.262 -1.5990  0.0213 -0.5494
 4676TIP3    H235592   2.211   1.992   0.129 -1.4104  1.2842 -1.2510
 4677TIP3   OH235593   2.684   1.343   8.183  0.0201 -0.6817 -0.1482
 4677TIP3    H135594   2.644   1.260   8.212 -0.7860  0.1678  1.2998
 4677TIP3    H235595   2.705   1.329   8.091  2.1526 -3.3808  0.5859
 4678TIP3   OH235596   6.629   6.523   6.340  0.4631 -0.1589  0.8440
 4678TIP3    H135597   6.564   6.461   6.372  0.6506 -1.1948 -0.7017
 4678TIP3    H235598   6.710   6.499   6.384  0.3882 -0.6184  0.7369
 4679TIP3   OH235599   6.733   4.953   0.752 -0.3247 -0.1938  0.3043
 4679TIP3    H135600   6.729   4.975   0.845 -1.1489  0.4416  0.1347
 4679TIP3    H235601   6.664   5.007   0.712  0.3066 -0.1312 -0.7308
 4680TIP3   OH235602   1.816   1.540   7.312 -0.9688  0.3920 -0.4149
 4680TIP3    H135603   1.753   1.495   7.255 -0.5098  0.5799 -1.0822
 4680TIP3    H235604   1.790   1.515   7.401 -1.5499 -0.0993 -0.7153
 4681TIP3   OH235605   5.258   6.769   6.913 -0.4413  0.0453  0.3607
 4681TIP3    H135606   5.329   6.832   6.900 -1.1281  1.9940  4.3396
 4681TIP3    H235607   5.191   6.795   6.851  0.0395  2.1078  0.6234
 4682TIP3   OH235608   4.370   4.418   0.817  0.3230 -0.6348 -0.3970
 4682TIP3    H135609   4.357   4.511   0.803  1.0558 -0.6154 -1.0117
 4682TIP3    H235610   4.438   4.413   0.884  0.7859 -0.7222 -0.8687
 4683TIP3   OH235611   3.247   1.292   1.365  0.2944 -0.4534  0.1721
 4683TIP3    H135612   3.236   1.375   1.411 -1.2674  0.3075 -1.4688
 4683TIP3    H235613   3.331   1.258   1.396  1.7712  2.5045 -0.2812
 4684TIP3   OH235614   6.565   4.370   8.090 -0.4970 -0.0122  0.1903
 4684TIP3    H135615   6.587   4.323   8.170  1.1078  1.6052  0.7829
 4684TIP3    H235616   6.474   4.398   8.103 -0.3252  0.0561  1.3807
 4685TIP3   OH235617   0.918   1.997   0.001  0.1964  0.1801 -0.1602
 4685TIP3    H135618   0.915   1.920   0.058  1.1912  0.1566 -0.1198
 4685TIP3    H235619   0.940   1.962  -0.085 -0.0719  0.3493 -0.2982
 4686TIP3   OH235620   4.030   2.168   2.253 -0.5508 -0.6127  0.2491
 4686TIP3    H135621   3.987   2.144   2.171  0.2225  0.6465 -0.5478
 4686TIP3    H235622   4.104   2.107   2.260 -0.2610 -0.3284 -0.3017
 4687TIP3   OH235623   1.526   4.558   0.744 -0.0184  0.0030 -0.1673
 4687TIP3    H135624   1.470   4.635   0.733 -0.3269 -0.2619 -0.5127
 4687TIP3    H235625   1.591   4.584   0.809  0.1798  0.7174 -0.6468
 4688TIP3   OH235626   0.573   2.485   1.093  0.3164 -0.2226  0.0931
 4688TIP3    H135627   0.578   2.401   1.139  0.1136  0.0706  0.6641
 4688TIP3    H235628   0.491   2.480   1.044  0.2531 -0.3217  0.2056
 4689TIP3   OH235629   4.881   6.540   6.991  0.4034 -0.1221  0.3035
 4689TIP3    H135630   4.837   6.549   6.907 -1.2341  0.1201  1.1391
 4689TIP3    H235631   4.811   6.516   7.052  1.3725  0.6565  1.7828
 4690TIP3   OH235632   5.549   5.525   8.147  0.2224 -0.4164 -0.0064
 4690TIP3    H135633   5.559   5.479   8.064  0.0162  0.2320 -0.4019
 4690TIP3    H235634   5.454   5.530   8.160  0.2012  0.7933 -0.4955
 4691TIP3   OH235635   3.236   1.544   5.702 -0.2476  0.1275 -0.0341
 4691TIP3    H135636   3.210   1.452   5.697  2.3590 -0.7960  1.4996
 4691TIP3    H235637   3.281   1.561   5.619 -1.5637  0.3367 -0.7215
 4692TIP3   OH235638   1.254   3.300   0.513  0.3178  0.2399 -0.3883
 4692TIP3    H135639   1.224   3.213   0.486 -1.7800  0.5105  0.8601
 4692TIP3    H235640   1.297   3.285   0.598  0.3587  0.3679 -0.3867
 4693TIP3   OH235641   5.306   3.634   1.976  0.1809  0.3342  0.0235
 4693TIP3    H135642   5.216   3.614   2.003  0.0618 -0.0309 -0.6267
 4693TIP3    H235643   5.359   3.612   2.052 -0.1162 -1.0191 -0.1348
 4694TIP3   OH235644   6.519   6.418   2.470 -0.0365  0.0933 -0.1999
 4694TIP3    H135645   6.438   6.406   2.420 -0.7452 -0.7887  1.0918
 4694TIP3    H235646   6.582   6.360   2.427 -1.2924 -2.5648  1.2604
 4695TIP3   OH235647   0.427   1.269   1.653 -0.1912 -0.0460  0.3036
 4695TIP3    H135648   0.474   1.343   1.615  1.1852 -0.5964  0.8567
 4695TIP3    H235649   0.477   1.248   1.732 -1.1623 -0.9142  0.7058
 4696TIP3   OH235650   1.960   1.565   6.891  0.5469  0.0681  0.0401
 4696TIP3    H135651   2.017   1.561   6.967 -0.1488 -1.5948  0.5141
 4696TIP3    H235652   1.891   1.627   6.916 -0.8890 -2.0541  1.7101
 4697TIP3   OH235653   0.934   6.231   0.158 -0.3202  0.0341  0.6223
 4697TIP3    H135654   0.913   6.265   0.071 -0.0306 -1.3076 -0.0018
 4697TIP3    H235655   0.938   6.308   0.214 -2.2839  0.7556 -0.1758
 4698TIP3   OH235656   2.448   5.116   7.912 -0.1116 -0.3115 -0.3187
 4698TIP3    H135657   2.495   5.035   7.892  0.9586  0.3172 -0.4311
 4698TIP3    H235658   2.435   5.114   8.006  1.1037 -0.0151 -0.1264
 4699TIP3   OH235659   6.276   0.192   0.092  0.2069  0.1293  0.0619
 4699TIP3    H135660   6.271   0.265   0.030 -2.1532 -0.2684 -0.2988
 4699TIP3    H235661   6.186   0.179   0.122  0.2533 -3.4279 -0.8748
 4700TIP3   OH235662   1.604   0.012   0.166  0.2426 -0.1982 -0.1280
 4700TIP3    H135663   1.602   0.053   0.080 -0.8986  0.2639  0.1059
 4700TIP3    H235664   1.691  -0.028   0.171  0.0219 -0.9930 -1.8433
 4701TIP3   OH235665   3.597   3.168   7.437  0.0378 -0.8922 -0.2708
 4701TIP3    H135666   3.557   3.177   7.351 -1.0882  0.1421  0.3232
 4701TIP3    H235667   3.669   3.232   7.436 -0.4824 -0.2937 -0.1782
 4702TIP3   OH235668   1.901   2.964   6.797 -0.0364 -0.0258  0.5957
 4702TIP3    H135669   1.944   2.939   6.714  1.6664 -0.3574  1.5236
 4702TIP3    H235670   1.934   3.052   6.815 -0.3732  0.0311  0.9338
 4703TIP3   OH235671   2.605   3.292   0.137  0.0917  0.4404  0.1007
 4703TIP3    H135672   2.651   3.213   0.108 -1.2472 -0.9535  1.6141
 4703TIP3    H235673   2.627   3.300   0.229 -2.4244 -0.1127  0.8053
 4704TIP3   OH235674   4.409   2.387   8.234 -0.6652  0.3990 -0.6627
 4704TIP3    H135675   4.339   2.391   8.299 -1.3638 -0.6966 -1.3186
 4704TIP3    H235676   4.445   2.299   8.242  0.2933  0.7773 -0.7017
 4705TIP3   OH235677   0.435   2.480   6.749 -0.0098  0.5836 -0.3873
 4705TIP3    H135678   0.479   2.404   6.711  0.0489  0.4476 -0.0505
 4705TIP3    H235679   0.427   2.459   6.842 -0.1655  0.9075 -0.3263
 4706TIP3   OH235680   2.956   2.064   1.172  0.4559  0.2764  0.0638
 4706TIP3    H135681   3.009   2.034   1.246  0.5550 -0.5148 -0.3120
 4706TIP3    H235682   2.904   2.136   1.207  0.2305 -0.3273  1.0095
 4707TIP3   OH235683   1.914   1.220   6.863  0.8286 -0.7316  0.1918
 4707TIP3    H135684   1.846   1.263   6.810 -0.2856 -3.4693 -0.7978
 4707TIP3    H235685   1.865   1.174   6.932  1.8007 -1.5678  0.3460
 4708TIP3   OH235686   5.654   0.015   6.601 -0.4122  0.2456  0.0815
 4708TIP3    H135687   5.642   0.110   6.595  1.7494  0.6447  0.9653
 4708TIP3    H235688   5.636  -0.017   6.513  0.6592  1.7537 -0.7461
 4709TIP3   OH235689   0.724   3.068   7.010  0.0381  0.3523 -0.3687
 4709TIP3    H135690   0.764   3.154   6.996  0.1561  0.6029  1.2388
 4709TIP3    H235691   0.673   3.052   6.931  0.5048  1.6246 -0.9633
 4710TIP3   OH235692   6.477   3.173   0.080  0.4047 -0.3562 -0.5180
 4710TIP3    H135693   6.432   3.249   0.044 -0.4908 -0.4465  0.3667
 4710TIP3    H235694   6.557   3.209   0.119 -0.9492  0.4987  1.6743
 4711TIP3   OH235695   2.155   3.939   7.507 -0.1330  0.6768  0.6091
 4711TIP3    H135696   2.126   3.968   7.421 -0.0601  0.6622  0.5792
 4711TIP3    H235697   2.075   3.911   7.552 -0.2473  1.1948  0.7448
 4712TIP3   OH235698   6.974   4.495   8.259 -0.2829  0.1685 -0.2151
 4712TIP3    H135699   7.054   4.443   8.266  0.5846  1.2790 -1.3334
 4712TIP3    H235700   6.949   4.487   8.166 -1.7583 -0.5540  0.2158
 4713TIP3   OH235701   6.673   4.198   7.877  0.4915 -0.4725 -0.3889
 4713TIP3    H135702   6.748   4.142   7.895  0.0151 -0.5462  1.5285
 4713TIP3    H235703   6.641   4.225   7.963 -1.8448 -0.6671 -1.1155
 4714TIP3   OH235704   5.697   2.161   7.380  0.4243  0.1268  0.0298
 4714TIP3    H135705   5.768   2.135   7.322  1.7468 -0.6362  1.8910
 4714TIP3    H235706   5.704   2.102   7.455 -0.7311  1.5212  1.3147
 4715TIP3   OH235707   1.103   1.422   7.252 -0.1805  0.5790  0.0510
 4715TIP3    H135708   1.071   1.342   7.211 -0.2370  0.4163  0.4079
 4715TIP3    H235709   1.036   1.444   7.317  0.9004 -0.3370  1.5410
 4716TIP3   OH235710   4.938   0.240   6.000 -0.2414 -0.4574 -0.4872
 4716TIP3    H135711   4.867   0.211   6.058 -2.3712  2.0061 -1.6551
 4716TIP3    H235712   5.004   0.276   6.059 -2.1784  1.6372  0.5727
 4717TIP3   OH235713   0.706   6.716   6.582 -0.1295  0.2267 -0.2348
 4717TIP3    H135714   0.707   6.632   6.536 -0.5946 -1.0167  1.8765
 4717TIP3    H235715   0.784   6.715   6.637  0.1290  1.4244 -0.5451
 4718TIP3   OH235716   6.388   6.478   6.495  0.0389  0.4176 -0.4093
 4718TIP3    H135717   6.386   6.572   6.478 -1.2813  0.4689 -0.0795
 4718TIP3    H235718   6.298   6.449   6.482  0.6030 -0.9892 -1.4817
 4719TIP3   OH235719   2.062   3.866   1.638  0.1154 -0.1520  0.0711
 4719TIP3    H135720   2.097   3.945   1.678 -1.6225  0.3062  0.7711
 4719TIP3    H235721   2.000   3.831   1.703 -0.1840 -1.3107 -0.7982
 4720TIP3   OH235722   2.416   6.613   0.538  0.4592  0.3484 -0.1044
 4720TIP3    H135723   2.430   6.531   0.585  0.9683  0.4441 -0.0817
 4720TIP3    H235724   2.385   6.674   0.605  0.5190  0.2984 -0.0314
 4721TIP3   OH235725   3.833   0.544   1.292 -0.1119  0.8148  0.1697
 4721TIP3    H135726   3.751   0.588   1.270 -0.5011  0.4157  0.8040
 4721TIP3    H235727   3.817   0.503   1.377 -1.4961 -4.5508 -2.1962
 4722TIP3   OH235728   2.572   6.808   1.353 -0.5868  0.3687 -0.7357
 4722TIP3    H135729   2.645   6.869   1.363 -1.4944  1.7287 -1.9702
 4722TIP3    H235730   2.512   6.832   1.424 -0.8346  0.7558 -1.0745
 4723TIP3   OH235731   1.137   2.018   0.187  0.0081 -0.0599 -0.2367
 4723TIP3    H135732   1.203   1.962   0.145  0.6921  0.9623 -0.5781
 4723TIP3    H235733   1.175   2.106   0.184 -1.7138  0.7108 -1.1849
 4724TIP3   OH235734   2.631   5.723   7.315 -0.8580  0.3915 -0.1465
 4724TIP3    H135735   2.638   5.693   7.224 -0.2943 -0.3248  0.1181
 4724TIP3    H235736   2.581   5.655   7.359  1.9119 -1.1558  0.8491
 4725TIP3   OH235737   4.308   2.082   8.148 -0.7991 -0.6443  0.0729
 4725TIP3    H135738   4.313   1.987   8.153 -3.2285 -0.8213  0.2900
 4725TIP3    H235739   4.287   2.100   8.056  1.1176 -0.1598 -0.3269
 4726TIP3   OH235740   4.294   1.007   1.346  0.1592  0.2475  0.5905
 4726TIP3    H135741   4.369   0.998   1.403  0.3333  0.4412  0.3957
 4726TIP3    H235742   4.331   1.028   1.260 -0.1591  2.1793  0.8585
 4727TIP3   OH235743   1.016   0.527   7.343  0.4845 -0.5433  0.2675
 4727TIP3    H135744   0.926   0.558   7.335  0.4878 -0.7241 -0.5869
 4727TIP3    H235745   1.065   0.603   7.375  0.3286  0.0943 -0.9332
 4728TIP3   OH235746   4.248   6.786   0.504 -0.1247 -0.2329  0.0496
 4728TIP3    H135747   4.213   6.872   0.482  1.7527  1.2490  2.4149
 4728TIP3    H235748   4.329   6.779   0.453 -0.3722 -0.7111 -0.2874
 4729TIP3   OH235749   4.281   1.803   8.227  0.0179 -0.4372  0.3653
 4729TIP3    H135750   4.190   1.788   8.200  0.5972 -0.8276 -1.4951
 4729TIP3    H235751   4.332   1.791   8.147  1.6194  0.7564  1.1585
 4730TIP3   OH235752   3.786   0.441   1.905 -0.0415 -0.2865  0.8864
 4730TIP3    H135753   3.750   0.357   1.932  0.6455 -0.9918 -0.2769
 4730TIP3    H235754   3.881   0.432   1.916  0.1405 -0.0994 -0.3220
 4731TIP3   OH235755   1.594   1.788   1.334  0.1593  0.3700 -0.5978
 4731TIP3    H135756   1.607   1.872   1.379 -0.2340  0.3743 -0.4827
 4731TIP3    H235757   1.499   1.782   1.322  0.2255  0.1743 -1.0599
 4732TIP3   OH235758   2.831   6.481   6.046 -0.3512 -0.5506  0.3721
 4732TIP3    H135759   2.851   6.388   6.055 -0.1356 -0.5477 -0.0670
 4732TIP3    H235760   2.913   6.520   6.016 -0.1886 -0.0805  1.3967
 4733TIP3   OH235761   5.697   5.663   0.229  0.4434  0.1993  0.5488
 4733TIP3    H135762   5.662   5.579   0.198 -0.2042  0.3414  0.8767
 4733TIP3    H235763   5.620   5.710   0.262  0.7016  1.1768 -0.2106
 4734TIP3   OH235764   2.559   3.399   2.466  0.0121 -0.1418  0.4294
 4734TIP3    H135765   2.637   3.452   2.452 -0.3537  0.1488 -0.6036
 4734TIP3    H235766   2.591   3.320   2.510  0.6019  0.7772  1.6867
 4735TIP3   OH235767   0.400   6.804   1.672 -0.0430 -0.9181 -0.3610
 4735TIP3    H135768   0.410   6.862   1.748  1.3528 -0.9515 -0.4924
 4735TIP3    H235769   0.345   6.854   1.611  0.9128  0.1797 -0.3608
 4736TIP3   OH235770   3.333   6.548   8.048  0.4195  0.3201 -0.0832
 4736TIP3    H135771   3.341   6.457   8.078  0.9093  0.1784 -0.6396
 4736TIP3    H235772   3.360   6.600   8.124 -0.3162  0.0244  0.3978
 4737TIP3   OH235773   3.731   6.557   1.411 -0.0662 -0.5523 -0.1926
 4737TIP3    H135774   3.739   6.478   1.357  0.9788  0.9227 -2.3521
 4737TIP3    H235775   3.816   6.600   1.403 -0.4610  0.5721  1.3060
 4738TIP3   OH235776   3.213   0.430   1.215 -0.4518 -0.8863 -0.0252
 4738TIP3    H135777   3.155   0.494   1.257 -0.8310 -0.9488 -0.4432
 4738TIP3    H235778   3.292   0.479   1.193 -0.1618 -0.8975  0.9356
 4739TIP3   OH235779   4.865   4.221   0.161 -0.2373  0.0407  0.0576
 4739TIP3    H135780   4.895   4.185   0.077  0.3875  1.8706 -0.5664
 4739TIP3    H235781   4.866   4.316   0.147  0.2792  0.4100  2.2893
 4740TIP3   OH235782   0.184   3.287   1.153 -0.0346  0.6359  0.7374
 4740TIP3    H135783   0.261   3.229   1.154 -0.6889 -0.2801  0.0107
 4740TIP3    H235784   0.171   3.308   1.061 -0.0605  1.6217  0.9603
 4741TIP3   OH235785   6.059   2.331   5.863  0.2382  0.7520 -0.0360
 4741TIP3    H135786   6.057   2.236   5.873 -1.1430  0.7332 -0.2778
 4741TIP3    H235787   6.037   2.365   5.949  0.5045  0.8408 -0.0043
 4742TIP3   OH235788   4.460   6.894   7.374 -0.4624  0.0463 -0.9583
 4742TIP3    H135789   4.402   6.902   7.298 -0.6848 -1.2330 -0.9386
 4742TIP3    H235790   4.518   6.821   7.353  0.1888  0.3837 -0.3574
 4743TIP3   OH235791   2.746   4.302   1.417 -0.5576  0.2647  0.1161
 4743TIP3    H135792   2.699   4.288   1.500 -2.4908 -0.2455 -0.9973
 4743TIP3    H235793   2.823   4.352   1.442 -0.8843 -0.1856  2.2786
 4744TIP3   OH235794   3.992   4.493   0.788  0.3365 -0.5122  0.0452
 4744TIP3    H135795   4.001   4.422   0.725 -0.8646 -1.4733  0.9116
 4744TIP3    H235796   4.079   4.501   0.828 -0.2070 -3.5530  2.0572
 4745TIP3   OH235797   3.319   0.214   6.998 -0.2647  0.1155  0.3318
 4745TIP3    H135798   3.398   0.172   6.963 -0.6505 -1.5790  1.3781
 4745TIP3    H235799   3.352   0.289   7.048  0.4289  1.2698 -1.7292
 4746TIP3   OH235800   6.051   4.419   0.009 -0.2539  0.0911 -0.8090
 4746TIP3    H135801   6.015   4.330   0.010  0.1451 -0.1173 -2.1774
 4746TIP3    H235802   5.995   4.466  -0.053  0.1078  0.5340 -0.7995
 4747TIP3   OH235803   3.430   4.976   2.170  0.0030 -0.2154 -0.5282
 4747TIP3    H135804   3.344   5.018   2.160 -0.8124 -1.2262  1.7296
 4747TIP3    H235805   3.488   5.046   2.198 -1.0110 -0.2331  1.7703
 4748TIP3   OH235806   6.343   3.799   6.583  0.7708 -0.3801 -0.2166
 4748TIP3    H135807   6.248   3.797   6.573  0.6523  0.7433  0.5117
 4748TIP3    H235808   6.362   3.885   6.620  2.2325  0.0895 -1.8715
 4749TIP3   OH235809   0.328   0.156   7.536  0.5741  0.3794 -0.5390
 4749TIP3    H135810   0.267   0.120   7.601 -1.2018  0.3370 -2.1242
 4749TIP3    H235811   0.382   0.082   7.510  0.6889  0.1913  0.2117
 4750TIP3   OH235812   2.713   4.155   0.922  0.4733  0.0465 -0.4508
 4750TIP3    H135813   2.650   4.188   0.986  0.7339  1.6877 -1.0070
 4750TIP3    H235814   2.748   4.076   0.963 -1.1555 -0.3302  0.3360
 4751TIP3   OH235815   1.988   3.945   0.181  0.2060  0.0906 -0.6101
 4751TIP3    H135816   2.026   4.005   0.245 -1.3450  0.2771  0.1796
 4751TIP3    H235817   2.044   3.954   0.104  1.4417  0.7085  0.3296
 4752TIP3   OH235818   0.060   4.939   8.095 -0.0563 -0.2136  0.3733
 4752TIP3    H135819   0.033   5.005   8.031  1.1289  0.8727  0.9358
 4752TIP3    H235820  -0.010   4.940   8.161  0.0392  0.6652  0.4817
 4753TIP3   OH235821   0.604   4.567   6.054  0.5280  0.0896  0.4699
 4753TIP3    H135822   0.677   4.522   6.097  1.9673 -0.5033 -2.3379
 4753TIP3    H235823   0.603   4.531   5.966 -2.2415  1.2221 -0.0472
 4754TIP3   OH235824   5.891   4.807   1.262 -0.1968  0.4794  0.5501
 4754TIP3    H135825   5.968   4.851   1.299  0.0287  1.9415 -1.4661
 4754TIP3    H235826   5.817   4.858   1.294  0.0555  2.4453 -1.6621
 4755TIP3   OH235827   3.316   6.131   0.144 -0.1780  0.3820 -0.0261
 4755TIP3    H135828   3.316   6.139   0.239  0.5974  1.3268 -0.1025
 4755TIP3    H235829   3.281   6.214   0.113 -0.7638 -0.0560 -0.5672
 4756TIP3   OH235830   3.985   4.237   0.507  0.1133 -0.0172 -0.1708
 4756TIP3    H135831   4.054   4.229   0.440 -1.0947  1.4417 -1.6854
 4756TIP3    H235832   3.918   4.175   0.479  0.6733 -1.2713  1.1750
 4757TIP3   OH235833   0.829   3.059   1.562  0.2058 -0.2045  0.0676
 4757TIP3    H135834   0.750   3.114   1.569 -0.9881 -1.6652 -1.2753
 4757TIP3    H235835   0.864   3.056   1.651 -1.5180  0.1173  0.7987
 4758TIP3   OH235836   0.472   2.327   7.520 -0.0465  0.6562  0.2407
 4758TIP3    H135837   0.390   2.308   7.566  0.5175 -0.5443  0.8022
 4758TIP3    H235838   0.466   2.420   7.498 -0.7160  1.0663  1.9668
 4759TIP3   OH235839   2.389   6.794   0.023 -0.2682  0.3129 -0.5839
 4759TIP3    H135840   2.381   6.706  -0.014 -0.2878  0.5179 -1.0745
 4759TIP3    H235841   2.483   6.804   0.040 -0.2297  0.3012 -0.7869
 4760TIP3   OH235842   1.846   2.442   5.897 -0.1440  0.4125 -0.0615
 4760TIP3    H135843   1.793   2.521   5.910 -0.2876  0.4500 -0.8383
 4760TIP3    H235844   1.934   2.467   5.926 -0.4733  0.4432  0.9445
 4761TIP3   OH235845   6.443   2.246   2.337  0.1414  0.5093 -0.0262
 4761TIP3    H135846   6.421   2.157   2.365  1.0959 -0.1694 -1.3044
 4761TIP3    H235847   6.538   2.251   2.347  0.1495  1.2147 -0.4187
 4762TIP3   OH235848   1.682   5.813   7.212 -0.3788 -0.2258 -0.4612
 4762TIP3    H135849   1.700   5.774   7.127 -3.5112  0.9546 -1.8249
 4762TIP3    H235850   1.651   5.741   7.266 -0.1981 -0.6504 -0.9170
 4763TIP3   OH235851   3.479   5.320   7.207 -0.1275 -0.1099 -0.5388
 4763TIP3    H135852   3.402   5.339   7.261  0.5537 -1.5710  1.0533
 4763TIP3    H235853   3.449   5.332   7.117 -2.2486 -0.7054  0.0309
 4764TIP3   OH235854   5.099   5.538   0.519  0.4553 -0.1033  0.2043
 4764TIP3    H135855   5.077   5.631   0.522  0.7623  0.0529 -1.5478
 4764TIP3    H235856   5.162   5.526   0.590  0.4163  1.0133  0.4439
 4765TIP3   OH235857   5.450   3.003   0.376 -0.4656 -0.5520  0.0049
 4765TIP3    H135858   5.387   3.032   0.309 -1.1192  0.2978  0.9624
 4765TIP3    H235859   5.401   2.939   0.428 -0.0861 -0.9147 -0.0812
 4766TIP3   OH235860   4.880   3.646   0.695 -0.1133 -0.4146 -0.5146
 4766TIP3    H135861   4.939   3.640   0.770 -1.2374 -1.1436  0.3389
 4766TIP3    H235862   4.927   3.702   0.632  1.5244 -1.0550  0.0808
 4767TIP3   OH235863   2.557   1.114   1.300  0.6771 -0.4613 -0.5857
 4767TIP3    H135864   2.526   1.159   1.378 -2.4939 -2.0992 -0.7106
 4767TIP3    H235865   2.544   1.021   1.319  2.7118 -1.1157 -1.9821
 4768TIP3   OH235866   1.586   0.832   1.260 -0.5806  0.0736  0.0773
 4768TIP3    H135867   1.641   0.805   1.186 -0.9536  1.5171 -0.7681
 4768TIP3    H235868   1.648   0.871   1.322 -0.4844  0.6170 -0.3472
 4769TIP3   OH235869   6.329   6.531   6.863  0.2282  0.0563 -0.2263
 4769TIP3    H135870   6.314   6.603   6.924 -0.2771  1.3345 -1.7751
 4769TIP3    H235871   6.414   6.551   6.823  0.5080 -0.7056 -0.0276
 4770TIP3   OH235872   3.557   3.769   7.928  0.2940  0.1108 -0.6634
 4770TIP3    H135873   3.559   3.804   8.017  0.1893 -1.7862  0.1213
 4770TIP3    H235874   3.583   3.678   7.937  1.1295  0.0768 -2.7053
 4771TIP3   OH235875   1.979   5.661   8.226  0.5635  0.1701 -0.2211
 4771TIP3    H135876   1.907   5.635   8.284  0.5642  1.2877  0.3067
 4771TIP3    H235877   2.046   5.695   8.285  1.3279 -0.3813 -0.7540
 4772TIP3   OH235878   3.425   4.296   7.663 -0.0278  0.1372 -0.3387
 4772TIP3    H135879   3.498   4.263   7.610  0.0922 -0.2294  0.0483
 4772TIP3    H235880   3.400   4.378   7.622  1.0222  0.5885 -0.0971
 4773TIP3   OH235881   5.174   4.556   6.289 -0.3529 -0.5618  0.6176
 4773TIP3    H135882   5.138   4.520   6.208 -0.4193  1.5336 -0.3488
 4773TIP3    H235883   5.097   4.584   6.339 -0.3192 -1.9522  1.5102
 4774TIP3   OH235884   4.632   6.906   0.202  0.0354  0.3388 -0.2717
 4774TIP3    H135885   4.702   6.900   0.267 -1.9438 -0.2244  1.9248
 4774TIP3    H235886   4.663   6.972   0.140  2.2093  0.5795  0.9649
 4775TIP3   OH235887   2.338   3.407   0.863 -0.3029  0.5068  0.1446
 4775TIP3    H135888   2.427   3.421   0.831 -0.3508 -0.7477 -0.6180
 4775TIP3    H235889   2.338   3.317   0.894 -1.6361  0.0396 -1.0720
 4776TIP3   OH235890   2.333   0.024   0.146 -0.2206 -0.1750 -0.3500
 4776TIP3    H135891   2.352  -0.059   0.102 -0.0435 -0.6893  0.6641
 4776TIP3    H235892   2.414   0.048   0.190  0.1786  1.3066 -1.7920
 4777TIP3   OH235893   6.080   4.614   1.081  0.5004 -0.1261 -0.4626
 4777TIP3    H135894   6.092   4.593   1.174 -1.0007  1.7692  0.2318
 4777TIP3    H235895   6.068   4.529   1.039 -1.4039 -0.9389  1.5239
 4778TIP3   OH235896   3.202   4.429   0.235 -0.0696 -0.5741 -0.3834
 4778TIP3    H135897   3.289   4.412   0.199 -0.2339  0.5649 -1.3647
 4778TIP3    H235898   3.165   4.498   0.180 -0.3925  1.1843  1.8587
 4779TIP3   OH235899   0.611   3.856   1.754  0.4577 -0.4324 -0.1714
 4779TIP3    H135900   0.527   3.812   1.760 -0.1873  0.7161 -0.4474
 4779TIP3    H235901   0.656   3.836   1.836 -0.2127 -0.8039  0.1045
 4780TIP3   OH235902   1.416   5.222   0.540  0.1424  0.2376 -0.1353
 4780TIP3    H135903   1.477   5.209   0.468  1.4528  0.6816  0.8577
 4780TIP3    H235904   1.336   5.254   0.499  1.2424  1.6226 -1.2848
 4781TIP3   OH235905   6.311   3.701   2.209  0.5837  0.2736 -0.1511
 4781TIP3    H135906   6.383   3.765   2.209  0.6943  0.1484 -0.0557
 4781TIP3    H235907   6.237   3.748   2.248 -0.1403  1.2597 -2.5049
 4782TIP3   OH235908   4.182   2.401   6.973 -0.0727 -0.1523 -0.1264
 4782TIP3    H135909   4.096   2.404   7.016 -0.2757 -1.4227 -0.4206
 4782TIP3    H235910   4.231   2.473   7.013 -1.5911  1.2213 -0.6708
 4783TIP3   OH235911   6.822   2.513   6.896 -0.8889  0.0406 -0.2089
 4783TIP3    H135912   6.837   2.600   6.860  0.3381  0.5054  1.2959
 4783TIP3    H235913   6.853   2.519   6.986 -0.2673 -2.1142 -0.2284
 4784TIP3   OH235914   6.706   5.760   0.924 -1.0814  0.1329 -0.1334
 4784TIP3    H135915   6.619   5.722   0.939 -1.0394  0.4596  1.0617
 4784TIP3    H235916   6.743   5.770   1.012 -0.0561  0.5197 -0.5971
 4785TIP3   OH235917   0.127   1.564   1.188 -0.4636 -0.1191 -0.1059
 4785TIP3    H135918   0.220   1.566   1.209 -0.6974  0.5948  0.9363
 4785TIP3    H235919   0.115   1.632   1.122 -0.5606  1.2282  1.2480
 4786TIP3   OH235920   1.802   0.213   6.643  0.1599  0.8261  0.8076
 4786TIP3    H135921   1.777   0.125   6.670  0.0082  1.0713  1.4778
 4786TIP3    H235922   1.828   0.204   6.551 -0.2768  0.1651  0.7481
 4787TIP3   OH235923   4.846   0.269   1.103 -0.2640 -0.0891 -0.0719
 4787TIP3    H135924   4.825   0.239   1.015 -1.1060  1.3923 -0.4002
 4787TIP3    H235925   4.761   0.283   1.145  0.0828 -2.2954  1.5724
 4788TIP3   OH235926   1.713   6.324   7.262  0.2464  0.0468 -0.2049
 4788TIP3    H135927   1.712   6.235   7.226  0.1940  0.6088 -1.6409
 4788TIP3    H235928   1.789   6.325   7.321  0.2487 -0.9434 -0.1717
 4789TIP3   OH235929   3.159   0.884   7.931  0.1732 -0.0822 -0.0003
 4789TIP3    H135930   3.247   0.897   7.896  0.6525  0.6743  1.4103
 4789TIP3    H235931   3.162   0.798   7.973  0.3353  0.1046  0.3634
 4790TIP3   OH235932   1.036   1.382   1.727 -0.2365  0.0039 -0.0844
 4790TIP3    H135933   1.043   1.288   1.742 -0.1011  0.0361  0.0528
 4790TIP3    H235934   0.985   1.390   1.646 -0.8880 -0.1741  0.3007
 4791TIP3   OH235935   0.093   5.046   7.678  0.2731  0.0249  0.5270
 4791TIP3    H135936   0.095   5.120   7.738  0.7491 -0.3315  0.9518
 4791TIP3    H235937   0.185   5.021   7.666  0.0784 -1.1288  1.1913
 4792TIP3   OH235938   4.067   1.840   7.824 -0.1710 -0.2764  0.5995
 4792TIP3    H135939   4.113   1.775   7.770 -0.2807  0.0116  0.1529
 4792TIP3    H235940   4.084   1.924   7.781 -0.0676 -0.0111  1.1476
 4793TIP3   OH235941   0.935   2.635   0.885 -0.0920 -0.3097  0.4704
 4793TIP3    H135942   0.905   2.601   0.801  3.5781 -3.5704  0.2104
 4793TIP3    H235943   0.860   2.623   0.943 -2.3124  0.8598 -1.9394
 4794TIP3   OH235944   6.633   4.198   2.623 -0.4166  0.6680  0.0462
 4794TIP3    H135945   6.600   4.132   2.561  2.4640 -1.0963  0.1992
 4794TIP3    H235946   6.621   4.158   2.709 -0.7514  1.3647  0.3270
 4795TIP3   OH235947   6.961   0.178   7.053 -0.2187 -0.6606  0.4650
 4795TIP3    H135948   7.055   0.192   7.066 -0.3606 -0.1371  0.9515
 4795TIP3    H235949   6.921   0.263   7.073 -0.8069 -0.9218  0.4118
 4796TIP3   OH235950   5.396   2.657   1.139  0.2487 -0.4511  0.2165
 4796TIP3    H135951   5.308   2.626   1.160  0.1901 -0.1933  0.3554
 4796TIP3    H235952   5.382   2.737   1.088  0.4026  0.0546  0.9528
 4797TIP3   OH235953   3.560   5.196   7.541  0.3992 -0.0156  0.0594
 4797TIP3    H135954   3.485   5.255   7.544  0.8397  0.8642 -2.8389
 4797TIP3    H235955   3.628   5.241   7.592 -0.6876 -0.3866  1.9249
 4798TIP3   OH235956   0.969   4.398   1.449  0.0843  0.0006 -0.2587
 4798TIP3    H135957   0.987   4.319   1.398 -0.4273  0.0290 -0.4938
 4798TIP3    H235958   1.047   4.411   1.502  0.3312 -0.4412 -0.5082
 4799TIP3   OH235959   6.375   5.032   1.029  0.0336  0.3997  0.0067
 4799TIP3    H135960   6.329   5.068   1.105  0.0840  2.1102 -0.7445
 4799TIP3    H235961   6.324   4.955   1.005 -1.1136  0.9583  0.5874
 4800TIP3   OH235962   5.649   5.990   1.118 -0.1224 -0.4151  0.3177
 4800TIP3    H135963   5.589   5.921   1.088 -1.4557  0.2704  1.2950
 4800TIP3    H235964   5.736   5.960   1.090 -0.8523 -1.6544 -0.7729
 4801TIP3   OH235965   4.440   3.061   6.750 -0.4493 -0.2143  0.1766
 4801TIP3    H135966   4.522   3.075   6.703 -0.3073 -1.5273 -0.0137
 4801TIP3    H235967   4.465   3.056   6.842 -0.0196 -2.3779 -0.0094
 4802TIP3   OH235968   5.443   1.468   7.437 -0.0108 -0.3005  0.6129
 4802TIP3    H135969   5.485   1.544   7.396  0.1185 -1.2022 -1.0302
 4802TIP3    H235970   5.388   1.431   7.367 -1.1514 -0.9215  1.7926
 4803TIP3   OH235971   2.104   0.547   1.484 -0.7274 -0.3711  0.2663
 4803TIP3    H135972   2.092   0.612   1.554 -0.8097  2.3201 -2.0733
 4803TIP3    H235973   2.171   0.585   1.427 -0.4657 -2.5961 -1.0325
 4804TIP3   OH235974   6.129   5.523   6.094  0.2545  0.3695 -0.5573
 4804TIP3    H135975   6.185   5.596   6.119 -0.7687  0.6476  1.0276
 4804TIP3    H235976   6.058   5.563   6.044 -0.6261  0.6025  0.8088
 4805TIP3   OH235977   4.851   3.057   0.528 -0.3911  0.4749 -0.4726
 4805TIP3    H135978   4.926   3.108   0.498 -1.0277  2.6425  1.3631
 4805TIP3    H235979   4.776   3.114   0.514 -0.9037  1.0368  3.4618
 4806TIP3   OH235980   5.932   6.029   7.356  0.3475  0.5357  0.4431
 4806TIP3    H135981   5.940   6.077   7.439  0.8054  1.5533 -0.1685
 4806TIP3    H235982   5.925   6.098   7.290 -0.8194 -0.2655 -0.3007
 4807TIP3   OH235983   4.795   4.771   0.490  0.1238 -0.0082  0.5021
 4807TIP3    H135984   4.879   4.776   0.535 -0.1879  2.0539  0.9541
 4807TIP3    H235985   4.732   4.745   0.558  0.3136 -1.1646  0.2511
 4808TIP3   OH235986   3.546   1.643   7.413  0.3373  0.1190  0.0142
 4808TIP3    H135987   3.625   1.651   7.359 -0.0695 -0.4944 -0.7002
 4808TIP3    H235988   3.578   1.631   7.502  1.1364 -2.3554 -0.5427
 4809TIP3   OH235989   4.348   5.101   0.821 -0.2808 -0.0613  0.2715
 4809TIP3    H135990   4.363   5.176   0.764  0.2161  0.2052  0.7450
 4809TIP3    H235991   4.296   5.135   0.893  0.1999 -0.1064  0.6394
 4810TIP3   OH235992   5.445   0.882   7.960 -0.3260 -0.3539 -0.2334
 4810TIP3    H135993   5.433   0.905   8.052  1.5192  0.6879 -0.2123
 4810TIP3    H235994   5.377   0.931   7.914 -1.0108 -0.5735  0.5005
 4811TIP3   OH235995   4.472   6.114   6.664 -0.1339 -0.2292 -0.2881
 4811TIP3    H135996   4.567   6.103   6.665 -0.0431  0.1068 -2.3763
 4811TIP3    H235997   4.446   6.103   6.756  2.2270  2.3958  0.8452
 4812TIP3   OH235998   4.330   5.783   1.466 -0.0539 -0.6776 -0.1815
 4812TIP3    H135999   4.341   5.692   1.493 -0.6993 -0.9022 -0.6396
 4812TIP3    H236000   4.295   5.777   1.377  2.2488  0.0281 -1.1890
 4813TIP3   OH236001   5.847   5.400   7.901  0.3013  0.3796  0.0479
 4813TIP3    H136002   5.879   5.430   7.815  0.1085 -0.1141 -0.1984
 4813TIP3    H236003   5.752   5.406   7.895  0.2215 -0.8471 -0.2271
 4814TIP3   OH236004   0.862   6.406   7.617  0.1481 -0.1856  0.1173
 4814TIP3    H136005   0.789   6.412   7.556  0.5218  1.1533 -0.2414
 4814TIP3    H236006   0.832   6.453   7.695 -0.3360 -1.8995  1.0130
 4815TIP3   OH236007   1.552   6.187   0.981 -0.1307  0.1163  0.0296
 4815TIP3    H136008   1.463   6.152   0.979  0.1045 -0.4910 -0.1961
 4815TIP3    H236009   1.541   6.282   0.975 -0.7823  0.0817  0.5522
 4816TIP3   OH236010   2.209   3.362   2.001  0.4248 -0.1761 -0.8072
 4816TIP3    H136011   2.287   3.393   2.046 -0.6778  1.1804  0.2608
 4816TIP3    H236012   2.178   3.288   2.053  0.8039 -0.5351 -1.0753
 4817TIP3   OH236013   0.987   3.417   6.454 -0.3101 -0.0267 -1.2361
 4817TIP3    H136014   0.988   3.472   6.375  1.4910 -0.0293 -1.2592
 4817TIP3    H236015   1.020   3.332   6.424 -2.4575 -0.9733 -1.0632
 4818TIP3   OH236016   4.079   3.758   2.033  0.5432  0.3821 -0.3586
 4818TIP3    H136017   4.106   3.673   2.068 -1.2828 -0.3144 -0.4881
 4818TIP3    H236018   4.014   3.790   2.095  0.3939  1.1432 -0.8916
 4819TIP3   OH236019   3.068   4.086   0.064  0.1490 -0.3931  0.3358
 4819TIP3    H136020   3.040   4.102   0.154  0.1231  0.9510  0.1143
 4819TIP3    H236021   3.150   4.038   0.073  0.7676  0.7457  1.1337
 4820TIP3   OH236022   5.936   5.841   6.738 -0.6080  0.4277 -0.1007
 4820TIP3    H136023   5.875   5.883   6.678 -1.5535 -0.5675  0.1270
 4820TIP3    H236024   5.894   5.846   6.824  0.5903  1.5634  0.4521
 4821TIP3   OH236025   2.765   3.574   7.120 -0.0753 -0.2554  0.4508
 4821TIP3    H136026   2.792   3.644   7.180 -0.7973  0.1507  0.3138
 4821TIP3    H236027   2.846   3.528   7.098  0.0815 -1.0469  2.5188
 4822TIP3   OH236028   0.738   0.589   6.954 -0.1711  0.2407 -0.3520
 4822TIP3    H136029   0.676   0.517   6.950 -0.7583  0.7349 -0.4081
 4822TIP3    H236030   0.701   0.655   6.894  1.3596 -0.1825 -1.8308
 4823TIP3   OH236031   4.126   1.349   1.087  0.6167 -0.0657  0.5025
 4823TIP3    H136032   4.084   1.410   1.147 -2.2761 -1.3010 -0.1301
 4823TIP3    H236033   4.153   1.275   1.142 -1.8129 -1.0913  0.4005
 4824TIP3   OH236034   0.924   4.953   7.581  0.1893 -0.6301 -0.3170
 4824TIP3    H136035   0.946   4.998   7.662  1.0598 -0.9554 -0.3693
 4824TIP3    H236036   0.828   4.961   7.575  0.3962  3.7732 -1.7960
 4825TIP3   OH236037   4.756   2.908   1.381 -0.0933  0.4654 -0.3504
 4825TIP3    H136038   4.713   2.992   1.371  0.1717  0.9924  2.2044
 4825TIP3    H236039   4.849   2.928   1.381  0.1292 -0.2663 -2.6659
 4826TIP3   OH236040   1.927   0.236   7.856 -0.0609  0.2643  0.0721
 4826TIP3    H136041   2.006   0.219   7.805  0.7069  0.5567  1.1339
 4826TIP3    H236042   1.858   0.191   7.808  0.6796  0.2990 -1.0705
 4827TIP3   OH236043   0.604   2.337   2.319 -0.2551 -0.4393 -0.5408
 4827TIP3    H136044   0.563   2.418   2.287  0.6653 -0.0119 -0.6771
 4827TIP3    H236045   0.544   2.268   2.292 -1.3821  0.2426  0.1248
 4828TIP3   OH236046   0.613   2.127   0.923  0.0111 -0.3552 -0.1409
 4828TIP3    H136047   0.685   2.156   0.978 -0.9905  0.3222  0.8471
 4828TIP3    H236048   0.570   2.058   0.973  1.1717 -2.2336 -1.6165
 4829TIP3   OH236049   6.995   3.167   6.335 -0.4850 -0.3017  0.3700
 4829TIP3    H136050   6.971   3.247   6.289 -0.7987 -0.6214 -0.0271
 4829TIP3    H236051   6.949   3.098   6.288 -2.1194 -0.4804  2.0899
 4830TIP3   OH236052   5.477   5.164   7.822  0.1471 -0.3811 -0.3084
 4830TIP3    H136053   5.499   5.079   7.860 -0.0871 -1.3289 -2.2074
 4830TIP3    H236054   5.398   5.148   7.772  1.3105  0.4003 -2.5120
 4831TIP3   OH236055   5.197   6.286   6.761  0.2972 -0.3150  0.6522
 4831TIP3    H136056   5.199   6.220   6.831 -2.2284 -1.2024  0.0209
 4831TIP3    H236057   5.173   6.236   6.682  0.2562  1.0740 -0.2501
 4832TIP3   OH236058   2.824   0.906   0.742  0.1710 -0.9056 -0.0238
 4832TIP3    H136059   2.882   0.982   0.737 -1.0038  0.0061 -0.1174
 4832TIP3    H236060   2.807   0.883   0.651 -1.4882  0.3332 -0.0806
 4833TIP3   OH236061   3.914   2.970   1.002  0.0086  0.1784  0.5566
 4833TIP3    H136062   3.992   2.969   1.059  0.2769 -1.4543  0.2054
 4833TIP3    H236063   3.949   2.961   0.913 -0.5538 -0.3153  0.3753
 4834TIP3   OH236064   6.022   4.042   2.363  0.6267 -0.3212 -0.3211
 4834TIP3    H136065   6.064   4.066   2.445 -0.7405  1.1229  0.0030
 4834TIP3    H236066   6.076   4.083   2.295 -0.2242  1.6066  0.0969
 4835TIP3   OH236067   4.702   3.662   7.698  0.1144 -0.6772  0.1266
 4835TIP3    H136068   4.740   3.703   7.776 -1.3527  0.4572  0.2916
 4835TIP3    H236069   4.758   3.586   7.682  2.4968  0.9418  0.2476
 4836TIP3   OH236070   6.373   5.072   6.136  0.2430  0.1501 -0.1469
 4836TIP3    H136071   6.345   5.157   6.102  0.2696  0.7430  1.2433
 4836TIP3    H236072   6.329   5.008   6.081 -1.8423  1.0651  0.3661
 4837TIP3   OH236073   4.337   3.239   1.008  0.2066 -0.3901 -0.0409
 4837TIP3    H136074   4.323   3.145   1.016 -0.8932 -0.1974  0.5022
 4837TIP3    H236075   4.394   3.261   1.082  0.0362 -0.5435  0.1351
 4838TIP3   OH236076   1.111   0.616   0.253  0.3550  0.1330  0.1591
 4838TIP3    H136077   1.193   0.663   0.271 -0.5974  1.0419  2.4056
 4838TIP3    H236078   1.067   0.611   0.338 -0.3487 -3.4509 -0.2778
 4839TIP3   OH236079   1.807   1.370   6.390 -0.2630  0.0325  0.1425
 4839TIP3    H136080   1.816   1.284   6.430 -1.0304  0.4021  1.1316
 4839TIP3    H236081   1.885   1.418   6.419 -0.1246 -0.1388  0.0582
 4840TIP3   OH236082   1.908   6.962   7.525 -0.5200  0.5059  0.0527
 4840TIP3    H136083   1.843   7.020   7.565  0.3829  1.2963  0.3941
 4840TIP3    H236084   1.939   6.907   7.596 -0.7168  0.2058 -0.0888
 4841TIP3   OH236085   1.237   1.206   6.207 -0.1117  0.2692  0.5218
 4841TIP3    H136086   1.277   1.291   6.186 -0.7175  0.3289 -0.4250
 4841TIP3    H236087   1.149   1.228   6.238 -0.4699 -0.0377 -0.2604
 4842TIP3   OH236088   0.458   1.994   0.534 -0.0206 -0.1051 -0.1493
 4842TIP3    H136089   0.454   1.920   0.594 -1.6458  1.0090  1.2187
 4842TIP3    H236090   0.544   2.032   0.548  0.4364 -1.1291 -0.1293
 4843TIP3   OH236091   2.263   0.368   8.129 -0.4506 -0.0237 -0.1063
 4843TIP3    H136092   2.313   0.311   8.189  0.4646  0.8755  0.0104
 4843TIP3    H236093   2.254   0.450   8.176  0.0836  0.6217 -1.0928
 4844TIP3   OH236094   3.102   3.503   0.792 -0.7472  0.1019 -0.3058
 4844TIP3    H136095   3.028   3.446   0.814 -0.8283  0.3125 -0.0269
 4844TIP3    H236096   3.068   3.592   0.803 -0.4420  0.1979 -0.1410
 4845TIP3   OH236097   0.224   1.103   1.979  0.2011 -0.0886 -0.0874
 4845TIP3    H136098   0.144   1.124   1.929  0.9909  0.3203 -1.2171
 4845TIP3    H236099   0.236   1.009   1.966  0.7784  0.1304 -1.2800
 4846TIP3   OH236100   5.620   3.708   7.206 -0.3457  0.8114 -0.1934
 4846TIP3    H136101   5.563   3.639   7.240  1.7231 -1.5220 -1.1314
 4846TIP3    H236102   5.705   3.690   7.246  0.4780  2.2531 -1.2065
 4847TIP3   OH236103   6.743   0.174   7.294  0.7649 -0.3433  0.3219
 4847TIP3    H136104   6.810   0.111   7.267  0.8952  0.2236 -0.7269
 4847TIP3    H236105   6.739   0.237   7.223 -1.3613 -0.7137  0.0459
 4848TIP3   OH236106   0.942   2.167   2.073  0.4810 -0.0502  0.4161
 4848TIP3    H136107   0.983   2.093   2.119  1.4447  0.3455  0.2161
 4848TIP3    H236108   0.956   2.242   2.131  0.0270  0.0949  0.3448
 4849TIP3   OH236109   5.375   5.875   1.720 -0.1155 -0.6413  0.1251
 4849TIP3    H136110   5.305   5.910   1.664 -0.3686 -0.5021  0.5248
 4849TIP3    H236111   5.384   5.784   1.693  0.6473 -0.2519 -1.0314
 4850TIP3   OH236112   3.693   1.612   5.848  0.2073  0.5927 -0.0388
 4850TIP3    H136113   3.721   1.702   5.831  0.6215  1.1797  3.0874
 4850TIP3    H236114   3.768   1.559   5.824  0.9558  1.3687  0.5181
 4851TIP3   OH236115   4.485   1.284   6.557  0.0789  0.1484 -0.2572
 4851TIP3    H136116   4.394   1.263   6.536 -0.5755  1.3889  1.1398
 4851TIP3    H236117   4.480   1.367   6.604  2.1244  1.2223 -1.7945
 4852TIP3   OH236118   5.138   6.320   2.249  0.1657  0.1235  0.3574
 4852TIP3    H136119   5.177   6.275   2.324  1.5943 -0.3588 -0.6477
 4852TIP3    H236120   5.196   6.300   2.175 -1.9404 -0.5794 -1.2083
 4853TIP3   OH236121   6.974   3.286   7.048  0.2011  0.0721  0.4876
 4853TIP3    H136122   6.896   3.245   7.084 -0.4391  2.0643  1.4980
 4853TIP3    H236123   7.047   3.245   7.095  0.1592 -3.9385 -2.4717
 4854TIP3   OH236124   1.342   5.536   0.509  0.3693  0.3545 -0.4398
 4854TIP3    H136125   1.381   5.456   0.545 -0.8661 -0.6287 -1.2232
 4854TIP3    H236126   1.261   5.507   0.468 -1.0072  2.2866  0.8005
 4855TIP3   OH236127   1.237   4.657   7.863 -0.0123  0.1486 -0.0464
 4855TIP3    H136128   1.225   4.750   7.881 -1.6360 -0.1251  0.3734
 4855TIP3    H236129   1.267   4.654   7.772 -3.1553  0.9606 -1.2341
 4856TIP3   OH236130   4.760   0.143   6.179 -0.0159  0.5026  0.0116
 4856TIP3    H136131   4.700   0.206   6.138 -0.0289 -0.4606 -1.5465
 4856TIP3    H236132   4.702   0.083   6.226 -0.1947  0.3002 -0.4549
 4857TIP3   OH236133   5.090   2.506   6.287 -0.1964  0.6095  0.3484
 4857TIP3    H136134   5.124   2.425   6.248  0.7837  0.6652  1.0517
 4857TIP3    H236135   5.167   2.560   6.303 -0.9677  2.4094 -1.6098
 4858TIP3   OH236136   0.040   6.312   0.142  0.5285 -0.1419  0.1158
 4858TIP3    H136137   0.009   6.339   0.229  0.2185 -2.8401  0.9370
 4858TIP3    H236138   0.112   6.372   0.122  0.0735  1.0547  1.8625
 4859TIP3   OH236139   6.227   4.978   7.925  0.1756 -0.0589 -0.0762
 4859TIP3    H136140   6.137   5.004   7.944  0.1237 -0.6789  0.5723
 4859TIP3    H236141   6.219   4.912   7.856  0.1861  0.4238 -0.5386
 4860TIP3   OH236142   5.054   5.539   1.768  0.1101 -0.7478  0.1845
 4860TIP3    H136143   5.025   5.453   1.737  0.8439 -0.7879 -0.4075
 4860TIP3    H236144   5.051   5.595   1.691 -1.2903  0.0258  0.7701
 4861TIP3   OH236145   5.006   0.446   7.445  0.0057 -0.5370  0.0475
 4861TIP3    H136146   5.004   0.368   7.501 -1.0874  0.7383  1.8716
 4861TIP3    H236147   4.928   0.495   7.469  0.7169  1.1987 -0.9898
 4862TIP3   OH236148   6.562   1.996   2.071  0.2558  0.2907 -0.3444
 4862TIP3    H136149   6.615   1.931   2.025  0.9150 -0.5090  1.4491
 4862TIP3    H236150   6.622   2.034   2.136 -0.5987  1.4959 -0.2199
 4863TIP3   OH236151   2.538   6.882   0.844  0.0479 -0.4839  0.0403
 4863TIP3    H136152   2.623   6.841   0.828  0.0520 -1.1706  1.5993
 4863TIP3    H236153   2.555   6.947   0.912 -0.4769  0.1672 -0.4394
 4864TIP3   OH236154   3.582   1.088   7.004 -0.2834  0.4208 -0.1557
 4864TIP3    H136155   3.502   1.140   7.007  1.3180  3.0485  1.6332
 4864TIP3    H236156   3.649   1.149   6.971  1.3218 -1.1547  0.0213
 4865TIP3   OH236157   3.960   5.888   6.129  0.4072 -0.2376 -0.1134
 4865TIP3    H136158   3.952   5.968   6.076  2.4119  0.0939  0.0261
 4865TIP3    H236159   3.870   5.870   6.157 -0.3972  0.7920 -1.8410
 4866TIP3   OH236160   4.090   1.258   7.884 -0.5928 -0.4322  0.0739
 4866TIP3    H136161   4.080   1.261   7.789 -0.1869  0.2269  0.0522
 4866TIP3    H236162   4.034   1.328   7.916 -1.0312 -0.9049  0.3488
 4867TIP3   OH236163   6.252   1.444   1.247 -0.2068 -0.0107  0.3078
 4867TIP3    H136164   6.287   1.471   1.332 -0.2141 -0.2155  0.3780
 4867TIP3    H236165   6.240   1.349   1.256  0.0249 -0.0712 -0.0029
 4868TIP3   OH236166   1.668   2.366   1.486 -0.4772 -0.5442  0.0454
 4868TIP3    H136167   1.594   2.375   1.546  0.6360  1.4197  1.2705
 4868TIP3    H236168   1.630   2.371   1.399 -1.7975  0.6811  0.6486
 4869TIP3   OH236169   1.746   3.642   1.501  0.4542 -0.1416 -0.5247
 4869TIP3    H136170   1.676   3.586   1.467  0.1008  0.6091 -1.0617
 4869TIP3    H236171   1.707   3.684   1.579  0.2328  0.4198 -0.9320
 4870TIP3   OH236172   2.435   3.782   0.978 -0.1717  0.0500 -0.2106
 4870TIP3    H136173   2.372   3.843   1.016 -0.8759 -0.6071 -0.2995
 4870TIP3    H236174   2.468   3.828   0.901 -0.8739  0.2289 -0.4182
 4871TIP3   OH236175   1.167   1.589   1.869  0.2995  0.1737 -0.0053
 4871TIP3    H136176   1.093   1.528   1.866  0.9862 -0.7170  0.6384
 4871TIP3    H236177   1.176   1.621   1.780 -2.1749  1.9297  0.2843
 4872TIP3   OH236178   0.965   0.184   1.262 -0.0636 -0.3524 -0.3084
 4872TIP3    H136179   0.877   0.216   1.285 -0.0785 -0.3437 -0.3778
 4872TIP3    H236180   1.024   0.236   1.317 -0.1785 -1.3312  0.7888
 4873TIP3   OH236181   6.667   3.887   1.829  0.0791  0.3877  0.3381
 4873TIP3    H136182   6.740   3.906   1.888  0.1276 -0.6417  0.6389
 4873TIP3    H236183   6.647   3.971   1.788  1.1834  0.7666  0.5296
 4874TIP3   OH236184   1.583   5.013   6.445 -0.3448  0.0445 -0.0059
 4874TIP3    H136185   1.662   4.965   6.471  0.1097  0.4567 -0.5982
 4874TIP3    H236186   1.576   4.998   6.351 -0.4848  0.7214 -0.1064
 4875TIP3   OH236187   4.664   3.289   6.406  0.3465 -0.3852 -0.2868
 4875TIP3    H136188   4.632   3.330   6.326  0.2462 -2.6941 -1.5076
 4875TIP3    H236189   4.744   3.338   6.428  0.3502  0.3247 -1.7699
 4876TIP3   OH236190   0.932   6.891   0.444  0.0781 -0.2845  0.5062
 4876TIP3    H136191   1.002   6.922   0.387  0.2209 -2.2643 -0.4706
 4876TIP3    H236192   0.967   6.901   0.533  0.1289  2.1610  0.2702
 4877TIP3   OH236193   3.353   1.731   6.472  0.3365  0.0282 -0.5512
 4877TIP3    H136194   3.378   1.772   6.389  1.4949  1.3207  0.3876
 4877TIP3    H236195   3.259   1.749   6.480  0.6784  2.0172 -0.4866
 4878TIP3   OH236196   5.594   0.647   1.543 -0.4170  0.1495  0.8026
 4878TIP3    H136197   5.608   0.701   1.621 -0.6669 -1.2373  1.8409
 4878TIP3    H236198   5.647   0.690   1.475  1.0870  0.5239  2.1336
 4879TIP3   OH236199   2.856   6.427   1.116  0.3815  0.3484  0.1461
 4879TIP3    H136200   2.823   6.434   1.027 -0.4470 -0.3146  0.3901
 4879TIP3    H236201   2.788   6.466   1.171  0.3555 -0.2804  0.5806
 4880TIP3   OH236202   3.403   3.270   0.413  0.0195  0.4729  0.1649
 4880TIP3    H136203   3.330   3.246   0.469 -0.4737 -0.1209 -0.7055
 4880TIP3    H236204   3.422   3.190   0.362 -0.0036  1.1795 -0.9934
 4881TIP3   OH236205   4.204   5.391   1.730 -0.1127 -0.0806 -0.5485
 4881TIP3    H136206   4.154   5.320   1.690  0.4597 -0.1382 -1.1817
 4881TIP3    H236207   4.218   5.363   1.820 -1.0929 -0.1259 -0.4008
 4882TIP3   OH236208   0.507   4.891   7.236  0.0029 -0.0040  0.3180
 4882TIP3    H136209   0.430   4.903   7.180 -0.3559 -0.0440  0.7925
 4882TIP3    H236210   0.572   4.850   7.179 -0.1891  0.3901 -0.1938
 4883TIP3   OH236211   3.550   3.927   8.167  0.3602  0.7503 -0.2424
 4883TIP3    H136212   3.559   3.938   8.262  0.5419 -1.0172 -0.0129
 4883TIP3    H236213   3.457   3.944   8.150  0.1116  0.1577  0.4308
 4884TIP3   OH236214   3.574   5.964   1.812 -0.2009  0.0553 -0.3223
 4884TIP3    H136215   3.546   6.033   1.752 -1.2039  0.1168  0.1904
 4884TIP3    H236216   3.502   5.902   1.812  0.4289 -0.6921 -0.2980
 4885TIP3   OH236217   6.250   0.230   6.790 -0.0832 -0.4601  0.2233
 4885TIP3    H136218   6.305   0.215   6.713  0.6597  2.5060  0.0669
 4885TIP3    H236219   6.303   0.286   6.847 -1.2109 -1.3233  2.2448
 4886TIP3   OH236220   3.939   1.005   0.918  0.3350 -1.0918  0.4457
 4886TIP3    H136221   3.905   1.069   0.980  0.9947 -0.0094 -0.2882
 4886TIP3    H236222   3.986   1.056   0.852  0.4629 -2.2858 -0.4369
 4887TIP3   OH236223   1.907   5.535   7.958 -0.2758  0.0305 -0.0701
 4887TIP3    H136224   1.922   5.594   8.032 -1.0842  0.5396 -0.3009
 4887TIP3    H236225   1.944   5.580   7.883 -0.7785  0.1913 -0.2250
 4888TIP3   OH236226   4.063   2.358   7.582 -0.4484  0.2227 -0.1599
 4888TIP3    H136227   4.138   2.390   7.631 -1.0277  0.7571  0.3879
 4888TIP3    H236228   4.062   2.411   7.502 -0.3052  0.2766 -0.1269
 4889TIP3   OH236229   4.000   2.742   0.455  0.6733  0.2611  0.1335
 4889TIP3    H136230   3.950   2.746   0.536 -0.6247 -0.1215 -0.6253
 4889TIP3    H236231   4.091   2.752   0.483  0.3692 -1.0576  1.7675
 4890TIP3   OH236232   3.229   0.280   0.592 -0.0784 -0.2684 -0.2867
 4890TIP3    H136233   3.283   0.264   0.515 -2.0871 -1.2942 -1.5592
 4890TIP3    H236234   3.268   0.357   0.633  2.4399 -1.0690 -0.9849
 4891TIP3   OH236235   3.257   1.455   7.917 -0.0720 -0.0053 -0.2825
 4891TIP3    H136236   3.346   1.488   7.922 -0.2181  0.2487  3.1549
 4891TIP3    H236237   3.266   1.364   7.890  1.3680 -0.2925  1.0298
 4892TIP3   OH236238   6.230   3.739   7.441 -0.1993 -0.3051  0.1423
 4892TIP3    H136239   6.233   3.801   7.369 -0.8575 -0.8597 -0.3713
 4892TIP3    H236240   6.143   3.751   7.479  0.9512  1.7239  2.4322
 4893TIP3   OH236241   1.718   2.293   7.866 -0.0157 -0.4829  0.1961
 4893TIP3    H136242   1.764   2.250   7.938 -0.9798  0.7036  1.5517
 4893TIP3    H236243   1.657   2.226   7.833  0.4705 -1.0453  0.4128
 4894TIP3   OH236244   6.258   6.729   8.293  0.4674 -0.1891 -0.0160
 4894TIP3    H136245   6.218   6.816   8.305 -0.3492 -0.6249  0.5058
 4894TIP3    H236246   6.292   6.706   8.380 -1.5283 -1.4460  0.4854
 4895TIP3   OH236247   0.995   4.492   1.995 -0.0714 -0.0083  0.1797
 4895TIP3    H136248   0.908   4.529   2.014 -0.4420 -0.6322 -0.2627
 4895TIP3    H236249   0.987   4.399   2.019  0.2611 -0.2172 -0.4981
 4896TIP3   OH236250   6.322   2.537   0.255 -0.4418 -0.5426 -0.0752
 4896TIP3    H136251   6.317   2.545   0.351 -2.7543 -2.5546  0.0567
 4896TIP3    H236252   6.260   2.603   0.223  0.5635  0.3464 -0.2449
 4897TIP3   OH236253   4.228   0.192   6.776  0.8178  0.2213  0.1574
 4897TIP3    H136254   4.265   0.200   6.688 -0.3866  0.5469 -0.3419
 4897TIP3    H236255   4.150   0.138   6.764  0.1201  1.0464  0.8682
 4898TIP3   OH236256   0.769   4.625   1.547 -0.2388 -0.2833 -0.1507
 4898TIP3    H136257   0.822   4.553   1.581 -0.4880 -1.9454 -2.9739
 4898TIP3    H236258   0.697   4.633   1.608  0.1356 -2.0231  0.5887
 4899TIP3   OH236259   5.375   5.107   6.710  0.7425 -0.3793  0.0122
 4899TIP3    H136260   5.434   5.180   6.724  0.1836  0.1461 -0.3406
 4899TIP3    H236261   5.342   5.085   6.797 -1.0676  1.4816 -0.1329
 4900TIP3   OH236262   0.354   2.311   7.809 -0.0102 -0.4075 -0.6927
 4900TIP3    H136263   0.390   2.296   7.896 -0.4429 -0.0661 -0.4458
 4900TIP3    H236264   0.299   2.389   7.820  1.0121  0.4668 -1.5858
 4901TIP3   OH236265   4.085   2.351   2.465 -0.3750 -0.0510 -0.4301
 4901TIP3    H136266   4.090   2.286   2.395 -0.7000 -0.0221 -0.4794
 4901TIP3    H236267   4.162   2.334   2.519 -0.8663 -0.9700 -0.0097
 4902TIP3   OH236268   0.415   0.668   8.404  0.5063 -0.3919  0.2313
 4902TIP3    H136269   0.401   0.747   8.455  1.1496 -0.3203  0.3157
 4902TIP3    H236270   0.435   0.601   8.470  0.0271 -0.6055  0.1569
 4903TIP3   OH236271   5.030   3.780   0.160  0.1792 -0.2651 -0.1465
 4903TIP3    H136272   4.958   3.832   0.124  0.1131 -0.6422 -0.5676
 4903TIP3    H236273   5.006   3.764   0.251  1.1701  2.2193  0.6561
 4904TIP3   OH236274   2.302   5.972   6.316 -0.2503 -0.5048  0.2002
 4904TIP3    H136275   2.244   5.935   6.249  0.0815 -0.8371  0.0904
 4904TIP3    H236276   2.365   6.025   6.267  0.2007 -1.0185  0.2039
 4905TIP3   OH236277   1.932   4.592   1.523 -0.5135 -0.2085 -0.1686
 4905TIP3    H136278   1.870   4.641   1.468 -0.0856 -0.4214 -0.8598
 4905TIP3    H236279   1.895   4.504   1.528 -0.6135 -0.1576 -0.0191
 4906TIP3   OH236280   0.378   6.720   1.971 -0.1615  0.4174  0.5291
 4906TIP3    H136281   0.455   6.776   1.984 -1.1350  1.9918 -0.0934
 4906TIP3    H236282   0.390   6.647   2.032  1.0784  1.4107  1.5327
 4907TIP3   OH236283   5.896   6.190   6.550  0.2088  0.3881 -0.5877
 4907TIP3    H136284   5.962   6.146   6.496 -0.8867 -2.0045 -0.1040
 4907TIP3    H236285   5.825   6.126   6.558 -2.3983  2.9584 -1.4119
 4908TIP3   OH236286   1.386   4.446   1.163  0.1198  0.2686  0.3424
 4908TIP3    H136287   1.367   4.360   1.201  0.1363  0.6927  1.3419
 4908TIP3    H236288   1.302   4.474   1.126 -0.1240  0.2071  0.8263
 4909TIP3   OH236289   4.592   3.944   6.827  0.6102  0.5485  0.2752
 4909TIP3    H136290   4.684   3.931   6.850  0.5049 -2.2146 -0.5015
 4909TIP3    H236291   4.547   3.868   6.863 -0.8553  0.2676 -1.9209
 4910TIP3   OH236292   6.400   5.781   0.736 -0.0882  0.8609  0.4726
 4910TIP3    H136293   6.353   5.817   0.661  1.1072 -0.8100 -1.1521
 4910TIP3    H236294   6.471   5.730   0.698 -1.3088 -2.7736  2.5406
 4911TIP3   OH236295   0.103   3.021   1.667 -0.6976 -0.3216  0.3862
 4911TIP3    H136296   0.127   3.032   1.575 -1.4564 -0.3934  0.1712
 4911TIP3    H236297   0.047   3.096   1.686  1.3256  0.9972  1.4783
 4912TIP3   OH236298   0.200   5.280   7.183  0.4083 -0.0114  0.5316
 4912TIP3    H136299   0.109   5.248   7.182  0.1051  0.8172  0.9298
 4912TIP3    H236300   0.243   5.227   7.251  0.2919 -0.5742  0.1739
 4913TIP3   OH236301   3.026   0.313   1.667  0.4138  1.1150 -0.2419
 4913TIP3    H136302   3.009   0.260   1.744 -1.8766  0.7245 -0.9316
 4913TIP3    H236303   3.068   0.392   1.701  2.3094 -0.3435  0.9857
 4914TIP3   OH236304   1.016   1.477   6.125  0.0168 -0.0812 -0.1766
 4914TIP3    H136305   1.108   1.500   6.109  0.1850  1.4846  2.4422
 4914TIP3    H236306   1.014   1.450   6.216 -1.9450 -1.4604 -0.5639
 4915TIP3   OH236307   3.915   6.843   0.288  0.5653  0.1033  0.1706
 4915TIP3    H136308   3.933   6.829   0.195  1.7504 -2.0967  0.6650
 4915TIP3    H236309   3.860   6.769   0.313 -3.4282  2.8300  0.3860
 4916TIP3   OH236310   4.768   1.434   0.393  0.1254  0.1288  0.5215
 4916TIP3    H136311   4.843   1.393   0.437  2.1183  1.4898 -1.3973
 4916TIP3    H236312   4.737   1.368   0.332  0.2319 -0.1790  0.7960
 4917TIP3   OH236313   4.054   0.673   1.621  0.2690 -0.1091 -0.3645
 4917TIP3    H136314   4.096   0.692   1.537  1.4036 -1.2968 -0.0897
 4917TIP3    H236315   4.050   0.578   1.625 -1.2592 -0.0514  0.2348
 4918TIP3   OH236316   1.958   6.133   6.514 -0.0436 -0.4438  0.0091
 4918TIP3    H136317   1.903   6.083   6.454 -0.4477 -0.4565  0.3776
 4918TIP3    H236318   1.958   6.222   6.478  0.2936 -0.6030 -0.3901
 4919TIP3   OH236319   2.100   6.123   7.568  0.6978  0.3928 -0.2547
 4919TIP3    H136320   2.156   6.045   7.571  0.2095  0.0659  0.7385
 4919TIP3    H236321   2.077   6.131   7.475  0.0501 -1.1915 -0.2808
 4920TIP3   OH236322   2.738   1.602   7.002  0.6109  0.1676 -0.3686
 4920TIP3    H136323   2.709   1.681   6.957 -0.2858  0.1849  0.2328
 4920TIP3    H236324   2.698   1.607   7.089  1.0842 -0.6191 -0.0972
 4921TIP3   OH236325   4.908   1.589   0.195 -0.7214  0.2868 -0.0653
 4921TIP3    H136326   4.875   1.678   0.183 -0.7285  0.4624  1.1101
 4921TIP3    H236327   4.851   1.552   0.262  0.5418  0.0979  0.9299
 4922TIP3   OH236328   5.731   1.896   6.394 -0.2550 -0.2491 -0.2850
 4922TIP3    H136329   5.782   1.962   6.346  0.0663  0.5709  1.1393
 4922TIP3    H236330   5.780   1.880   6.474 -0.3790 -2.1855 -0.5363
 4923TIP3   OH236331   4.663   1.735   0.126 -0.1376  0.2606 -0.0006
 4923TIP3    H136332   4.596   1.799   0.102  0.1669 -0.1257 -2.0594
 4923TIP3    H236333   4.638   1.655   0.081 -0.2387 -0.9645  2.1548
 4924TIP3   OH236334   4.809   2.836   8.219  0.1046  0.3896 -0.4092
 4924TIP3    H136335   4.871   2.794   8.278 -0.3287 -1.6537 -1.3078
 4924TIP3    H236336   4.807   2.928   8.247  0.8512 -0.2331  1.8908
 4925TIP3   OH236337   0.512   5.717   6.722  0.1854  0.4448  0.3104
 4925TIP3    H136338   0.478   5.703   6.811  1.4781 -0.2857  0.7201
 4925TIP3    H236339   0.474   5.646   6.671  0.0551  0.4066  0.4569
 4926TIP3   OH236340   2.556   0.834   1.358 -0.1496 -0.2198  0.2996
 4926TIP3    H136341   2.650   0.854   1.352 -0.2697  0.2418 -0.0838
 4926TIP3    H236342   2.530   0.810   1.269 -0.2010 -1.2713  0.5859
 4927TIP3   OH236343   2.541   2.719   7.351  0.5986  0.2300 -0.4507
 4927TIP3    H136344   2.484   2.673   7.413 -2.0144  1.8464 -1.4869
 4927TIP3    H236345   2.630   2.702   7.383 -0.4589 -1.6344  1.8234
 4928TIP3   OH236346   1.710   5.864   1.729 -0.9949  0.1236 -0.3837
 4928TIP3    H136347   1.736   5.831   1.644 -3.1757 -1.9814 -0.3492
 4928TIP3    H236348   1.775   5.830   1.790 -0.0328  0.7440 -1.0437
 4929TIP3   OH236349   4.157   6.476   8.391 -0.2952 -0.0810 -0.6706
 4929TIP3    H136350   4.167   6.570   8.409 -1.5554 -0.0867  0.1572
 4929TIP3    H236351   4.063   6.464   8.379 -0.2028 -1.3275 -0.2531
 4930TIP3   OH236352   0.473   2.836   7.618  0.3941  0.6989 -0.5100
 4930TIP3    H136353   0.489   2.791   7.535  0.1014  0.0178 -0.2074
 4930TIP3    H236354   0.509   2.777   7.684 -0.5914  0.5854 -0.0551
 4931TIP3   OH236355   2.552   4.081   7.786  0.1702  0.3188  0.0655
 4931TIP3    H136356   2.503   3.999   7.781  0.5627 -0.1424  2.5744
 4931TIP3    H236357   2.489   4.148   7.758 -1.2988 -0.4764  1.2968
 4932TIP3   OH236358   1.668   2.455   2.145  0.8247 -0.5832  0.7944
 4932TIP3    H136359   1.655   2.360   2.146 -0.1034 -0.5376 -1.0621
 4932TIP3    H236360   1.633   2.485   2.229 -1.8039 -1.6109  0.1828
 4933TIP3   OH236361   4.735   2.337   2.064 -0.0249  0.3086 -0.5914
 4933TIP3    H136362   4.734   2.414   2.121 -1.3843  0.6756 -1.0806
 4933TIP3    H236363   4.733   2.262   2.123  0.0934  0.6579 -0.1423
 4934TIP3   OH236364   0.031   5.967   7.331  0.0300  0.3931  0.2520
 4934TIP3    H136365   0.025   5.882   7.375 -0.7254  0.4109  0.1960
 4934TIP3    H236366   0.072   5.946   7.247  1.4004  0.3484  0.9009
 4935TIP3   OH236367   0.556   0.869   0.557  0.5229  0.3532 -0.1831
 4935TIP3    H136368   0.525   0.797   0.503  3.7136 -2.8926  1.8004
 4935TIP3    H236369   0.576   0.939   0.495 -0.1008 -1.4821 -2.6176
 4936TIP3   OH236370   6.685   6.863   0.778  0.5883  0.1383  0.1497
 4936TIP3    H136371   6.590   6.861   0.772  0.4613 -0.9397  1.8535
 4936TIP3    H236372   6.713   6.779   0.741  0.9348  0.6790 -0.8514
 4937TIP3   OH236373   4.998   3.149   7.072 -0.2120  0.4855 -0.1008
 4937TIP3    H136374   5.042   3.231   7.049  1.3521  0.0724  1.2477
 4937TIP3    H236375   5.013   3.140   7.166 -1.5199 -0.6980  0.0267
 4938TIP3   OH236376   3.176   3.965   2.780 -0.2487 -0.0211 -0.3181
 4938TIP3    H136377   3.140   3.900   2.720  0.3981 -1.2237  0.5468
 4938TIP3    H236378   3.270   3.965   2.762  0.1937 -1.5083  1.6412
 4939TIP3   OH236379   6.113   0.455   6.986  0.1272  1.0164 -0.1414
 4939TIP3    H136380   6.035   0.444   6.931  0.8959  0.1813 -1.1265
 4939TIP3    H236381   6.160   0.528   6.945 -0.4595  1.9824  0.8699
 4940TIP3   OH236382   4.868   6.382   1.545 -0.1734 -0.0986 -0.1923
 4940TIP3    H136383   4.907   6.348   1.626  1.2279  1.5082 -0.1250
 4940TIP3    H236384   4.774   6.378   1.560 -0.1073 -3.2089  0.0519
 4941TIP3   OH236385   5.908   3.785   6.131  0.2677  0.6255  0.2630
 4941TIP3    H136386   5.871   3.865   6.167  0.3711  0.4403  0.7932
 4941TIP3    H236387   5.926   3.805   6.040  0.1817  1.1680  0.3659
 4942TIP3   OH236388   2.946   6.370   0.214 -0.0567  0.0686  0.3609
 4942TIP3    H136389   2.930   6.457   0.177  1.4032  0.2859  0.1507
 4942TIP3    H236390   2.932   6.311   0.140 -1.4002  0.0702  0.5929
 4943TIP3   OH236391   2.383   0.974   0.015 -0.0306  0.4383 -0.0120
 4943TIP3    H136392   2.363   1.003   0.104 -0.5564 -0.4231  0.1595
 4943TIP3    H236393   2.398   0.880   0.023 -2.0945 -0.0350 -1.1246
 4944TIP3   OH236394   3.652   1.617   2.114 -0.0198 -0.0536 -0.0873
 4944TIP3    H136395   3.743   1.637   2.093 -0.6509  1.8260 -1.3195
 4944TIP3    H236396   3.602   1.651   2.039 -1.6367 -2.5145 -0.2370
 4945TIP3   OH236397   6.316   2.114   2.015 -0.2551  0.2004  0.1753
 4945TIP3    H136398   6.406   2.102   2.046  0.2193  0.7567 -0.9595
 4945TIP3    H236399   6.283   2.025   2.004  0.8348 -0.0506 -1.3063
 4946TIP3   OH236400   0.221   5.488   6.072  0.0248 -0.1449  0.4723
 4946TIP3    H136401   0.309   5.453   6.063 -0.1837 -0.2512 -1.3505
 4946TIP3    H236402   0.174   5.420   6.121  0.0756 -1.7066 -1.5396
 4947TIP3   OH236403   5.747   6.985   7.698  0.4288  0.0693  0.0926
 4947TIP3    H136404   5.744   7.063   7.754  2.1295  1.1916 -1.2548
 4947TIP3    H236405   5.664   6.987   7.651  0.8543  1.6937 -0.6573
 4948TIP3   OH236406   1.329   5.911   1.590 -0.0804  0.1067  0.3277
 4948TIP3    H136407   1.394   5.945   1.652 -0.5540  0.8516  0.4229
 4948TIP3    H236408   1.280   5.846   1.641  1.7611 -1.8539 -0.2573
 4949TIP3   OH236409   6.551   0.267   6.090  0.3681  0.0180 -0.9466
 4949TIP3    H136410   6.643   0.289   6.081  0.4438 -0.9275 -2.9341
 4949TIP3    H236411   6.505   0.347   6.061  0.4905  0.9267  1.1873
 4950TIP3   OH236412   3.673   6.724   0.744 -0.0022 -0.0002 -0.3505
 4950TIP3    H136413   3.684   6.804   0.692 -1.4491  0.2406 -0.3442
 4950TIP3    H236414   3.749   6.670   0.722  1.9024  2.0144  0.8947
 4951TIP3   OH236415   3.348   1.545   1.206  0.1789  0.7700 -0.2128
 4951TIP3    H136416   3.431   1.550   1.253 -0.6500 -1.7200  1.7237
 4951TIP3    H236417   3.281   1.555   1.275 -1.0979 -0.4800 -1.2195
 4952TIP3   OH236418   0.777   0.800   1.245 -0.6153  0.5500 -0.4095
 4952TIP3    H136419   0.745   0.716   1.213 -1.2360  0.3718  0.6535
 4952TIP3    H236420   0.757   0.861   1.174 -0.5472 -0.1139 -1.0092
 4953TIP3   OH236421   1.600   6.919   1.472  0.3813  0.2653  0.4729
 4953TIP3    H136422   1.546   6.991   1.439 -0.2705  0.7785  2.5357
 4953TIP3    H236423   1.542   6.843   1.473  0.6334  0.0518 -0.2599
 4954TIP3   OH236424   0.980   2.070   0.690  0.1023 -0.2855  0.1921
 4954TIP3    H136425   0.973   1.976   0.705  1.1644 -0.1573  1.7071
 4954TIP3    H236426   1.064   2.081   0.647 -0.3194 -0.0696 -0.6006
 4955TIP3   OH236427   0.964   6.297   1.750  0.2299  0.0673 -0.4709
 4955TIP3    H136428   0.923   6.311   1.665 -0.9254 -0.2185  0.0172
 4955TIP3    H236429   1.055   6.323   1.738 -0.5598  2.8968 -1.0010
 4956TIP3   OH236430   2.365   6.337   7.582  0.3348  0.1897  0.6562
 4956TIP3    H136431   2.346   6.247   7.555  0.1269  0.2212  0.6927
 4956TIP3    H236432   2.461   6.343   7.581  0.3855  1.0916 -3.0736
 4957TIP3   OH236433   6.697   5.495   1.743 -0.5612  0.0187  0.5556
 4957TIP3    H136434   6.783   5.487   1.784  0.8222  2.5160 -1.5251
 4957TIP3    H236435   6.647   5.552   1.802 -0.0391  0.2670  0.7623
 4958TIP3   OH236436   3.953   3.794   7.997 -0.0188  0.4424  0.3531
 4958TIP3    H136437   4.003   3.857   8.048 -0.6097  1.5603 -0.4030
 4958TIP3    H236438   3.876   3.775   8.050 -0.0851  0.7373  0.3608
 4959TIP3   OH236439   5.841   3.757   7.947 -0.2705 -0.6608  0.0902
 4959TIP3    H136440   5.766   3.703   7.922 -1.5851  1.4209 -0.7456
 4959TIP3    H236441   5.842   3.754   8.042 -0.9462 -1.3103  0.0872
 4960TIP3   OH236442   2.453   2.185   0.867 -0.1132 -0.2355 -0.6072
 4960TIP3    H136443   2.454   2.240   0.789 -1.1541  0.6927  0.0030
 4960TIP3    H236444   2.502   2.107   0.842  0.7779  0.6482 -1.7336
 4961TIP3   OH236445   3.602   4.948   0.867 -0.3494  0.0414  0.2887
 4961TIP3    H136446   3.559   4.971   0.949 -0.6225  0.4563  0.0349
 4961TIP3    H236447   3.610   5.032   0.821  0.5147 -0.0627  0.2338
 4962TIP3   OH236448   5.118   6.083   6.594  0.0950  0.5250 -0.0606
 4962TIP3    H136449   5.194   6.124   6.552  0.2597  0.1749 -0.1046
 4962TIP3    H236450   5.059   6.063   6.521  0.1272  0.4516 -0.0668
 4963TIP3   OH236451   6.624   1.138   7.852  0.1347 -0.4527  0.0685
 4963TIP3    H136452   6.551   1.199   7.862  0.0640 -0.3305 -1.0744
 4963TIP3    H236453   6.701   1.187   7.882 -0.0163 -0.0381 -0.2236
 4964TIP3   OH236454   5.486   6.321   8.145  0.0207  0.2027  0.4039
 4964TIP3    H136455   5.499   6.361   8.231 -2.3049  0.5640  0.6600
 4964TIP3    H236456   5.442   6.389   8.094 -0.3187 -0.6389 -0.4505
 4965TIP3   OH236457   5.078   0.697   8.317  0.0076  0.3621 -0.5107
 4965TIP3    H136458   5.053   0.770   8.374 -0.5164 -0.4277  0.3006
 4965TIP3    H236459   5.130   0.639   8.373 -2.3591 -1.5470 -0.0991
 4966TIP3   OH236460   1.782   1.355   6.108 -0.4582 -0.2754  0.4818
 4966TIP3    H136461   1.869   1.328   6.138 -0.2964  0.3987  0.6335
 4966TIP3    H236462   1.774   1.446   6.136 -0.2175  0.4613 -1.7233
 4967TIP3   OH236463   2.709   2.878   7.996 -0.5694  0.7398  0.1926
 4967TIP3    H136464   2.629   2.931   7.994 -1.5303 -0.5943  1.2840
 4967TIP3    H236465   2.697   2.814   7.926 -1.7748 -1.1835  2.0390
 4968TIP3   OH236466   5.592   1.753   1.801 -0.2631  0.0328 -0.6974
 4968TIP3    H136467   5.634   1.821   1.749 -0.2432  0.4459 -0.1524
 4968TIP3    H236468   5.501   1.782   1.810 -0.2911 -0.0860 -0.5873
 4969TIP3   OH236469   1.522   1.262   7.534 -0.4673 -0.0146 -0.6046
 4969TIP3    H136470   1.515   1.326   7.463 -0.0130 -0.4609 -1.0629
 4969TIP3    H236471   1.587   1.298   7.593  3.2163 -1.9773 -3.0460
 4970TIP3   OH236472   3.044   3.823   0.779 -0.2013  0.9082 -0.8977
 4970TIP3    H136473   3.088   3.842   0.696  0.3649  0.2326 -0.7618
 4970TIP3    H236474   3.106   3.852   0.846 -0.7113  1.5690 -0.7122
 4971TIP3   OH236475   0.935   2.292   7.736 -0.1655  0.1345 -0.1781
 4971TIP3    H136476   1.030   2.297   7.727 -0.3551  0.0863 -2.7631
 4971TIP3    H236477   0.907   2.231   7.668 -2.0437 -0.1246  0.7499
 4972TIP3   OH236478   1.089   5.377   0.677 -0.1184  0.0903 -0.0269
 4972TIP3    H136479   1.050   5.335   0.600 -2.6668  0.1542  1.1433
 4972TIP3    H236480   1.085   5.310   0.745  0.0013  0.7730  0.6605
 4973TIP3   OH236481   0.926   2.135   7.505  0.2566  0.1998  0.0560
 4973TIP3    H136482   0.839   2.147   7.467 -0.8063  0.4766  2.3783
 4973TIP3    H236483   0.986   2.157   7.434 -1.5614  0.8535 -1.3799
 4974TIP3   OH236484   4.286   4.893   7.317 -0.0218 -0.0057  0.3951
 4974TIP3    H136485   4.268   4.922   7.227  0.9405 -1.2791 -0.2494
 4974TIP3    H236486   4.200   4.883   7.357 -0.4738  0.3202 -0.4745
 4975TIP3   OH236487   5.866   0.686   0.220 -0.2467 -0.1006 -0.3834
 4975TIP3    H136488   5.935   0.750   0.201  1.2460 -1.7296 -0.7747
 4975TIP3    H236489   5.882   0.660   0.310 -0.1118 -0.7582 -0.5934
 4976TIP3   OH236490   1.528   2.902   8.229  0.2350 -0.2565 -0.0575
 4976TIP3    H136491   1.562   2.946   8.151 -0.7957  0.7963  0.0657
 4976TIP3    H236492   1.494   2.818   8.197  0.2283 -0.0275 -0.6522
 4977TIP3   OH236493   5.176   6.451   0.502 -0.1500  0.0239  0.5759
 4977TIP3    H136494   5.133   6.418   0.423 -2.5856  1.7906  1.0442
 4977TIP3    H236495   5.265   6.474   0.474 -0.7319 -0.0704 -1.4613
 4978TIP3   OH236496   0.158   1.513   6.546 -0.5146 -0.0739  0.0669
 4978TIP3    H136497   0.183   1.550   6.630  3.5133 -0.5884 -0.7206
 4978TIP3    H236498   0.130   1.423   6.566  3.3444 -1.2955  0.7695
 4979TIP3   OH236499   5.169   1.908   0.105 -0.1268 -0.3545 -0.4121
 4979TIP3    H136500   5.177   2.002   0.122 -0.2501 -0.5735  0.9125
 4979TIP3    H236501   5.210   1.896   0.019  0.1509  0.8584 -0.4668
 4980TIP3   OH236502   1.718   4.022   0.003 -0.0182 -0.0633  0.1205
 4980TIP3    H136503   1.802   4.031   0.048  0.6352 -2.1970 -0.5353
 4980TIP3    H236504   1.738   4.045  -0.088  0.4700 -2.6564 -0.5047
 4981TIP3   OH236505   4.893   1.814   1.927 -0.3953  0.0983  0.3177
 4981TIP3    H136506   4.842   1.871   1.869 -1.5944 -0.9816  0.2554
 4981TIP3    H236507   4.877   1.726   1.894 -0.8847 -0.5317  2.0911
 4982TIP3   OH236508   0.928   3.888   0.505 -0.0536 -0.3314  0.3825
 4982TIP3    H136509   0.949   3.854   0.418  1.5010  0.7186  0.3239
 4982TIP3    H236510   0.912   3.981   0.491 -2.7691 -0.6410  0.7952
 4983TIP3   OH236511   6.395   1.263   7.082 -0.8659 -0.1183  0.1623
 4983TIP3    H136512   6.328   1.204   7.048 -0.9666  0.7182 -1.1811
 4983TIP3    H236513   6.404   1.331   7.015  0.4022  0.5052  0.9081
 4984TIP3   OH236514   3.444   6.060   0.639 -0.2603 -0.6549  0.0646
 4984TIP3    H136515   3.359   6.042   0.680 -1.7764  1.8867 -1.6960
 4984TIP3    H236516   3.435   6.026   0.550 -0.4315  1.7716 -0.9152
 4985TIP3   OH236517   5.477   4.534   6.748  0.1874 -0.4046  0.4936
 4985TIP3    H136518   5.487   4.603   6.683 -1.9985 -0.1751  0.3554
 4985TIP3    H236519   5.561   4.488   6.746  0.5404  0.2191 -1.7548
 4986TIP3   OH236520   1.768   6.200   0.506  0.5016 -0.1608  0.7087
 4986TIP3    H136521   1.794   6.184   0.415 -1.8309 -2.3233  0.3008
 4986TIP3    H236522   1.751   6.294   0.510  1.4246  0.1010 -0.8500
 4987TIP3   OH236523   3.695   4.771   0.434 -0.2056 -0.2261  0.0350
 4987TIP3    H136524   3.691   4.854   0.480 -2.0631 -0.3698  0.1786
 4987TIP3    H236525   3.732   4.710   0.498 -0.6678  0.0684  0.5851
 4988TIP3   OH236526   4.473   1.136   8.193 -0.0038 -0.1768 -0.2439
 4988TIP3    H136527   4.498   1.108   8.104 -0.3115  1.6269 -0.9451
 4988TIP3    H236528   4.389   1.093   8.209 -0.4801  0.3243 -1.2912
 4989TIP3   OH236529   3.063   0.785   7.052  0.3269  0.4884 -0.1778
 4989TIP3    H136530   3.111   0.857   7.093  0.1348  0.9499 -0.7499
 4989TIP3    H236531   3.034   0.821   6.968 -0.8090  0.1446  0.0545
 4990TIP3   OH236532   0.343   5.054   1.825 -0.1959  0.5070 -0.5563
 4990TIP3    H136533   0.430   5.030   1.794 -0.6205 -0.9478 -0.6897
 4990TIP3    H236534   0.355   5.069   1.919  0.2224  0.4394 -0.5980
 4991TIP3   OH236535   3.767   6.900   0.551  0.3187 -0.6331 -0.2701
 4991TIP3    H136536   3.778   6.984   0.506  1.3967 -0.3063  0.5810
 4991TIP3    H236537   3.778   6.834   0.481  1.9683 -0.1323 -0.5296
 4992TIP3   OH236538   6.344   1.954   7.797  0.3878  0.6843  0.3019
 4992TIP3    H136539   6.405   1.922   7.731  0.4252 -0.3181  0.7997
 4992TIP3    H236540   6.282   2.008   7.749  0.5177  0.1129 -0.5225
 4993TIP3   OH236541   3.918   2.662   1.148  0.3906  0.1518 -0.3799
 4993TIP3    H136542   3.982   2.688   1.215 -0.9173 -0.2144  1.0637
 4993TIP3    H236543   3.834   2.695   1.180 -0.3012 -0.1232 -1.8129
 4994TIP3   OH236544   6.486   5.053   6.385 -0.4531  0.1405 -0.1523
 4994TIP3    H136545   6.579   5.070   6.367  0.1290 -0.7542  1.7621
 4994TIP3    H236546   6.446   5.048   6.298  0.7993  2.8928 -1.0167
 4995TIP3   OH236547   0.498   0.349   1.753  0.2111  0.2647 -0.1442
 4995TIP3    H136548   0.526   0.269   1.797 -0.0633 -0.1709 -0.7444
 4995TIP3    H236549   0.508   0.418   1.819  0.6715 -0.2235  0.3032
 4996TIP3   OH236550   0.502   4.691   8.065  0.0413 -0.1207  0.0229
 4996TIP3    H136551   0.587   4.728   8.091  0.3984 -0.3479 -0.7868
 4996TIP3    H236552   0.487   4.726   7.977  0.5948 -2.1920 -0.9469
 4997TIP3   OH236553   0.555   1.969   8.254 -0.7409 -0.1598 -0.3461
 4997TIP3    H136554   0.637   2.009   8.225 -0.9283  0.5779  0.1024
 4997TIP3    H236555   0.512   2.038   8.304 -1.1733 -0.8712  0.2743
 4998TIP3   OH236556   0.299   2.455   0.982  0.2948 -0.3412 -0.0983
 4998TIP3    H136557   0.299   2.453   0.886 -0.6213 -1.7560 -0.1048
 4998TIP3    H236558   0.214   2.492   1.005  1.3780  2.1287  0.2125
 4999TIP3   OH236559   4.920   2.855   2.374 -1.0107  0.0058  0.4029
 4999TIP3    H136560   4.914   2.785   2.440  0.3112  0.0844  0.6460
 4999TIP3    H236561   4.830   2.867   2.343 -1.1864 -2.2821 -0.1613
 5000TIP3   OH236562   1.264   2.087   2.079 -0.1705 -0.1382 -0.1699
 5000TIP3    H136563   1.325   2.105   2.007  0.0475  0.6460  0.2059
 5000TIP3    H236564   1.219   2.007   2.052  0.6482 -0.4364 -0.6958
 5001TIP3   OH236565   5.884   3.433   6.468  0.1886 -0.8093 -0.3878
 5001TIP3    H136566   5.890   3.506   6.406 -0.9900  0.0119  0.4296
 5001TIP3    H236567   5.880   3.355   6.412 -1.8964 -0.0259 -1.4342
 5002TIP3   OH236568   6.359   4.072   6.377  0.0237 -0.6189 -0.1360
 5002TIP3    H136569   6.265   4.080   6.365  0.0657 -0.2310 -0.2121
 5002TIP3    H236570   6.397   4.109   6.298  0.2216 -2.1194 -0.7859
 5003TIP3   OH236571   1.093   1.080   2.057 -0.2424 -0.0556 -0.1664
 5003TIP3    H136572   1.122   1.004   2.107 -0.2253  0.6848  0.9694
 5003TIP3    H236573   1.173   1.113   2.015 -0.1270 -0.2520 -0.1011
 5004TIP3   OH236574   1.510   5.051   7.067  0.3628 -0.0089 -0.0722
 5004TIP3    H136575   1.579   5.053   7.001  1.4884  0.1992  1.0703
 5004TIP3    H236576   1.510   5.138   7.106 -1.0999  0.2431 -0.5837
 5005TIP3   OH236577   6.627   1.986   1.492  0.2205 -0.1967 -0.5442
 5005TIP3    H136578   6.622   2.025   1.579 -3.6215 -0.1458 -0.5872
 5005TIP3    H236579   6.688   1.913   1.501  0.2109  0.0374  2.1173
 5006TIP3   OH236580   0.765   5.377   0.164 -0.4668  0.1886  0.5348
 5006TIP3    H136581   0.679   5.399   0.202 -0.6342  1.0693 -0.2939
 5006TIP3    H236582   0.812   5.460   0.162 -0.0355 -0.0599 -0.0953
 5007TIP3   OH236583   5.157   6.853   0.470  0.1552  1.1774  0.1435
 5007TIP3    H136584   5.222   6.811   0.526 -0.5654  0.8709  0.7691
 5007TIP3    H236585   5.077   6.853   0.522 -0.5185  0.9458 -0.8602
 5008TIP3   OH236586   1.857   0.912   5.894  0.0752 -0.4463  0.0372
 5008TIP3    H136587   1.945   0.890   5.866 -0.3593 -2.0133 -0.1969
 5008TIP3    H236588   1.842   1.000   5.859  0.7720 -0.9966 -1.7846
 5009TIP3   OH236589   6.271   1.056   7.519  0.5119 -0.2705 -0.0472
 5009TIP3    H136590   6.274   1.013   7.605 -1.4471 -2.6634 -1.0584
 5009TIP3    H236591   6.231   1.140   7.536  0.5189 -0.5378  1.4423
 5010TIP3   OH236592   0.489   2.978   6.554 -0.0004 -0.1562 -0.1663
 5010TIP3    H136593   0.429   2.911   6.585 -0.7604  0.3480 -0.5261
 5010TIP3    H236594   0.542   2.933   6.488 -0.6001 -0.3723 -0.5095
 5011TIP3   OH236595   5.635   1.147   7.737  0.0578  0.4436 -0.4909
 5011TIP3    H136596   5.725   1.132   7.765 -0.6252 -0.3920  1.4584
 5011TIP3    H236597   5.620   1.082   7.669  0.6692 -0.0424 -0.1795
 5012TIP3   OH236598   2.125   4.163   1.735 -0.3692  0.0690 -0.4034
 5012TIP3    H136599   2.154   4.185   1.647 -1.2522  0.1592 -0.6812
 5012TIP3    H236600   2.200   4.182   1.791  0.2416 -0.1108 -1.1476
 5013TIP3   OH236601   4.525   3.583   7.469 -0.3998  0.0873 -0.2770
 5013TIP3    H136602   4.528   3.553   7.560 -1.2984 -2.2681 -0.9472
 5013TIP3    H236603   4.447   3.638   7.465  0.5549  1.5674  0.7096
 5014TIP3   OH236604   0.850   2.494   7.525 -0.6725  0.2270  0.3157
 5014TIP3    H136605   0.840   2.581   7.563  0.2671 -0.6825  2.8818
 5014TIP3    H236606   0.863   2.436   7.601 -1.3613 -2.1774 -1.2719
 5015TIP3   OH236607   3.504   5.339   1.051 -0.4470  0.4919 -0.4380
 5015TIP3    H136608   3.562   5.384   0.990 -0.9924  0.0126 -1.3232
 5015TIP3    H236609   3.460   5.409   1.099  1.5925  0.8928  1.0212
 5016TIP3   OH236610   6.256   1.306   6.719 -0.1269 -0.8227  0.2027
 5016TIP3    H136611   6.250   1.222   6.673  0.2164 -1.0923  0.6411
 5016TIP3    H236612   6.187   1.360   6.679  0.4419 -0.8987 -0.9105
 5017TIP3   OH236613   1.856   2.256   6.498 -0.3956  0.1376 -1.3980
 5017TIP3    H136614   1.885   2.307   6.573  0.3647  1.2256 -2.3990
 5017TIP3    H236615   1.771   2.292   6.475 -0.0833  0.6460 -1.7922
 5018TIP3   OH236616   0.505   4.139   1.429  0.1643 -0.2415  0.1400
 5018TIP3    H136617   0.558   4.196   1.373  1.7629  0.3012  2.0731
 5018TIP3    H236618   0.493   4.059   1.378  1.1913  0.3832 -1.1300
 5019TIP3   OH236619   3.236   3.118   0.056 -0.3561  0.0168  0.5120
 5019TIP3    H136620   3.217   3.077  -0.028  1.9976  0.5783 -0.3843
 5019TIP3    H236621   3.180   3.072   0.119 -0.4580 -2.0565 -0.9882
 5020TIP3   OH236622   0.316   0.118   0.668 -0.1486 -0.1326 -0.6115
 5020TIP3    H136623   0.340   0.124   0.760 -0.6664 -0.5678 -0.4401
 5020TIP3    H236624   0.229   0.077   0.669  1.0008 -2.7985 -1.4077
 5021TIP3   OH236625   6.166   6.045   7.048 -0.1032 -0.1545  0.2312
 5021TIP3    H136626   6.219   6.050   7.128  0.1510 -0.3552  0.0751
 5021TIP3    H236627   6.135   6.135   7.035 -2.0683 -0.5236  1.8520
 5022TIP3   OH236628   2.382   2.119   7.864  0.1373 -0.2390 -0.5371
 5022TIP3    H136629   2.470   2.091   7.890  0.3326  0.1574 -0.7651
 5022TIP3    H236630   2.368   2.076   7.780 -0.2160 -0.9612 -0.1129
 5023TIP3   OH236631   4.015   5.942   6.979  0.2109  0.2871  0.1005
 5023TIP3    H136632   3.984   6.024   7.018  1.7977  0.6698  0.6437
 5023TIP3    H236633   3.958   5.928   6.903 -0.7245  1.3599  0.5781
 5024TIP3   OH236634   6.940   0.950   7.553 -0.3011 -0.1441 -0.4603
 5024TIP3    H136635   6.889   1.000   7.489 -1.8261  0.8328  1.4022
 5024TIP3    H236636   6.875   0.898   7.600  0.8774 -1.4491 -0.1991
 5025TIP3   OH236637   5.764   0.009   1.972 -0.3265 -0.1487 -0.4311
 5025TIP3    H136638   5.716  -0.074   1.967 -0.4572 -0.2137  1.1660
 5025TIP3    H236639   5.707   0.065   2.024  0.5647  0.3475  0.0256
 5026TIP3   OH236640   3.726   4.913   7.895  0.1177 -0.0294  0.1051
 5026TIP3    H136641   3.688   4.942   7.978 -0.0469  0.4080 -0.1195
 5026TIP3    H236642   3.693   4.824   7.883 -0.1187  0.0254  0.3486
 5027TIP3   OH236643   1.889   6.114   1.456  0.0884  0.2856 -0.0203
 5027TIP3    H136644   1.934   6.147   1.378  3.5946 -0.9335  1.2715
 5027TIP3    H236645   1.827   6.049   1.423  0.3864  0.8799 -1.8511
 5028TIP3   OH236646   3.240   3.768   1.652 -0.3443 -1.0188  0.7905
 5028TIP3    H136647   3.260   3.752   1.559  0.9870 -2.1433  1.2342
 5028TIP3    H236648   3.172   3.705   1.674  0.0563 -1.4420  0.8243
 5029TIP3   OH236649   3.845   4.209   7.933 -0.1201 -0.3780 -0.4920
 5029TIP3    H136650   3.847   4.303   7.951 -1.8406 -0.3587 -0.2083
 5029TIP3    H236651   3.821   4.169   8.016 -0.6040 -0.9596 -0.9032
 5030TIP3   OH236652   0.418   5.774   0.123  0.1485 -0.1946 -0.1207
 5030TIP3    H136653   0.380   5.778   0.035 -0.6893  2.3722  0.2821
 5030TIP3    H236654   0.350   5.811   0.180  1.0379 -0.9422  1.4862
 5031TIP3   OH236655   5.345   6.308   7.774  0.4234  0.9243  0.2133
 5031TIP3    H136656   5.391   6.388   7.750 -0.1621  1.4476  0.7999
 5031TIP3    H236657   5.253   6.327   7.755  0.4415 -0.1775 -1.1553
 5032TIP3   OH236658   6.960   4.840   1.547 -0.3940  0.5585 -0.5771
 5032TIP3    H136659   6.996   4.757   1.515 -1.2332  0.1487 -0.5001
 5032TIP3    H236660   7.036   4.897   1.558  0.3231 -0.5447  0.3920
 5033TIP3   OH236661   3.691   0.564   8.223  0.3318 -0.2708 -1.0044
 5033TIP3    H136662   3.639   0.494   8.182  0.9606 -1.3927  0.0373
 5033TIP3    H236663   3.736   0.520   8.295 -0.0610  1.4492  0.3360
 5034TIP3   OH236664   2.820   0.669   1.638 -0.4398 -0.9501 -0.1168
 5034TIP3    H136665   2.770   0.589   1.623  0.3838 -1.4905 -0.0802
 5034TIP3    H236666   2.886   0.644   1.702 -0.3241 -0.1686  0.0797
 5035TIP3   OH236667   5.895   5.272   8.186  0.2638  0.1279 -0.1482
 5035TIP3    H136668   5.844   5.300   8.110  0.5158  0.5660 -0.1611
 5035TIP3    H236669   5.986   5.284   8.159  0.3505  0.4096  0.2662
 5036TIP3   OH236670   4.002   0.882   7.361 -0.2611 -0.3607  0.0070
 5036TIP3    H136671   4.010   0.861   7.268  0.2347  3.8663 -1.0914
 5036TIP3    H236672   4.092   0.890   7.393 -0.3538  1.5537 -0.1147
 5037TIP3   OH236673   1.665   5.048   6.184  1.0087  0.0517  0.0473
 5037TIP3    H136674   1.746   5.095   6.168  0.3111  0.6590 -2.0862
 5037TIP3    H236675   1.669   4.972   6.126  0.0641  0.1061 -0.1143
 5038TIP3   OH236676   4.529   2.756   7.267 -0.5541  0.4050 -0.3725
 5038TIP3    H136677   4.530   2.677   7.321 -2.3052 -0.3058 -1.2992
 5038TIP3    H236678   4.476   2.819   7.317 -0.8460  0.2977 -0.5481
 5039TIP3   OH236679   6.836   6.455   1.822 -0.3536 -0.7709  0.1033
 5039TIP3    H136680   6.800   6.543   1.837  1.3501  0.5045 -2.4357
 5039TIP3    H236681   6.874   6.430   1.906 -2.4774  0.0604  1.3936
 5040TIP3   OH236682   6.066   6.113   8.221  0.0363  0.2077 -0.3366
 5040TIP3    H136683   6.031   6.162   8.147 -1.3851 -2.5239 -1.6527
 5040TIP3    H236684   6.082   6.025   8.185 -1.1153 -1.3737  2.6551
 5041TIP3   OH236685   6.107   4.151   6.301  0.0710 -0.0709  0.1208
 5041TIP3    H136686   6.035   4.214   6.311  0.6325  0.6031 -0.0109
 5041TIP3    H236687   6.153   4.181   6.222  0.1101 -0.8875 -0.1740
 5042TIP3   OH236688   0.934   3.412   1.467 -0.4006  0.0524 -0.6927
 5042TIP3    H136689   0.959   3.473   1.397 -0.2622 -0.5916 -1.2065
 5042TIP3    H236690   1.001   3.425   1.534  0.4210 -0.5179 -1.3886
 5043TIP3   OH236691   4.953   0.280   6.304  0.6503 -0.2792  0.2888
 5043TIP3    H136692   4.889   0.210   6.292 -2.3867  2.0308  1.6193
 5043TIP3    H236693   4.923   0.327   6.381  2.4540  2.5440 -0.5708
 5044TIP3   OH236694   4.420   4.865   0.967  0.3451  0.8517  0.4574
 5044TIP3    H136695   4.405   4.876   1.061  0.0880  1.8886  0.3157
 5044TIP3    H236696   4.400   4.951   0.930 -1.2646  0.0301 -0.7551
 5045TIP3   OH236697   6.592   4.803   1.407  0.3444 -0.2477  0.3152
 5045TIP3    H136698   6.559   4.773   1.323 -0.2933 -2.2832  1.2212
 5045TIP3    H236699   6.665   4.861   1.385  0.3493 -0.9111 -1.6226
 5046TIP3   OH236700   5.117   4.015   6.882 -0.0221 -0.4320  0.4198
 5046TIP3    H136701   5.163   4.085   6.929  2.3302 -0.7247 -1.2292
 5046TIP3    H236702   5.171   3.937   6.899 -1.4543 -1.4248  0.5477
 5047TIP3   OH236703   0.306   5.537   7.392 -0.5088 -0.3097  0.2728
 5047TIP3    H136704   0.245   5.476   7.433  0.0412  0.6801  2.7529
 5047TIP3    H236705   0.393   5.502   7.414 -0.1769 -0.1451 -0.7261
 5048TIP3   OH236706   3.453   1.576   8.215 -0.1214 -0.5448  0.2413
 5048TIP3    H136707   3.374   1.537   8.252 -0.1172 -1.3193 -0.5552
 5048TIP3    H236708   3.507   1.597   8.292 -1.1435  0.1361  0.8081
 5049TIP3   OH236709   5.450   5.489   6.224  0.6966 -0.1352 -0.3001
 5049TIP3    H136710   5.525   5.542   6.195  0.2444 -0.7244 -2.7507
 5049TIP3    H236711   5.436   5.515   6.315  1.3823  2.9009 -0.9572
 5050TIP3   OH236712   1.738   4.203   7.265 -0.1495  0.1039 -0.0471
 5050TIP3    H136713   1.765   4.292   7.245  1.8839 -0.2915  0.7011
 5050TIP3    H236714   1.723   4.163   7.179 -1.4831  1.2338 -0.3797
 5051TIP3   OH236715   5.074   2.715   0.662  0.1356  0.3599 -0.6158
 5051TIP3    H136716   5.053   2.677   0.747 -0.5660  2.8472  0.3966
 5051TIP3    H236717   5.159   2.677   0.640  0.6471  0.1261  1.4982
 5052TIP3   OH236718   3.359   6.099   1.283 -0.2464 -0.0470 -0.2244
 5052TIP3    H136719   3.317   6.025   1.327  0.6272  0.1935  1.0433
 5052TIP3    H236720   3.422   6.058   1.224  0.7193 -0.3283  0.9670
 5053TIP3   OH236721   6.949   0.200   8.125 -0.2288  0.2229  0.2394
 5053TIP3    H136722   7.019   0.263   8.107 -0.3722  0.5358  0.7612
 5053TIP3    H236723   6.973   0.122   8.075 -1.0169  1.3065 -1.9424
 5054TIP3   OH236724   6.416   3.360   7.191  0.2725  0.3990  0.4434
 5054TIP3    H136725   6.384   3.429   7.249 -0.1682  0.0914  0.5742
 5054TIP3    H236726   6.418   3.281   7.246 -1.0968 -0.1120 -0.2024
 5055TIP3   OH236727   1.753   4.586   0.999  0.1452  0.6211  0.5622
 5055TIP3    H136728   1.762   4.530   1.075  0.3478 -1.1441 -0.7020
 5055TIP3    H236729   1.836   4.634   0.993  0.5834 -0.1092  0.7806
 5056TIP3   OH236730   1.412   0.200   0.310 -0.3487  0.0142 -0.0015
 5056TIP3    H136731   1.487   0.195   0.250 -0.5483 -0.6496 -0.2010
 5056TIP3    H236732   1.439   0.150   0.387 -0.5709 -0.2024 -0.0617
 5057TIP3   OH236733   6.361   5.414   7.637 -0.4457  0.2148  0.2101
 5057TIP3    H136734   6.393   5.494   7.679 -0.5521  0.2893  0.1499
 5057TIP3    H236735   6.423   5.398   7.567  0.5415 -0.6888  1.2517
 5058TIP3   OH236736   4.061   5.767   0.902 -0.5092  0.1706 -0.6904
 5058TIP3    H136737   3.979   5.724   0.881 -2.6370  2.8719  1.3032
 5058TIP3    H236738   4.109   5.703   0.956 -2.4631 -0.5897  0.2242
 5059TIP3   OH236739   2.154   6.975   2.559  0.4513  0.1485  0.2938
 5059TIP3    H136740   2.208   6.903   2.593  0.6345 -0.5414 -1.3539
 5059TIP3    H236741   2.199   7.004   2.480 -1.2498 -0.0457 -0.8101
 5060TIP3   OH236742   6.115   5.841   8.122 -0.4116  0.4114  0.6933
 5060TIP3    H136743   6.125   5.773   8.188 -0.6413  0.0047  0.3192
 5060TIP3    H236744   6.051   5.804   8.060  1.0550  0.0646 -0.6735
 5061TIP3   OH236745   6.639   4.485   7.063 -0.2326 -0.2090 -0.3822
 5061TIP3    H136746   6.680   4.417   7.118 -2.5934 -1.8052 -0.4428
 5061TIP3    H236747   6.675   4.470   6.976 -0.6265 -1.3408 -0.3660
 5062TIP3   OH236748   6.160   4.010   5.900  0.2835  0.9237  0.3715
 5062TIP3    H136749   6.213   3.946   5.852 -0.1292  1.1638 -0.4201
 5062TIP3    H236750   6.070   3.995   5.869  0.0996  1.4813  0.6272
 5063TIP3   OH236751   0.669   1.991   7.215 -0.3981  0.2811 -0.2133
 5063TIP3    H136752   0.658   2.067   7.272  0.6731  0.9002 -0.8071
 5063TIP3    H236753   0.647   2.024   7.128 -0.1012 -0.1394 -0.4456
 5064TIP3   OH236754   3.854   3.791   7.125  0.2896  0.4556 -0.0913
 5064TIP3    H136755   3.885   3.758   7.210  1.4324  0.8138 -0.3497
 5064TIP3    H236756   3.879   3.723   7.062  0.8374  0.8835 -0.3450
 5065TIP3   OH236757   5.284   4.117   0.264  0.1845 -0.5510  0.3784
 5065TIP3    H136758   5.290   4.200   0.312  0.3383 -1.3751  1.8771
 5065TIP3    H236759   5.335   4.131   0.185  0.1861  0.7948  0.6008
 5066TIP3   OH236760   4.839   4.408   7.226 -0.0039 -0.2587  0.2592
 5066TIP3    H136761   4.898   4.348   7.181 -1.9810 -0.6921 -1.9262
 5066TIP3    H236762   4.758   4.359   7.238 -1.6873  1.8797 -1.6070
 5067TIP3   OH236763   0.140   0.838   5.983 -1.0317  0.6026 -0.2833
 5067TIP3    H136764   0.096   0.849   6.068 -2.4380 -2.0468 -0.5541
 5067TIP3    H236765   0.230   0.814   6.005 -1.3674  0.0012  0.4594
 5068TIP3   OH236766   6.555   4.829   8.000 -0.7290 -0.3062  0.0473
 5068TIP3    H136767   6.570   4.747   7.952  1.0507  0.0143 -0.0073
 5068TIP3    H236768   6.642   4.856   8.030 -1.4943  0.7461  1.4438
 5069TIP3   OH236769   1.582   0.840   7.325  0.5420 -0.8240 -0.5665
 5069TIP3    H136770   1.547   0.751   7.332 -0.9293 -0.2056  0.5270
 5069TIP3    H236771   1.547   0.873   7.242 -1.4005 -0.2902  0.4098
 5070TIP3   OH236772   6.174   3.950   0.172 -0.4606  0.3276 -0.2644
 5070TIP3    H136773   6.093   3.949   0.224 -0.1539  1.2164  0.2419
 5070TIP3    H236774   6.170   3.869   0.121 -1.7284  0.4148 -0.3361
 5071TIP3   OH236775   2.116   3.635   2.116  0.0288 -0.2935 -0.0531
 5071TIP3    H136776   2.200   3.595   2.096 -1.0883 -1.8165 -2.0583
 5071TIP3    H236777   2.083   3.586   2.192  1.7832  1.7312  2.1770
 5072TIP3   OH236778   2.875   1.333   0.428 -0.0703 -0.3352 -0.3662
 5072TIP3    H136779   2.871   1.428   0.437  1.0586 -0.3380  0.5207
 5072TIP3    H236780   2.969   1.315   0.422 -0.3194 -1.1109 -4.3002
 5073TIP3   OH236781   3.463   6.260   0.394 -0.0899 -0.1689  0.0973
 5073TIP3    H136782   3.382   6.227   0.432  0.2521 -0.1893  0.8233
 5073TIP3    H236783   3.508   6.304   0.466 -0.7042  2.2707 -0.9044
 5074TIP3   OH236784   0.723   1.126   0.811  0.3426 -0.1703  0.2837
 5074TIP3    H136785   0.711   1.036   0.842  0.9875 -0.7323 -1.0263
 5074TIP3    H236786   0.770   1.170   0.882  0.2728 -0.9366  0.8181
 5075TIP3   OH236787   0.366   0.276   6.021  0.4264  0.7567  0.6692
 5075TIP3    H136788   0.430   0.266   5.951 -0.2736 -0.4612  0.1600
 5075TIP3    H236789   0.305   0.342   5.988 -0.6247 -0.7138 -0.4894
 5076TIP3   OH236790   1.540   4.342   0.942  0.4587  0.5807 -0.2981
 5076TIP3    H136791   1.479   4.268   0.941  0.8804  0.1554  1.8660
 5076TIP3    H236792   1.484   4.418   0.958  0.1857  0.5964 -1.2294
 5077TIP3   OH236793   6.643   5.544   8.296  0.0277  0.4303  0.0811
 5077TIP3    H136794   6.697   5.513   8.369  0.6689 -2.6018 -1.5101
 5077TIP3    H236795   6.557   5.505   8.312  0.6017 -1.6855 -1.4812
 5078TIP3   OH236796   2.665   4.823   6.338 -0.3808 -0.2327  0.1946
 5078TIP3    H136797   2.741   4.856   6.384  0.9358 -0.8207 -1.4425
 5078TIP3    H236798   2.689   4.733   6.313 -1.2180 -0.1021 -1.1809
 5079TIP3   OH236799   6.680   6.078   0.060 -0.0702  0.3662  0.0538
 5079TIP3    H136800   6.594   6.097   0.097  0.2677 -0.3087  1.2113
 5079TIP3    H236801   6.735   6.151   0.089  0.2183 -0.2117  1.0080
 5080TIP3   OH236802   2.422   5.071   7.286  0.1113 -0.1751 -0.2955
 5080TIP3    H136803   2.430   5.165   7.305  1.5110 -0.4740  0.7212
 5080TIP3    H236804   2.461   5.060   7.200 -2.1757  0.4884 -1.5185
 5081TIP3   OH236805   6.817   1.248   0.282  0.1253  0.1916  0.0798
 5081TIP3    H136806   6.898   1.205   0.308  0.3380  1.3984  1.6538
 5081TIP3    H236807   6.842   1.340   0.269 -1.0292  0.6836  1.0697
 5082TIP3   OH236808   2.440   6.489   8.132 -0.1503 -0.3737  0.1187
 5082TIP3    H136809   2.364   6.472   8.076 -0.1778  0.6363 -0.1657
 5082TIP3    H236810   2.468   6.402   8.161 -0.5962 -0.8574 -0.8567
 5083TIP3   OH236811   1.324   1.429   8.005  0.0311  0.1272 -0.4230
 5083TIP3    H136812   1.237   1.395   7.986 -0.2993  0.3271  0.6638
 5083TIP3    H236813   1.364   1.363   8.061  0.3747  0.2991 -0.4625
 5084TIP3   OH236814   1.746   4.846   1.825  0.0091 -0.0071  0.0425
 5084TIP3    H136815   1.764   4.909   1.756 -1.7457  1.3298  0.7143
 5084TIP3    H236816   1.779   4.888   1.905  1.3934 -1.2295  0.1457
 5085TIP3   OH236817   5.509   2.616   6.695  0.0010 -0.0376  0.6006
 5085TIP3    H136818   5.581   2.667   6.659  0.0093 -0.4558  0.0149
 5085TIP3    H236819   5.524   2.616   6.790 -0.1819  1.3254  0.6554
 5086TIP3   OH236820   6.427   6.220   0.118 -0.5480  0.0854  0.0675
 5086TIP3    H136821   6.359   6.284   0.140 -1.5909 -1.0075  0.1516
 5086TIP3    H236822   6.380   6.150   0.073  0.2766 -1.3713  1.3680
 5087TIP3   OH236823   3.489   4.777   1.325 -0.6970  0.2782  0.4211
 5087TIP3    H136824   3.440   4.754   1.404 -1.6935  1.5525  0.2221
 5087TIP3    H236825   3.474   4.704   1.265 -2.1721  0.5023  0.4718
 5088TIP3   OH236826   5.549   4.062   8.230 -0.4236 -0.5817 -0.2549
 5088TIP3    H136827   5.586   4.052   8.142 -0.4266 -0.4867 -0.2669
 5088TIP3    H236828   5.591   4.140   8.265 -1.6021  0.3371 -0.7868
 5089TIP3   OH236829   6.763   2.104   2.212 -0.5869 -0.4004 -0.0963
 5089TIP3    H136830   6.745   2.196   2.230  1.7124  0.7311 -2.7157
 5089TIP3    H236831   6.804   2.071   2.291 -2.2027  0.5490  1.1897
 5090TIP3   OH236832   1.168   5.893   6.744  0.3302  0.3349  0.3109
 5090TIP3    H136833   1.129   5.980   6.742 -1.4519 -0.4364 -0.0028
 5090TIP3    H236834   1.149   5.856   6.658 -1.4801 -1.4043  1.3771
 5091TIP3   OH236835   3.238   5.479   1.647 -0.0490 -0.5588 -0.1884
 5091TIP3    H136836   3.296   5.403   1.659  1.8342  0.8872  0.3908
 5091TIP3    H236837   3.235   5.521   1.732 -2.3121 -0.7586 -0.1178
 5092TIP3   OH236838   6.034   2.473   8.280 -0.0301 -0.0133  0.1899
 5092TIP3    H136839   6.117   2.470   8.233 -0.1838 -1.5744 -0.0547
 5092TIP3    H236840   6.043   2.546   8.341  0.4042  1.6819 -1.8175
 5093TIP3   OH236841   3.717   1.607   1.590 -0.3952 -0.4409  0.4561
 5093TIP3    H136842   3.771   1.686   1.600 -1.4113  0.2110  0.9135
 5093TIP3    H236843   3.765   1.539   1.637 -0.5022  0.3981  1.8180
 5094TIP3   OH236844   4.496   6.524   0.122  0.4038 -0.0386  0.1772
 5094TIP3    H136845   4.449   6.498   0.200 -0.0480 -1.0061 -0.3956
 5094TIP3    H236846   4.583   6.551   0.153 -0.5650  2.0205  1.2728
 5095TIP3   OH236847   5.494   4.388   6.981 -0.7797  0.0313 -0.2643
 5095TIP3    H136848   5.512   4.438   7.061  2.3723 -1.7213  0.3179
 5095TIP3    H236849   5.480   4.455   6.914 -0.6512  1.6202  1.2152
 5096TIP3   OH236850   1.118   0.458   2.088 -0.2168  0.8639  0.0584
 5096TIP3    H136851   1.155   0.381   2.045 -0.8527 -1.4719  3.3695
 5096TIP3    H236852   1.025   0.454   2.067 -0.1897  0.9855 -0.0899
 5097TIP3   OH236853   3.985   4.115   7.540  0.1764  0.3182  0.0325
 5097TIP3    H136854   3.899   4.140   7.508  0.5035 -1.1776 -2.2486
 5097TIP3    H236855   3.968   4.075   7.626 -1.4325 -0.0916 -0.4465
 5098TIP3   OH236856   0.456   0.932   7.111 -0.4411 -0.5882 -0.0425
 5098TIP3    H136857   0.546   0.907   7.091  0.8897  2.0196  2.0269
 5098TIP3    H236858   0.441   1.012   7.060 -1.2403 -0.4722  0.3494
 5099TIP3   OH236859   3.395   3.576   1.854  0.1394 -0.2468  0.3806
 5099TIP3    H136860   3.455   3.604   1.785 -0.5556 -0.4159 -0.3069
 5099TIP3    H236861   3.437   3.605   1.935  0.4963  0.8316 -0.1709
 5100TIP3   OH236862   0.169   2.228   1.589  0.0771  0.5637  0.0843
 5100TIP3    H136863   0.151   2.308   1.637  1.6551  1.4394 -0.6814
 5100TIP3    H236864   0.222   2.175   1.649 -1.0779  0.0031  0.6394
 5101TIP3   OH236865   2.731   2.303   7.624 -0.4772 -1.8306  0.4386
 5101TIP3    H136866   2.716   2.351   7.543 -1.3537 -0.1062  1.5613
 5101TIP3    H236867   2.826   2.305   7.636 -0.5169  0.4470  0.8636
 5102TIP3   OH236868   1.604   2.571   0.287 -0.1021  0.1118 -0.5711
 5102TIP3    H136869   1.663   2.642   0.265  0.8714 -0.2438  0.7241
 5102TIP3    H236870   1.649   2.524   0.358 -2.2436  0.2794  1.0142
 5103TIP3   OH236871   2.079   1.122   7.966  0.2157  0.6203  0.3836
 5103TIP3    H136872   2.020   1.060   8.008  1.2406  0.1679  1.2389
 5103TIP3    H236873   2.045   1.208   7.991  0.1122  0.3629  1.1738
 5104TIP3   OH236874   6.373   3.225   0.765  0.6977  0.0241  0.2168
 5104TIP3    H136875   6.321   3.151   0.798 -1.2154  0.7999 -0.8860
 5104TIP3    H236876   6.422   3.256   0.841  1.6431 -2.4008  0.6982
 5105TIP3   OH236877   3.430   4.415   0.043  0.0843  0.0722  0.6139
 5105TIP3    H136878   3.454   4.505   0.063  1.4807 -0.5751  2.0904
 5105TIP3    H236879   3.453   4.404  -0.049  0.4604  1.0589  0.5764
 5106TIP3   OH236880   3.813   2.725   8.028 -0.0041 -0.0208 -0.6208
 5106TIP3    H136881   3.770   2.706   8.112 -0.1516 -0.4236 -0.7826
 5106TIP3    H236882   3.906   2.712   8.045  0.2051  2.0394  0.0568
 5107TIP3   OH236883   6.770   1.672   1.196  0.8107 -0.5284 -0.0002
 5107TIP3    H136884   6.759   1.592   1.145  0.0699  0.1847 -0.9969
 5107TIP3    H236885   6.841   1.652   1.257  0.4317 -2.0458 -0.0135
 5108TIP3   OH236886   3.217   1.087   6.772  0.0853  0.2352 -0.4391
 5108TIP3    H136887   3.189   1.151   6.706 -0.5142  1.3607  0.8730
 5108TIP3    H236888   3.139   1.034   6.788 -0.4137  1.3236  0.8814
 5109TIP3   OH236889   4.455   4.496   7.186 -0.8313 -0.0131  0.1299
 5109TIP3    H136890   4.472   4.490   7.092  2.2989  1.3348  0.4633
 5109TIP3    H236891   4.395   4.424   7.204 -2.3746  0.3002 -3.0193
 5110TIP3   OH236892   0.534   2.779   0.739 -0.1044  0.5628 -0.4242
 5110TIP3    H136893   0.514   2.814   0.826 -0.5777  0.0272 -0.3101
 5110TIP3    H236894   0.556   2.856   0.687 -0.7434  0.9905 -0.0780
 5111TIP3   OH236895   1.939   1.686   6.475  0.1561 -0.8800 -0.8698
 5111TIP3    H136896   1.989   1.682   6.393 -0.3642 -0.5967 -1.2079
 5111TIP3    H236897   1.984   1.752   6.527  0.7752 -1.4035 -0.7280
 5112TIP3   OH236898   2.892   5.389   0.489  0.6864 -0.1646 -0.6181
 5112TIP3    H136899   2.953   5.320   0.463  0.3950 -0.2096 -1.1941
 5112TIP3    H236900   2.811   5.369   0.442  0.0154 -0.4716  0.6503
 5113TIP3   OH236901   2.115   4.434   1.360  0.8717 -0.6844 -0.5308
 5113TIP3    H136902   2.039   4.377   1.358  0.5203 -0.2161 -1.3432
 5113TIP3    H236903   2.089   4.507   1.416  0.8552 -0.7030 -0.5144
 5114TIP3   OH236904   4.700   2.615   1.500  0.1918 -0.3417 -0.1319
 5114TIP3    H136905   4.726   2.590   1.588 -0.9703 -0.8649  0.0818
 5114TIP3    H236906   4.665   2.704   1.510 -0.4599 -0.6152  0.0397
 5115TIP3   OH236907   0.213   6.885   6.662 -0.0315  0.5019  0.6065
 5115TIP3    H136908   0.280   6.953   6.649  0.1770  0.3664  0.9445
 5115TIP3    H236909   0.161   6.886   6.581  1.6209 -0.7698 -0.5532
 5116TIP3   OH236910   0.828   1.518   8.326  0.4876 -0.5535 -0.0492
 5116TIP3    H136911   0.827   1.519   8.422  0.3323  0.4821 -0.0500
 5116TIP3    H236912   0.807   1.428   8.303 -0.4298 -0.5958  0.8781
 5117TIP3   OH236913   0.681   2.212   7.364 -0.1736  0.5325  0.0195
 5117TIP3    H136914   0.690   2.299   7.324  1.8547  0.2861 -0.1671
 5117TIP3    H236915   0.619   2.225   7.436 -2.5663  1.3660 -2.0081
 5118TIP3   OH236916   2.316   6.760   0.739  0.4088  0.8994 -0.8119
 5118TIP3    H136917   2.402   6.800   0.752  1.0035 -0.9884  2.2308
 5118TIP3    H236918   2.255   6.818   0.785  0.3717  1.1673 -1.1952
 5119TIP3   OH236919   2.089   3.299   8.104  0.1354  0.3394  0.4670
 5119TIP3    H136920   2.044   3.328   8.024 -0.3588  0.3023  0.7245
 5119TIP3    H236921   2.121   3.211   8.082 -0.0591  0.3005  0.3300
 5120TIP3   OH236922   4.253   5.040   8.391  0.6262 -0.5232 -0.1151
 5120TIP3    H136923   4.166   5.067   8.361 -0.5784 -1.0236  2.6172
 5120TIP3    H236924   4.302   5.122   8.399 -0.0787 -0.0719 -0.3145
 5121TIP3   OH236925   3.125   2.875   6.335  0.0976  0.1840  0.3378
 5121TIP3    H136926   3.153   2.879   6.244 -0.6111 -1.0854  0.0339
 5121TIP3    H236927   3.195   2.828   6.380 -0.9784 -2.1199 -0.2325
 5122TIP3   OH236928   0.019   1.002   1.494  0.2602  0.6499  0.6550
 5122TIP3    H136929   0.070   1.023   1.415 -0.5063  1.1574  0.2849
 5122TIP3    H236930   0.042   0.911   1.514  0.4781  0.5190 -0.1456
 5123TIP3   OH236931   6.822   6.161   1.043 -0.0125  0.3583 -0.6466
 5123TIP3    H136932   6.828   6.208   1.126  0.9500 -0.8176 -0.0259
 5123TIP3    H236933   6.853   6.224   0.978 -0.4902  1.1925 -0.0905
 5124TIP3   OH236934   3.011   6.617   1.375 -0.6762  0.3269 -0.1239
 5124TIP3    H136935   2.949   6.590   1.442 -0.6251  1.1385  0.2704
 5124TIP3    H236936   2.984   6.707   1.353  1.2592  1.2973  1.1830
 5125TIP3   OH236937   1.258   3.109   7.984 -0.4332 -0.2028 -0.0260
 5125TIP3    H136938   1.270   3.035   7.924 -0.3399 -0.3741  0.2035
 5125TIP3    H236939   1.291   3.078   8.068  2.7840  1.1933 -0.6424
 5126TIP3   OH236940   3.490   0.358   0.032 -0.2450 -0.0394 -0.3533
 5126TIP3    H136941   3.457   0.441   0.067  0.4862  1.0430 -2.0848
 5126TIP3    H236942   3.448   0.350  -0.054 -0.1931 -1.3996 -0.2663
 5127TIP3   OH236943   4.404   2.013   6.249 -0.1206 -0.2121  0.3270
 5127TIP3    H136944   4.314   2.001   6.218 -0.7368  0.6627  1.6450
 5127TIP3    H236945   4.447   1.929   6.234 -1.3145 -0.8074  0.1495
 5128TIP3   OH236946   2.223   4.979   0.140  0.2709 -0.5838  0.6822
 5128TIP3    H136947   2.249   5.049   0.080  2.4512 -1.8945 -0.0293
 5128TIP3    H236948   2.244   5.014   0.227 -1.2829  0.6628  0.5948
 5129TIP3   OH236949   1.672   1.078   6.073 -0.0008 -0.3735 -0.0098
 5129TIP3    H136950   1.699   1.170   6.079 -0.4392 -0.1722 -0.8686
 5129TIP3    H236951   1.741   1.036   6.022  0.8461 -0.8202  1.4492
 5130TIP3   OH236952   5.759   5.912   0.094  0.3886  0.6208  0.7479
 5130TIP3    H136953   5.717   5.826   0.104 -2.6453  1.8210 -0.2387
 5130TIP3    H236954   5.785   5.937   0.182 -0.2505 -0.6049  1.3095
 5131TIP3   OH236955   1.769   0.623   8.076 -0.6933  0.1850 -0.1732
 5131TIP3    H136956   1.722   0.671   8.009 -1.2012  0.3555  0.3042
 5131TIP3    H236957   1.834   0.572   8.027 -0.4073  1.0490 -0.7071
 5132TIP3   OH236958   0.809   5.582   5.907 -0.1149 -0.2478  0.1980
 5132TIP3    H136959   0.894   5.541   5.921  0.1612 -0.6471 -2.2609
 5132TIP3    H236960   0.763   5.523   5.848 -0.8133  1.5088 -1.1284
 5133TIP3   OH236961   1.459   0.616   0.708 -0.1106 -0.1314  0.4249
 5133TIP3    H136962   1.455   0.578   0.796 -0.5838  0.4949  0.6919
 5133TIP3    H236963   1.465   0.541   0.649 -2.9874 -0.7992  0.7928
 5134TIP3   OH236964   4.884   2.679   6.189 -0.2433  0.5852  0.1748
 5134TIP3    H136965   4.940   2.736   6.136  1.0842 -1.8966 -1.2961
 5134TIP3    H236966   4.946   2.632   6.245 -1.0688 -0.7757 -0.0329
 5135TIP3   OH236967   1.003   5.269   7.188  0.4853  0.1748  0.3792
 5135TIP3    H136968   1.073   5.333   7.202  1.9340 -1.4446  1.0023
 5135TIP3    H236969   1.038   5.187   7.224 -1.2127 -1.0182 -0.5227
 5136TIP3   OH236970   1.032   5.700   2.121  0.5600  0.0201  0.1469
 5136TIP3    H136971   1.122   5.699   2.090  0.8610  0.6260  0.9569
 5136TIP3    H236972   1.027   5.626   2.183  0.9787  0.9678  1.3453
 5137TIP3   OH236973   1.241   2.155   7.917  0.1552 -0.2723 -1.1412
 5137TIP3    H136974   1.320   2.172   7.967 -1.0838  0.9367  0.5092
 5137TIP3    H236975   1.272   2.143   7.827  2.2334 -0.3176 -0.4754
 5138TIP3   OH236976   4.227   4.055   1.019  0.4488 -0.0597  0.2726
 5138TIP3    H136977   4.191   4.107   0.947 -0.1399  0.3986  0.8880
 5138TIP3    H236978   4.322   4.070   1.014  0.3325  0.6728  0.1297
 5139TIP3   OH236979   1.456   0.604   7.305  0.4092  0.2198  0.0473
 5139TIP3    H136980   1.489   0.525   7.262  0.0929 -0.6164  1.3027
 5139TIP3    H236981   1.362   0.604   7.287  0.1184 -0.6088  1.4092
 5140TIP3   OH236982   6.088   3.351   7.593 -0.2784  0.0540 -0.0437
 5140TIP3    H136983   6.183   3.339   7.598 -0.1667  0.8495 -0.1466
 5140TIP3    H236984   6.052   3.272   7.633  0.4030 -0.8718 -1.2158
 5141TIP3   OH236985   0.140   5.370   0.844  0.6350 -0.1461 -0.1671
 5141TIP3    H136986   0.073   5.341   0.905  2.1529 -0.1683  1.5684
 5141TIP3    H236987   0.093   5.385   0.762 -1.7916  1.4047  1.3796
 5142TIP3   OH236988   4.052   2.678   7.232 -0.5499  0.0612 -0.2483
 5142TIP3    H136989   4.065   2.683   7.327 -1.0798 -0.6460 -0.1307
 5142TIP3    H236990   4.030   2.587   7.215 -1.2346  0.3473 -0.9550
 5143TIP3   OH236991   0.660   1.110   1.425 -0.0873  0.0048  0.1901
 5143TIP3    H136992   0.566   1.125   1.439  0.0963  1.5964 -0.0945
 5143TIP3    H236993   0.692   1.083   1.511 -0.6947  0.0391  0.4385
 5144TIP3   OH236994   4.395   5.198   6.942 -0.4645 -0.2229 -0.4063
 5144TIP3    H136995   4.406   5.164   6.853  1.9737  0.1728 -0.3122
 5144TIP3    H236996   4.344   5.278   6.930  0.7508  0.4229 -1.6253
 5145TIP3   OH236997   1.347   1.209   0.883 -0.4961  0.1148 -0.2881
 5145TIP3    H136998   1.405   1.155   0.936 -1.5366  0.3019  1.1161
 5145TIP3    H236999   1.259   1.175   0.902 -1.1873  2.2446  0.6361
 5146TIP3   OH237000   0.691   3.567   6.449 -0.3966  0.5160  0.2878
 5146TIP3    H137001   0.698   3.657   6.480  1.9939 -0.0284  1.5612
 5146TIP3    H237002   0.742   3.564   6.369 -0.6510  0.3214  0.1281
 5147TIP3   OH237003   5.762   1.793   6.905  0.2667  0.2458 -0.4008
 5147TIP3    H137004   5.671   1.796   6.877 -0.1300 -0.3296  0.7551
 5147TIP3    H237005   5.811   1.774   6.826 -0.6974 -0.1770 -0.9120
 5148TIP3   OH237006   0.498   5.205   7.537  0.0862 -0.0709 -0.1205
 5148TIP3    H137007   0.534   5.294   7.534 -0.3741  0.0890 -1.5936
 5148TIP3    H237008   0.410   5.214   7.502  0.8002 -1.4304 -2.4296
 5149TIP3   OH237009   4.538   5.097   2.112 -0.1390 -0.0628 -0.3063
 5149TIP3    H137010   4.566   5.168   2.053 -1.0074 -0.7755 -1.6382
 5149TIP3    H237011   4.595   5.105   2.188  1.2298  0.7561 -1.3606
 5150TIP3   OH237012   3.206   4.529   7.929 -0.7470 -0.1500 -0.2576
 5150TIP3    H137013   3.201   4.580   8.010 -2.0782  0.1211 -0.4933
 5150TIP3    H237014   3.179   4.441   7.954  1.5374 -0.8029  0.1464
 5151TIP3   OH237015   5.564   4.798   1.597 -0.3923 -0.6327  0.0140
 5151TIP3    H137016   5.558   4.798   1.692 -1.3909 -0.8589 -0.0329
 5151TIP3    H237017   5.543   4.708   1.572 -0.4407 -0.5008 -0.4254
 5152TIP3   OH237018   5.219   4.594   1.830  0.0301  0.3752 -0.0531
 5152TIP3    H137019   5.250   4.565   1.915 -0.3712  0.0852 -0.0043
 5152TIP3    H237020   5.276   4.668   1.807  0.6654 -0.0742  0.0853
 5153TIP3   OH237021   3.844   3.266   0.678 -0.3615  0.0061  0.1522
 5153TIP3    H137022   3.862   3.275   0.585 -0.6075 -0.6919  0.0310
 5153TIP3    H237023   3.792   3.343   0.701 -1.6721 -0.6201 -0.6433
 5154TIP3   OH237024   3.896   6.533   6.476  0.1004  0.2325  0.2016
 5154TIP3    H137025   3.958   6.489   6.534  0.6569  0.7669  0.0309
 5154TIP3    H237026   3.898   6.625   6.505 -3.3431 -0.2582  2.6332
 5155TIP3   OH237027   4.459   0.963   6.948  0.5201  0.9504 -0.7864
 5155TIP3    H137028   4.407   0.891   6.912  0.5061  1.2845 -1.4496
 5155TIP3    H237029   4.508   0.923   7.021 -0.7519  0.6535 -0.0557
 5156TIP3   OH237030   1.765   4.654   7.393 -0.3058  0.3272  0.5757
 5156TIP3    H137031   1.750   4.703   7.313  4.2735  1.7085  0.2654
 5156TIP3    H237032   1.725   4.569   7.377 -2.0252  1.4796 -1.9149
 5157TIP3   OH237033   1.079   6.199   0.684 -0.4421  0.3451  0.7353
 5157TIP3    H137034   1.139   6.255   0.634  0.9519  0.4177  2.3858
 5157TIP3    H237035   0.993   6.216   0.646  0.2299  2.0827 -0.1340
 5158TIP3   OH237036   3.442   1.602   1.608 -0.1958  0.2847  0.0257
 5158TIP3    H137037   3.417   1.595   1.701 -1.2162  3.0453  0.0618
 5158TIP3    H237038   3.535   1.624   1.610 -0.0635 -0.2804  0.3487
 5159TIP3   OH237039   3.150   3.899   0.536 -0.4824  0.0595  0.0055
 5159TIP3    H137040   3.239   3.880   0.507 -0.1583 -0.1077  1.0503
 5159TIP3    H237041   3.133   3.989   0.506 -0.9794 -0.7939 -2.5174
 5160TIP3   OH237042   2.295   2.496   1.377  0.1651  0.2146 -0.0513
 5160TIP3    H137043   2.304   2.402   1.361 -0.2659 -0.4355  2.9756
 5160TIP3    H237044   2.201   2.512   1.367 -0.1917 -0.3074  2.0314
 5161TIP3   OH237045   2.637   6.001   1.128 -0.6598 -0.8250 -0.4297
 5161TIP3    H137046   2.551   5.960   1.142 -1.6512  0.8850 -1.1711
 5161TIP3    H237047   2.653   5.991   1.034 -1.3456  1.1934 -0.7968
 5162TIP3   OH237048   2.576   3.583   6.858 -0.0274  0.1065 -0.0965
 5162TIP3    H137049   2.655   3.578   6.912  0.1182 -0.2487 -0.3346
 5162TIP3    H237050   2.603   3.548   6.773  0.6472  3.5158 -1.4604
 5163TIP3   OH237051   6.448   0.128   1.315 -0.1998 -0.0761  0.4370
 5163TIP3    H137052   6.411   0.155   1.231 -0.5866  1.2545  1.0131
 5163TIP3    H237053   6.480   0.040   1.300  0.2109  0.3384 -1.2625
 5164TIP3   OH237054   1.509   7.001   0.873 -0.2702 -0.3954  0.4478
 5164TIP3    H137055   1.457   6.971   0.948  0.1390 -1.7179  0.2396
 5164TIP3    H237056   1.599   6.998   0.905 -0.0077 -1.8615 -0.3396
 5165TIP3   OH237057   5.633   5.755   1.418  0.0515  0.3397  0.1968
 5165TIP3    H137058   5.543   5.767   1.389  0.7643  1.4949 -1.7952
 5165TIP3    H237059   5.658   5.668   1.387 -0.2425  0.1974  0.3627
 5166TIP3   OH237060   5.661   1.312   7.423 -0.0278 -0.7553  0.5967
 5166TIP3    H137061   5.638   1.224   7.395  1.5278 -0.4125 -2.1669
 5166TIP3    H237062   5.583   1.364   7.406  0.7743 -0.5757 -3.6158
 5167TIP3   OH237063   2.248   1.140   7.236 -0.2032 -0.1103 -0.2469
 5167TIP3    H137064   2.329   1.103   7.203  0.1012  0.3740 -0.0628
 5167TIP3    H237065   2.180   1.078   7.211 -0.0853  0.5471 -2.3603
 5168TIP3   OH237066   5.992   6.223   7.986 -0.1997 -0.5389  0.0107
 5168TIP3    H137067   6.009   6.200   7.895  1.6584  0.1663  0.1330
 5168TIP3    H237068   5.897   6.237   7.991 -0.2366  0.1528 -1.9851
 5169TIP3   OH237069   6.389   0.258   0.763 -0.1277 -0.0203  0.2828
 5169TIP3    H137070   6.345   0.224   0.685  0.0772  1.5232 -0.5318
 5169TIP3    H237071   6.407   0.350   0.743  0.7973  0.1576  1.7742
 5170TIP3   OH237072   5.089   0.781   0.373  0.2715 -0.1986 -0.2111
 5170TIP3    H137073   5.057   0.703   0.329  0.9920  0.2917 -1.6497
 5170TIP3    H237074   5.038   0.853   0.334  1.8049  0.3879 -1.2405
 5171TIP3   OH237075   6.201   2.066   0.529  0.0330 -0.3319 -0.4927
 5171TIP3    H137076   6.186   1.972   0.529  0.5114 -0.4534 -2.8056
 5171TIP3    H237077   6.284   2.077   0.483 -0.4960  1.2812 -1.1353
 5172TIP3   OH237078   6.352   3.424   0.385  0.4484  0.4534  0.4580
 5172TIP3    H137079   6.413   3.411   0.458 -0.8188  2.1036  1.9118
 5172TIP3    H237080   6.390   3.496   0.335  1.3309 -0.6960 -0.5940
 5173TIP3   OH237081   4.869   0.171   0.839 -0.0839 -0.4859 -0.3572
 5173TIP3    H137082   4.790   0.120   0.822  0.8355 -1.7363 -0.9646
 5173TIP3    H237083   4.905   0.190   0.753 -1.5000  3.1130 -0.3429
 5174TIP3   OH237084   1.030   2.620   0.524 -0.5109 -0.6511  0.3972
 5174TIP3    H137085   0.944   2.598   0.562 -0.5352 -2.1213 -0.4614
 5174TIP3    H237086   1.093   2.574   0.580 -0.2961 -0.0371  0.6778
 5175TIP3   OH237087   4.324   4.440   6.640  0.4260 -0.4460 -0.7556
 5175TIP3    H137088   4.273   4.392   6.575 -1.8073  1.7446 -0.7860
 5175TIP3    H237089   4.330   4.529   6.604  0.6147  0.3889  1.2053
 5176TIP3   OH237090   3.473   4.125   0.820 -0.4027 -0.0039  0.0689
 5176TIP3    H137091   3.471   4.030   0.803 -0.2930  0.2283 -1.3768
 5176TIP3    H237092   3.548   4.137   0.879  1.0317 -0.5946 -1.5272
 5177TIP3   OH237093   6.677   6.749   7.073 -0.0932 -0.0072  0.5090
 5177TIP3    H137094   6.674   6.799   7.155  0.3206  3.0441 -1.1568
 5177TIP3    H237095   6.770   6.739   7.055 -0.1792 -1.0865  0.6037
 5178TIP3   OH237096   3.488   1.188   8.066 -0.7487  0.0965  0.3876
 5178TIP3    H137097   3.401   1.176   8.104 -0.6744  1.3228  0.9882
 5178TIP3    H237098   3.481   1.154   7.977 -1.3388 -1.4599  0.9909
 5179TIP3   OH237099   2.950   3.704   0.439 -0.1115 -0.5861 -0.4113
 5179TIP3    H137100   2.983   3.772   0.379  0.8367  0.6949  1.4674
 5179TIP3    H237101   3.028   3.659   0.470 -0.6260 -1.5056 -0.4056
 5180TIP3   OH237102   1.203   3.109   6.639 -0.2594 -0.4465  0.5098
 5180TIP3    H137103   1.184   3.030   6.589 -0.0341  0.6273 -1.3706
 5180TIP3    H237104   1.162   3.179   6.588  0.8707  0.8184  1.3007
 5181TIP3   OH237105   6.385   3.825   0.527  0.7737  0.1167  0.2117
 5181TIP3    H137106   6.446   3.853   0.459  1.5927 -0.2870  0.7615
 5181TIP3    H237107   6.314   3.781   0.479  0.0011  2.0850 -0.5792
 5182TIP3   OH237108   5.922   5.557   8.374 -0.0927 -0.0635 -0.3545
 5182TIP3    H137109   5.932   5.554   8.279  2.5324 -1.2493 -0.1192
 5182TIP3    H237110   5.865   5.633   8.389 -0.2662  0.3939 -2.8362
 5183TIP3   OH237111   2.131   2.220   7.111 -0.2742  0.2416  0.0510
 5183TIP3    H137112   2.091   2.165   7.044 -1.0922  0.5876  0.2478
 5183TIP3    H237113   2.134   2.165   7.189 -2.7410  0.9850  0.7661
 5184TIP3   OH237114   3.496   2.799   7.582 -0.2668 -0.3729  0.0736
 5184TIP3    H137115   3.437   2.810   7.656  0.0235 -2.5788  0.6907
 5184TIP3    H237116   3.555   2.875   7.586 -0.9515  0.1085  1.4330
 5185TIP3   OH237117   5.756   5.124   8.386  0.4743 -0.1293  0.8004
 5185TIP3    H137118   5.777   5.036   8.356  0.0885 -0.0958  0.4129
 5185TIP3    H237119   5.787   5.181   8.315 -1.0995 -0.0910  0.0973
 5186TIP3   OH237120   4.379   1.981   6.781 -0.0806 -0.2073  0.5177
 5186TIP3    H137121   4.285   1.967   6.771  0.0368  0.2365 -1.7255
 5186TIP3    H237122   4.419   1.923   6.716  1.2183 -0.3870  1.4302
 5187TIP3   OH237123   3.460   3.045   7.084 -0.0928  0.3685  0.0001
 5187TIP3    H137124   3.406   2.993   7.024  4.0859 -2.3910 -1.8403
 5187TIP3    H237125   3.497   2.980   7.144  0.3972  2.2888  1.8918
 5188TIP3   OH237126   4.928   5.739   6.822  0.3404 -0.2449 -0.1168
 5188TIP3    H137127   4.923   5.828   6.857 -2.7853 -0.0443 -0.7011
 5188TIP3    H237128   4.990   5.745   6.749  0.3732  1.4059  0.0174
 5189TIP3   OH237129   6.456   2.106   0.441  0.8897 -0.0486  0.1479
 5189TIP3    H137130   6.519   2.036   0.460  1.2631  0.1342 -0.4102
 5189TIP3    H237131   6.478   2.175   0.503 -0.6087 -1.0709  1.9414
 5190TIP3   OH237132   2.330   5.982   7.795  0.7859 -0.4613  0.0562
 5190TIP3    H137133   2.349   5.977   7.701 -0.3054 -0.9630 -0.1528
 5190TIP3    H237134   2.337   6.075   7.815 -1.1499 -0.0285 -1.0243
 5191TIP3   OH237135   0.525   4.500   6.741  0.1288 -0.2363  0.2975
 5191TIP3    H137136   0.462   4.429   6.735  0.0717 -0.1724  0.1555
 5191TIP3    H237137   0.531   4.519   6.835  2.1210 -2.2255  0.6756
 5192TIP3   OH237138   0.816   2.199   6.455 -0.0318 -0.7137  0.1491
 5192TIP3    H137139   0.786   2.109   6.467 -0.4346 -0.5529  0.3696
 5192TIP3    H237140   0.848   2.202   6.365 -1.0770 -0.7871 -0.2301
 5193TIP3   OH237141   2.760   3.549   7.795 -0.3888  0.3120 -0.9562
 5193TIP3    H137142   2.716   3.571   7.877  0.3700  1.4760 -0.8466
 5193TIP3    H237143   2.774   3.454   7.800  1.4824  0.6407  1.1953
 5194TIP3   OH237144   0.612   4.106   1.140  0.3305  0.4327 -0.1055
 5194TIP3    H137145   0.654   4.034   1.188 -0.2933  0.6466  0.7839
 5194TIP3    H237146   0.682   4.169   1.125  0.4095  0.6240  1.0401
 5195TIP3   OH237147   3.813   0.375   0.751 -0.4772 -0.0383 -0.2557
 5195TIP3    H137148   3.859   0.394   0.833 -1.3788 -1.0324  0.5042
 5195TIP3    H237149   3.764   0.455   0.732 -0.1623  0.2445  0.1059
 5196TIP3   OH237150   1.436   4.666   6.498  0.4661  0.1597  0.1406
 5196TIP3    H137151   1.529   4.643   6.509  0.3798 -1.4113 -1.8918
 5196TIP3    H237152   1.402   4.671   6.587  2.1258 -0.8761  0.8776
 5197TIP3   OH237153   3.478   2.977   0.060  0.4926  0.1232 -0.1692
 5197TIP3    H137154   3.480   2.958   0.154 -0.2438 -0.4336 -0.2579
 5197TIP3    H237155   3.404   3.037   0.050 -0.9437 -1.6428 -0.6871
 5198TIP3   OH237156   6.930   3.247   1.709  0.6829 -0.6282  0.1054
 5198TIP3    H137157   6.853   3.236   1.653  0.8106  0.2234 -0.2638
 5198TIP3    H237158   6.894   3.274   1.793  0.4820 -2.0350  0.4893
 5199TIP3   OH237159   1.978   5.060   1.184  0.0091 -0.1914 -0.1825
 5199TIP3    H137160   2.057   5.075   1.131  0.0707 -0.0975 -0.0634
 5199TIP3    H237161   1.995   5.106   1.266 -0.2015 -0.1097 -0.1859
 5200TIP3   OH237162   2.801   5.723   0.219  0.2967  0.0618  0.2107
 5200TIP3    H137163   2.731   5.782   0.190 -0.0143 -1.0231 -1.3896
 5200TIP3    H237164   2.783   5.708   0.311 -0.8534  0.8022  0.1280
 5201TIP3   OH237165   6.203   4.970   7.221  0.2023  0.2707 -0.3585
 5201TIP3    H137166   6.151   4.896   7.252  0.8657 -0.0203  0.0833
 5201TIP3    H237167   6.234   5.012   7.301 -0.3000  1.1288 -0.6004
 5202TIP3   OH237168   5.033   3.721   1.944  0.3006  0.3428 -0.4404
 5202TIP3    H137169   5.012   3.741   1.853  1.4654 -1.6977 -1.2269
 5202TIP3    H237170   5.018   3.626   1.952 -0.0689  0.5288  1.5827
 5203TIP3   OH237171   1.579   2.649   0.651 -0.0244 -0.1245  0.8659
 5203TIP3    H137172   1.483   2.644   0.652 -0.3134  2.2211 -1.6237
 5203TIP3    H237173   1.606   2.585   0.586 -0.0328  0.1738  0.5660
 5204TIP3   OH237174   4.454   4.717   8.046 -0.5433  0.3333  0.5025
 5204TIP3    H137175   4.515   4.651   8.079  1.0049  0.7197 -1.4206
 5204TIP3    H237176   4.438   4.773   8.122  1.1546 -0.0581  1.2057
 5205TIP3   OH237177   1.828   4.955   2.060  0.2491  0.2423 -0.1794
 5205TIP3    H137178   1.847   4.866   2.090  2.3960  0.6371 -0.2146
 5205TIP3    H237179   1.804   5.002   2.140 -1.9164 -0.5542 -0.2995
 5206TIP3   OH237180   6.568   3.474   6.973 -0.1135 -0.4464 -0.8168
 5206TIP3    H137181   6.511   3.472   7.050  1.6585 -0.4254  0.5869
 5206TIP3    H237182   6.569   3.566   6.947 -0.4955 -0.4011 -0.6787
 5207TIP3   OH237183   1.063   1.130   0.877 -0.1372  0.3390  0.1175
 5207TIP3    H137184   1.066   1.047   0.925 -0.4031  0.9459  1.2346
 5207TIP3    H237185   1.008   1.187   0.931  0.9814  1.6034 -0.0032
 5208TIP3   OH237186   0.448   3.314   0.254 -0.3786 -0.1287 -0.2040
 5208TIP3    H137187   0.425   3.406   0.258 -1.6226 -0.4489  0.4043
 5208TIP3    H237188   0.510   3.308   0.181 -0.5468  1.1238 -0.4655
 5209TIP3   OH237189   3.905   3.996   8.272  0.2318 -0.1236 -0.1941
 5209TIP3    H137190   3.890   4.080   8.230  0.6224 -0.2188 -0.5246
 5209TIP3    H237191   3.996   3.974   8.251  0.3330 -0.3260  0.4222
 5210TIP3   OH237192   4.999   5.499   6.108  1.1344 -0.1551 -0.2541
 5210TIP3    H137193   4.903   5.489   6.106  0.9826  1.0001  0.2839
 5210TIP3    H237194   5.032   5.423   6.062 -0.0845 -0.1879 -1.1264
 5211TIP3   OH237195   1.325   0.796   1.022 -0.4375  0.2399 -0.3273
 5211TIP3    H137196   1.236   0.829   1.008  0.1085  1.6145 -0.6073
 5211TIP3    H237197   1.374   0.871   1.056  0.2041 -0.9540  1.5656
 5212TIP3   OH237198   4.676   0.526   6.901  0.1887  0.5914 -0.5783
 5212TIP3    H137199   4.703   0.558   6.815  0.1630  0.4904 -0.6238
 5212TIP3    H237200   4.733   0.572   6.962  1.1502 -0.3642 -0.7328
 5213TIP3   OH237201   6.211   2.598   1.588 -0.4987 -0.5461  0.2516
 5213TIP3    H137202   6.304   2.588   1.569 -0.5476 -0.4740 -0.0291
 5213TIP3    H237203   6.196   2.543   1.665 -0.0982 -0.0670  0.6772
 5214TIP3   OH237204   5.467   1.787   1.420  0.3861  0.2161 -0.0209
 5214TIP3    H137205   5.436   1.796   1.510 -0.6441 -0.2783 -0.3119
 5214TIP3    H237206   5.391   1.755   1.371  0.4825  1.8622 -1.3640
 5215TIP3   OH237207   5.021   0.662   2.141  0.5801  0.4534  0.5661
 5215TIP3    H137208   4.950   0.637   2.200 -1.4410  2.0658 -1.0598
 5215TIP3    H237209   5.015   0.599   2.069  0.5159  0.8517  0.2206
 5216TIP3   OH237210   0.171   1.487   8.335 -0.0424 -0.0584  0.3357
 5216TIP3    H137211   0.226   1.531   8.400  0.8363  2.1582 -1.7846
 5216TIP3    H237212   0.229   1.473   8.260 -1.6780 -0.1287 -0.9689
 5217TIP3   OH237213   6.395   1.429   8.049 -0.0820  0.0441 -0.5882
 5217TIP3    H137214   6.416   1.381   7.968  2.0770 -1.1922  0.6198
 5217TIP3    H237215   6.329   1.375   8.092  0.4497 -0.5114 -0.4572
 5218TIP3   OH237216   6.912   3.943   6.902 -0.4546  0.7936  0.2210
 5218TIP3    H137217   6.970   3.867   6.902  0.9276  1.7962 -0.7177
 5218TIP3    H237218   6.890   3.957   6.994  1.1572  0.6304  0.6639
 5219TIP3   OH237219   3.197   4.821   8.053  0.0657 -0.1921  0.1251
 5219TIP3    H137220   3.285   4.851   8.031 -0.2554  0.0298 -0.8750
 5219TIP3    H237221   3.138   4.880   8.007 -0.6163 -0.4281  0.6679
 5220TIP3   OH237222   2.143   0.961   0.654  0.5843 -0.5662  0.7246
 5220TIP3    H137223   2.220   1.000   0.695  0.5800  1.1642 -0.7853
 5220TIP3    H237224   2.071   0.981   0.713  0.6206  1.6504  0.0846
 5221TIP3   OH237225   3.431   6.605   0.757  0.1472  0.6306 -0.0713
 5221TIP3    H137226   3.497   6.667   0.728 -0.1364 -0.1518 -2.6260
 5221TIP3    H237227   3.479   6.523   0.771 -0.1036  0.3140 -0.9896
 5222TIP3   OH237228   6.292   5.236   0.808 -0.1170  0.1966  0.0096
 5222TIP3    H137229   6.313   5.196   0.892 -2.3012  1.3172  1.1918
 5222TIP3    H237230   6.363   5.298   0.792 -1.2079  2.4737  2.8559
 5223TIP3   OH237231   0.743   0.019   8.307  0.0169  0.4373 -0.1951
 5223TIP3    H137232   0.774  -0.068   8.282 -0.7462  0.0977  0.0029
 5223TIP3    H237233   0.805   0.049   8.373  1.0395  0.6024 -1.2013
 5224TIP3   OH237234   2.129   4.062   7.217  0.0466  0.2365  0.2967
 5224TIP3    H137235   2.100   4.140   7.170 -0.3129  0.3552  0.7130
 5224TIP3    H237236   2.065   3.995   7.196  0.7029 -0.1384 -0.5736
 5225TIP3   OH237237   4.441   0.701   6.820 -0.0643 -0.0911 -0.1198
 5225TIP3    H137238   4.529   0.720   6.851 -0.5899  0.8923  0.8509
 5225TIP3    H237239   4.418   0.618   6.861 -0.0567  0.2886  0.6769
 5226TIP3   OH237240   1.316   2.880   1.309 -0.8053 -0.6229  0.0937
 5226TIP3    H137241   1.355   2.801   1.348  0.3989  0.1617  0.5305
 5226TIP3    H237242   1.362   2.891   1.226 -0.7023 -0.1832  0.2059
 5227TIP3   OH237243   1.589   3.628   0.007  0.6098  0.3234  0.2137
 5227TIP3    H137244   1.646   3.627   0.084  2.0747  1.0427 -0.7963
 5227TIP3    H237245   1.568   3.720  -0.006 -1.5840 -0.0071  1.0767
 5228TIP3   OH237246   3.175   4.847   0.682 -0.4309 -0.2251 -0.0605
 5228TIP3    H137247   3.109   4.783   0.710 -0.6690  0.5364  1.1911
 5228TIP3    H237248   3.156   4.862   0.590 -1.1437 -1.0415 -0.0586
 5229TIP3   OH237249   2.019   3.524   1.189 -0.0491  0.3087 -0.2323
 5229TIP3    H137250   2.096   3.549   1.139  0.2027 -0.7550 -0.3919
 5229TIP3    H237251   1.986   3.607   1.225  2.0461  0.6229  1.1173
 5230TIP3   OH237252   5.585   1.130   5.983 -0.2905  0.0964  0.2230
 5230TIP3    H137253   5.639   1.145   5.906  1.2261 -0.7456  1.0753
 5230TIP3    H237254   5.539   1.048   5.965  0.0999 -0.1250  0.2117
 5231TIP3   OH237255   0.574   4.401   0.836  0.3374  0.6981 -0.0967
 5231TIP3    H137256   0.607   4.398   0.746  0.1373  1.8379 -0.2308
 5231TIP3    H237257   0.490   4.355   0.833  1.1164 -0.7902 -0.1037
 5232TIP3   OH237258   6.954   3.171   1.248  0.1748  0.1252  0.0944
 5232TIP3    H137259   7.003   3.109   1.301  1.2134  1.8216  1.2088
 5232TIP3    H237260   7.015   3.242   1.231 -1.0440  0.9761 -0.9210
 5233TIP3   OH237261   2.491   6.482   0.879  0.2140  0.1206  0.0160
 5233TIP3    H137262   2.428   6.549   0.852 -3.1263 -2.6090  0.2981
 5233TIP3    H237263   2.473   6.469   0.972 -0.0587 -1.8765 -0.2707
 5234TIP3   OH237264   2.149   1.436   1.545 -0.4927 -0.1580  0.0714
 5234TIP3    H137265   2.201   1.368   1.587 -0.3356 -1.6965 -2.4377
 5234TIP3    H237266   2.144   1.506   1.611  0.2918 -2.0870  2.3217
 5235TIP3   OH237267   5.171   3.966   0.476 -0.0842  0.6369 -0.0989
 5235TIP3    H137268   5.252   3.955   0.525 -0.0843 -0.6696 -0.3607
 5235TIP3    H237269   5.190   4.034   0.412  1.1714 -0.4495 -0.9184
 5236TIP3   OH237270   0.120   5.378   6.911 -0.0908  0.3252  0.3438
 5236TIP3    H137271   0.139   5.380   7.005 -2.2919 -1.5354  0.9113
 5236TIP3    H237272   0.179   5.310   6.876  0.9627  1.2452  0.2688
 5237TIP3   OH237273   5.388   6.232   0.952  0.4242  0.2860  0.5104
 5237TIP3    H137274   5.355   6.149   0.918 -0.1860  1.4035 -1.8772
 5237TIP3    H237275   5.401   6.286   0.874  3.2423  1.6189  1.7614
 5238TIP3   OH237276   0.710   3.784   0.661  0.2549  0.1677  0.7524
 5238TIP3    H137277   0.770   3.788   0.587  0.2478 -0.3004  0.7162
 5238TIP3    H237278   0.709   3.691   0.685 -1.4925 -0.0575 -0.0958
 5239TIP3   OH237279   5.484   0.853   2.202 -0.3145  0.4770  0.5034
 5239TIP3    H137280   5.503   0.763   2.177 -1.5860  0.1279  0.7286
 5239TIP3    H237281   5.390   0.854   2.218 -0.5850  2.1828 -0.9049
 5240TIP3   OH237282   0.792   1.047   7.736 -0.3342 -0.0772 -0.0900
 5240TIP3    H137283   0.767   1.030   7.645  1.2552 -0.7782 -0.4281
 5240TIP3    H237284   0.880   1.083   7.730  0.4381 -1.6104  1.2389
 5241TIP3   OH237285   4.177   2.628   2.429  0.0855 -0.2111  0.5826
 5241TIP3    H137286   4.111   2.679   2.476  0.4376 -0.0126  0.8663
 5241TIP3    H237287   4.157   2.537   2.450 -0.1457 -0.1555  0.6035
 5242TIP3   OH237288   0.681   2.186   1.983  0.2145 -0.2855 -0.2012
 5242TIP3    H137289   0.762   2.157   2.025  0.7451 -0.7408 -1.4962
 5242TIP3    H237290   0.674   2.131   1.905 -0.9147  0.3256 -0.5466
 5243TIP3   OH237291   0.507   3.835   6.799  0.7041 -1.0341 -0.5106
 5243TIP3    H137292   0.593   3.804   6.769  0.9869 -0.8756  0.1286
 5243TIP3    H237293   0.493   3.917   6.750  0.9439 -1.0270 -0.5669
 5244TIP3   OH237294   4.563   0.385   1.578 -0.1865  0.4017 -0.4101
 5244TIP3    H137295   4.560   0.418   1.667 -0.6676 -2.1524  0.6245
 5244TIP3    H237296   4.657   0.372   1.560  0.0941  3.1201 -1.2405
 5245TIP3   OH237297   2.419   5.808   6.536 -0.1983 -0.1776 -0.5135
 5245TIP3    H137298   2.488   5.745   6.517  1.3962  1.3955 -0.2355
 5245TIP3    H237299   2.397   5.848   6.452 -0.6578 -0.5615 -0.5778
 5246TIP3   OH237300   6.187   4.987   6.692  0.0303  0.0240 -0.6361
 5246TIP3    H137301   6.116   5.050   6.687 -0.5725 -0.5380  0.4774
 5246TIP3    H237302   6.222   4.996   6.781  1.7984  0.7360 -1.3454
 5247TIP3   OH237303   6.206   3.966   7.935  0.4371  0.0343 -0.2402
 5247TIP3    H137304   6.129   3.976   7.878  0.4510 -1.2344 -0.5092
 5247TIP3    H237305   6.268   4.031   7.903 -0.2589  0.6100 -0.4610
 5248TIP3   OH237306   5.771   2.390   1.118  0.2076  0.7057  0.3611
 5248TIP3    H137307   5.715   2.468   1.122  0.4991  0.8645  1.8913
 5248TIP3    H237308   5.774   2.368   1.025 -1.0138  1.6937  0.0528
 5249TIP3   OH237309   2.734   3.671   1.273 -0.0918  0.1777 -0.2941
 5249TIP3    H137310   2.818   3.651   1.314  0.3984  2.0060 -0.3410
 5249TIP3    H237311   2.737   3.626   1.189  1.8337  2.0002 -1.2918
 5250TIP3   OH237312   1.657   5.359   6.215  0.0568  1.1395  0.1639
 5250TIP3    H137313   1.672   5.292   6.282 -1.1126  0.1814 -0.4780
 5250TIP3    H237314   1.744   5.384   6.185  0.5293  0.2769  0.7855
 5251TIP3   OH237315   5.327   3.052   7.019 -0.0115  0.3602 -0.6553
 5251TIP3    H137316   5.363   3.068   6.932 -0.1359  0.2966 -0.7189
 5251TIP3    H237317   5.278   3.131   7.040 -0.5656  0.0943 -0.9389
 5252TIP3   OH237318   0.911   6.852   7.022 -0.2637  0.0960  0.3273
 5252TIP3    H137319   0.844   6.919   7.005  0.3507  0.4744 -0.6996
 5252TIP3    H237320   0.993   6.901   7.023  0.1408 -0.5715  0.1089
 5253TIP3   OH237321   4.971   2.885   0.319 -0.2726  0.3058  0.1682
 5253TIP3    H137322   4.911   2.939   0.370 -1.1332 -0.3835 -0.0898
 5253TIP3    H237323   5.016   2.947   0.261 -0.2391  0.9158  0.8398
 5254TIP3   OH237324   1.662   1.216   1.306  0.3138  0.1568 -0.1629
 5254TIP3    H137325   1.685   1.133   1.265  1.3269 -0.3781  1.4031
 5254TIP3    H237326   1.711   1.281   1.255 -0.5584 -0.1539 -1.4613
 5255TIP3   OH237327   0.488   2.764   6.893  0.1783 -0.6536  0.1738
 5255TIP3    H137328   0.583   2.755   6.884  0.4676  2.5698 -1.4802
 5255TIP3    H237329   0.454   2.739   6.807 -0.3134 -0.3602  0.2834
 5256TIP3   OH237330   6.168   0.449   0.609 -0.5043 -0.2915 -0.0007
 5256TIP3    H137331   6.138   0.539   0.622 -0.7573 -0.1384 -1.4609
 5256TIP3    H237332   6.234   0.456   0.539  0.7076 -1.0322  1.0147
 5257TIP3   OH237333   3.506   1.076   7.294 -0.8845  0.5656 -0.5059
 5257TIP3    H137334   3.560   1.118   7.361 -0.8448 -1.3753  0.7611
 5257TIP3    H237335   3.563   1.066   7.219 -0.2610  0.8415 -0.0784
 5258TIP3   OH237336   5.888   4.870   7.283 -0.4149 -0.1136 -0.1980
 5258TIP3    H137337   5.966   4.815   7.288  0.7141  1.4369  0.5197
 5258TIP3    H237338   5.826   4.830   7.344  0.3212 -0.6616  0.2031
 5259TIP3   OH237339   5.043   5.470   6.374 -0.2352  0.6938 -0.3298
 5259TIP3    H137340   5.129   5.485   6.412 -0.2522  2.1739 -0.8106
 5259TIP3    H237341   5.050   5.507   6.285 -0.7950 -0.8730 -1.0588
 5260TIP3   OH237342   5.204   1.161   8.329  0.2817  0.0589 -0.1747
 5260TIP3    H137343   5.224   1.108   8.406  0.0377  2.0251  1.3244
 5260TIP3    H237344   5.289   1.197   8.302  0.0327  1.6314  0.9826
 5261TIP3   OH237345   2.709   1.744   8.003  0.0349 -0.6890 -0.5327
 5261TIP3    H137346   2.766   1.683   7.958 -0.7503 -0.5146 -1.8349
 5261TIP3    H237347   2.653   1.689   8.058  1.1919 -0.8854  0.4684
 5262TIP3   OH237348   0.357   4.623   7.260  0.2458  0.4174  0.0468
 5262TIP3    H137349   0.429   4.682   7.239  0.9784 -0.8085 -1.0448
 5262TIP3    H237350   0.285   4.652   7.204  0.7562 -0.0037 -0.8493
 5263TIP3   OH237351   6.855   5.848   0.366 -0.2569  0.3618  0.5089
 5263TIP3    H137352   6.814   5.824   0.283  2.5198  1.4244 -1.3448
 5263TIP3    H237353   6.815   5.932   0.389 -2.6937 -1.0012  1.5785
 5264TIP3   OH237354   4.764   4.408   8.351  0.2164 -0.3989 -0.2862
 5264TIP3    H137355   4.820   4.464   8.404  0.9604  0.0629 -1.5121
 5264TIP3    H237356   4.816   4.329   8.336 -0.2544 -0.8141  0.2125
 5265TIP3   OH237357   6.681   1.460   1.473  0.3172  0.7176 -0.0683
 5265TIP3    H137358   6.744   1.398   1.512  0.0294 -0.0306 -0.7824
 5265TIP3    H237359   6.704   1.544   1.513  1.5132  0.3855 -0.0005
 5266TIP3   OH237360   2.507   4.047   6.287 -0.4909 -0.3066 -0.0696
 5266TIP3    H137361   2.486   4.081   6.374 -1.0459 -1.7271  0.3805
 5266TIP3    H237362   2.558   4.117   6.246  0.3949  0.1137  1.6460
 5267TIP3   OH237363   4.031   0.340   7.142  0.6611 -0.0344 -0.0672
 5267TIP3    H137364   3.997   0.278   7.077 -0.5265 -0.8966  1.3196
 5267TIP3    H237365   4.016   0.426   7.103 -2.0570 -0.4361 -0.0589
 5268TIP3   OH237366   3.717   2.756   7.099 -0.0200 -0.0933 -0.1976
 5268TIP3    H137367   3.784   2.699   7.060  0.4748  0.6744 -0.4806
 5268TIP3    H237368   3.756   2.843   7.098 -1.4145  0.5564 -1.3034
 5269TIP3   OH237369   6.878   4.719   8.014 -0.0380 -0.1152  0.1710
 5269TIP3    H137370   6.918   4.633   8.025  1.1352  0.4509  0.4549
 5269TIP3    H237371   6.903   4.768   8.093 -0.0213  0.7368 -0.3484
 5270TIP3   OH237372   3.568   1.358   1.185  0.1613  0.0707 -0.7967
 5270TIP3    H137373   3.482   1.399   1.185  1.2764  2.6621  0.2924
 5270TIP3    H237374   3.581   1.329   1.275 -0.1574 -1.7733 -1.3110
 5271TIP3   OH237375   3.867   5.088   7.141  0.0288  0.2831  0.0314
 5271TIP3    H137376   3.776   5.087   7.172  0.9648 -0.4238  3.1302
 5271TIP3    H237377   3.881   5.003   7.101 -0.0556 -0.6243  1.8302
 5272TIP3   OH237378   3.717   5.623   7.049 -0.6958  0.1710 -0.6735
 5272TIP3    H137379   3.792   5.656   6.999  0.7276 -1.2970  0.3953
 5272TIP3    H237380   3.747   5.624   7.140 -1.4223 -1.7788 -0.3627
 5273TIP3   OH237381   6.962   6.930   2.260  0.3288  0.4383 -0.5625
 5273TIP3    H137382   6.899   6.862   2.281 -0.0173  1.0293  0.3504
 5273TIP3    H237383   6.952   6.944   2.165  0.9236 -1.2748 -0.9209
 5274TIP3   OH237384   3.053   5.231   6.946  0.0932 -0.5048 -0.1388
 5274TIP3    H137385   3.107   5.253   6.870  1.0658  0.9381  0.8981
 5274TIP3    H237386   3.086   5.145   6.974 -0.4890 -1.1996 -1.4933
 5275TIP3   OH237387   2.447   4.672   7.935  0.4588 -0.0256 -0.0738
 5275TIP3    H137388   2.381   4.740   7.944  0.1166 -0.5829  2.5808
 5275TIP3    H237389   2.460   4.640   8.025  1.9130 -2.2041 -0.9856
 5276TIP3   OH237390   3.654   4.711   1.800  0.0797 -0.1088 -0.1028
 5276TIP3    H137391   3.564   4.734   1.822 -0.5727 -3.0157  0.7754
 5276TIP3    H237392   3.705   4.731   1.878 -0.0413  0.3853 -0.1519
 5277TIP3   OH237393   6.853   6.473   7.964  0.4744 -0.1922  0.5595
 5277TIP3    H137394   6.823   6.383   7.959 -2.2383  0.4039  3.1853
 5277TIP3    H237395   6.882   6.494   7.876 -2.8501 -2.3185 -1.2335
 5278TIP3   OH237396   2.634   6.382   7.513  0.4959  0.3062 -0.1380
 5278TIP3    H137397   2.677   6.296   7.513  2.7080  1.3508 -0.9584
 5278TIP3    H237398   2.669   6.426   7.590  0.9783  1.1993 -0.8497
 5279TIP3   OH237399   4.037   3.508   8.304 -1.0880  0.1758 -0.1558
 5279TIP3    H137400   4.075   3.423   8.283 -1.8736  0.3295 -2.4059
 5279TIP3    H237401   3.988   3.493   8.385  0.3310 -0.9985  0.5418
 5280TIP3   OH237402   6.469   0.376   1.465  0.4032 -0.4443 -0.0786
 5280TIP3    H137403   6.407   0.438   1.426  3.7407  1.9042 -2.1853
 5280TIP3    H237404   6.454   0.294   1.418 -0.1099  0.5076 -1.6576
 5281TIP3   OH237405   3.872   5.586   0.538 -0.2508 -0.0730  0.5683
 5281TIP3    H137406   3.943   5.581   0.474 -0.2656 -0.4519  0.5809
 5281TIP3    H237407   3.797   5.616   0.487  0.3430  2.1940  0.8992
 5282TIP3   OH237408   1.047   2.601   7.720  0.6291 -0.5287 -0.6798
 5282TIP3    H137409   1.079   2.551   7.795  1.0741 -0.2520 -0.6786
 5282TIP3    H237410   1.052   2.692   7.749 -1.2945 -0.5247 -0.2455
 5283TIP3   OH237411   6.371   5.001   1.791  0.3991  0.0862 -0.0003
 5283TIP3    H137412   6.389   5.084   1.836  1.0531  0.0291 -0.1416
 5283TIP3    H237413   6.361   4.937   1.862 -1.2737  0.4878  0.1578
 5284TIP3   OH237414   1.801   1.629   6.187 -0.2214 -0.1324 -0.3783
 5284TIP3    H137415   1.736   1.686   6.228  0.8049  1.3784 -0.7698
 5284TIP3    H237416   1.885   1.665   6.214  0.6583 -3.6222  2.3806
 5285TIP3   OH237417   5.203   3.110   1.740 -0.3366  0.3455 -0.1766
 5285TIP3    H137418   5.172   3.134   1.828 -1.4409  0.6063 -0.6320
 5285TIP3    H237419   5.255   3.185   1.712  2.8712 -1.0265  1.5440
 5286TIP3   OH237420   2.187   2.171   0.474 -0.4024  0.2126  0.0672
 5286TIP3    H137421   2.150   2.218   0.549 -0.2421  1.0520 -0.3698
 5286TIP3    H237422   2.191   2.237   0.404 -2.2455 -1.0002 -1.2592
 5287TIP3   OH237423   4.110   3.141   8.016  0.1566 -0.3746 -0.1933
 5287TIP3    H137424   4.133   3.207   7.951 -1.5043 -0.8792 -1.3616
 5287TIP3    H237425   4.162   3.064   7.992 -0.7853 -0.7118 -1.2859
 5288TIP3   OH237426   4.319   2.686   2.208  0.1730 -0.5607  0.5416
 5288TIP3    H137427   4.279   2.653   2.289 -0.6065 -0.5083  0.1805
 5288TIP3    H237428   4.337   2.608   2.156 -2.1036 -0.4448 -0.5158
 5289TIP3   OH237429   1.816   0.401   0.828  0.7430  0.0662  0.0932
 5289TIP3    H137430   1.823   0.306   0.834 -2.4984 -0.2282  1.1281
 5289TIP3    H237431   1.799   0.418   0.735  0.5484 -0.4264  0.0400
 5290TIP3   OH237432   2.122   6.148   0.607  0.5249  0.7937 -0.1876
 5290TIP3    H137433   2.115   6.175   0.515  1.8459  0.3436 -0.4408
 5290TIP3    H237434   2.039   6.105   0.626  0.7719 -0.3784 -1.6102
 5291TIP3   OH237435   6.905   1.556   1.867 -0.3249  0.1924 -0.3521
 5291TIP3    H137436   6.965   1.562   1.941  0.5927  2.8716 -1.2107
 5291TIP3    H237437   6.879   1.464   1.865  0.5402 -0.2103  2.5377
 5292TIP3   OH237438   1.961   0.044   6.978  0.2453 -0.1405 -0.1261
 5292TIP3    H137439   1.960   0.002   7.064  1.1312  2.3186  1.1757
 5292TIP3    H237440   2.046   0.022   6.941  0.0167 -0.8878 -0.2125
 5293TIP3   OH237441   4.565   6.492   8.001  0.3141 -0.1902  0.0316
 5293TIP3    H137442   4.527   6.533   8.078 -0.2285 -0.3038 -0.1730
 5293TIP3    H237443   4.513   6.526   7.928  0.6575 -0.2852 -0.2604
 5294TIP3   OH237444   4.146   6.833   2.253  0.7661 -0.2128  0.2183
 5294TIP3    H137445   4.117   6.743   2.263 -0.0650  0.0074 -0.1457
 5294TIP3    H237446   4.205   6.847   2.327  0.0521 -0.7196  0.9102
 5295TIP3   OH237447   3.559   1.628   0.991 -0.1237  0.4859  0.2054
 5295TIP3    H137448   3.584   1.616   1.082 -1.6998  0.3244  0.6325
 5295TIP3    H237449   3.585   1.547   0.948 -2.3448 -0.8334  1.2114
 5296TIP3   OH237450   2.985   0.946   6.799  0.3570  0.2713 -0.0310
 5296TIP3    H137451   2.923   1.004   6.842  0.2861  1.1929 -1.3087
 5296TIP3    H237452   2.936   0.865   6.782  0.0982  0.2739  0.6986
 5297TIP3   OH237453   1.159   6.090   1.453  0.0676 -0.1126 -0.6534
 5297TIP3    H137454   1.077   6.041   1.443 -0.7332  0.7579  1.2042
 5297TIP3    H237455   1.222   6.025   1.485  0.1182 -0.7700 -2.0288
 5298TIP3   OH237456   0.816   4.803   8.158 -0.3840  0.0205  0.0636
 5298TIP3    H137457   0.861   4.805   8.243 -0.9677  3.1602  0.4277
 5298TIP3    H237458   0.870   4.858   8.102 -1.0684 -0.3970 -1.0229
 5299TIP3   OH237459   1.971   2.580   6.496 -0.2266 -0.3632  0.0753
 5299TIP3    H137460   2.058   2.606   6.527 -1.5724  3.6457  0.9993
 5299TIP3    H237461   1.926   2.549   6.575  0.0179 -1.5284 -0.2257
 5300TIP3   OH237462   2.072   0.364   7.535  0.1961  0.1633  0.2333
 5300TIP3    H137463   2.088   0.452   7.501  0.8160 -0.3842 -0.9677
 5300TIP3    H237464   1.977   0.353   7.528  0.0190  1.0135  1.1361
 5301TIP3   OH237465   3.886   3.547   6.694 -0.4772  0.3248  0.0641
 5301TIP3    H137466   3.888   3.524   6.601 -0.2953  0.2524  0.0866
 5301TIP3    H237467   3.800   3.588   6.706 -1.2046 -1.1722  0.2216
 5302TIP3   OH237468   5.287   2.849   7.336 -0.1802  0.4141 -0.2354
 5302TIP3    H137469   5.208   2.843   7.283 -1.9310 -0.0599  2.2717
 5302TIP3    H237470   5.331   2.765   7.322  0.0615  0.7818 -1.8460
 5303TIP3   OH237471   5.923   3.757   0.891 -0.1009 -0.2265 -0.8642
 5303TIP3    H137472   6.015   3.742   0.913  0.6068  1.3553 -2.5548
 5303TIP3    H237473   5.899   3.683   0.836  0.0817 -0.7318 -0.2814
 5304TIP3   OH237474   1.437   0.961   7.548  0.1353  0.4504  0.2440
 5304TIP3    H137475   1.435   1.050   7.513 -1.0680 -0.1607 -1.4128
 5304TIP3    H237476   1.491   0.912   7.485  2.1962  0.3042  2.0344
 5305TIP3   OH237477   5.164   2.541   1.464 -0.1171 -0.0691 -0.0447
 5305TIP3    H137478   5.110   2.471   1.502  1.3792 -0.1690  2.0545
 5305TIP3    H237479   5.242   2.545   1.520  1.3178  1.1642 -2.0052
 5306TIP3   OH237480   0.750   1.741   7.995 -0.0852  0.2848 -0.5497
 5306TIP3    H137481   0.841   1.716   7.977 -0.3117 -0.4226 -0.7455
 5306TIP3    H237482   0.708   1.739   7.909 -0.2716  0.6677 -0.4677
 5307TIP3   OH237483   3.166   1.131   1.805  0.1183  0.6147 -0.0968
 5307TIP3    H137484   3.200   1.041   1.805 -0.8085  0.2579  0.0984
 5307TIP3    H237485   3.203   1.171   1.883  0.1083  0.2361  0.1026
 5308TIP3   OH237486   4.336   4.019   1.722 -0.1939  0.1454  0.3045
 5308TIP3    H137487   4.281   4.031   1.799 -0.2358  2.4372 -0.0007
 5308TIP3    H237488   4.274   4.003   1.650 -0.1838 -1.4262  0.6186
 5309TIP3   OH237489   2.254   0.122   7.988 -0.0577  0.0286  0.2608
 5309TIP3    H137490   2.254   0.197   8.046  0.5925 -0.0796  0.4153
 5309TIP3    H237491   2.216   0.154   7.906  1.4221  0.9054 -0.1292
 5310TIP3   OH237492   4.542   4.835   7.384 -0.1310  0.4954  0.2296
 5310TIP3    H137493   4.534   4.802   7.474  0.5564  0.2347  0.1956
 5310TIP3    H237494   4.455   4.870   7.364 -0.6781 -0.6546  0.5153
 5311TIP3   OH237495   2.058   4.670   7.326 -0.8031 -0.4203  0.2521
 5311TIP3    H137496   1.963   4.680   7.333 -0.5311  2.5498  0.8018
 5311TIP3    H237497   2.093   4.701   7.409  0.7087 -0.3530 -0.3623
 5312TIP3   OH237498   3.611   2.376   1.078 -0.4961  0.4362 -0.6040
 5312TIP3    H137499   3.518   2.397   1.083 -0.7704 -0.9053  0.1475
 5312TIP3    H237500   3.614   2.283   1.059  0.7084  0.8003 -2.4486
 5313TIP3   OH237501   1.524   3.621   0.306 -0.2550  0.0965 -0.4382
 5313TIP3    H137502   1.514   3.686   0.237  1.0601  0.1717 -0.5784
 5313TIP3    H237503   1.592   3.657   0.363 -0.2267 -0.6878  0.0387
 5314TIP3   OH237504   1.957   4.890   8.402 -0.0555 -0.1151  0.0028
 5314TIP3    H137505   2.033   4.863   8.350  0.4077 -0.2426  0.7170
 5314TIP3    H237506   1.898   4.815   8.399 -1.3348  0.8957 -2.6346
 5315TIP3   OH237507   2.381   0.646   7.910 -0.4532 -0.1512 -0.0282
 5315TIP3    H137508   2.344   0.693   7.836 -0.6955 -1.6135 -0.8603
 5315TIP3    H237509   2.387   0.555   7.881  1.0912 -0.4618  1.1175
 5316TIP3   OH237510   3.658   6.287   0.578 -0.0500 -0.1848 -0.0108
 5316TIP3    H137511   3.690   6.204   0.544  0.2399 -0.7297  1.4962
 5316TIP3    H237512   3.607   6.263   0.656  0.7794  1.0826  0.9758
 5317TIP3   OH237513   0.421   1.676   8.146  0.6064  0.3710  0.7239
 5317TIP3    H137514   0.377   1.599   8.110 -0.4670  0.4101  1.8761
 5317TIP3    H237515   0.439   1.731   8.070  0.1125 -0.3882  0.0397
 5318TIP3   OH237516   4.872   3.756   7.907  0.1602  0.1514 -0.1896
 5318TIP3    H137517   4.821   3.716   7.977  0.9056  0.0761  0.3168
 5318TIP3    H237518   4.963   3.734   7.927  0.7208  2.8575  0.6640
 5319TIP3   OH237519   5.883   4.184   0.304 -0.2406  0.3599  0.2450
 5319TIP3    H137520   5.815   4.136   0.258  1.9777 -0.9752 -1.9062
 5319TIP3    H237521   5.852   4.189   0.395 -2.7395 -0.9153 -0.4541
 5320TIP3   OH237522   6.661   0.208   0.166 -0.0788 -0.6639 -0.4579
 5320TIP3    H137523   6.629   0.128   0.125  0.0052 -0.7856 -0.2858
 5320TIP3    H237524   6.722   0.245   0.102 -0.2717 -0.6307 -0.6236
 5321TIP3   OH237525   5.055   3.652   0.937  0.9217  0.4735 -0.1015
 5321TIP3    H137526   5.054   3.565   0.976  1.5063  0.6884  0.4256
 5321TIP3    H237527   5.147   3.665   0.912  0.4313  0.0031 -2.3643
 5322TIP3   OH237528   0.880   4.940   0.486  1.0027  0.2688  0.6644
 5322TIP3    H137529   0.796   4.979   0.512  1.0430  1.4531 -0.8235
 5322TIP3    H237530   0.941   5.013   0.488  1.4920 -0.0895 -0.4292
 5323TIP3   OH237531   0.413   5.085   8.039 -0.3165  0.4042  0.2863
 5323TIP3    H137532   0.472   5.058   8.110 -0.1701 -0.1362 -0.0382
 5323TIP3    H237533   0.462   5.152   7.991  1.8016 -2.7626 -2.4305
 5324TIP3   OH237534   3.694   5.997   0.488 -0.3038  0.1798  0.0100
 5324TIP3    H137535   3.782   5.982   0.524 -0.6557  1.5416  1.5153
 5324TIP3    H237536   3.645   5.918   0.512  0.1220  0.0320  0.4181
 5325TIP3   OH237537   0.090   2.987   8.087  0.1329  0.2437 -0.2908
 5325TIP3    H137538   0.145   2.934   8.029 -1.0397  0.7803 -1.9954
 5325TIP3    H237539   0.135   3.071   8.094  1.0465 -0.3240  0.8657
 5326TIP3   OH237540   2.479   0.901   7.789  0.1929 -0.3977  0.1729
 5326TIP3    H137541   2.537   0.977   7.795  0.6830 -0.8328  1.1577
 5326TIP3    H237542   2.421   0.909   7.865  0.6495 -1.3199  0.6313
 5327TIP3   OH237543   3.246   3.662   7.702 -0.1915  0.8719 -0.3650
 5327TIP3    H137544   3.154   3.688   7.705 -0.4666 -0.0934  0.3984
 5327TIP3    H237545   3.243   3.568   7.684  0.6047  0.6909  0.3732
 5328TIP3   OH237546   0.503   3.682   8.149  0.6074 -0.0236 -0.0367
 5328TIP3    H137547   0.574   3.714   8.203  0.3423  1.3729 -0.4814
 5328TIP3    H237548   0.464   3.761   8.110 -0.1608 -0.8715 -1.0566
 5329TIP3   OH237549   2.991   5.008   1.985  0.5366 -0.2490 -0.4522
 5329TIP3    H137550   2.932   5.071   2.027 -0.8163 -0.2614 -2.2467
 5329TIP3    H237551   2.952   4.922   2.005  1.3427 -0.4332  0.4105
 5330TIP3   OH237552   4.093   5.509   0.374 -0.1943  0.1232  0.4428
 5330TIP3    H137553   4.086   5.584   0.315  0.0963 -0.8703 -0.9016
 5330TIP3    H237554   4.178   5.520   0.417  0.2006  0.1553 -0.3353
 5331TIP3   OH237555   4.557   1.218   1.962 -0.6014  0.3050 -0.0619
 5331TIP3    H137556   4.587   1.153   1.899 -1.1939 -0.8055  0.7560
 5331TIP3    H237557   4.630   1.279   1.971  1.6119 -2.3540  1.9759
 5332TIP3   OH237558   3.481   3.835   1.819 -0.3163  0.1848  0.4684
 5332TIP3    H137559   3.420   3.856   1.748 -0.1476  1.7295  0.7477
 5332TIP3    H237560   3.429   3.842   1.898 -0.1874 -0.2268  0.5906
 5333TIP3   OH237561   2.634   4.786   8.380 -0.3873 -0.4668  0.2573
 5333TIP3    H137562   2.664   4.841   8.451  1.2413  0.4840 -1.1024
 5333TIP3    H237563   2.553   4.827   8.349  0.1929  0.5007  0.0102
 5334TIP3   OH237564   6.563   2.330   0.553  0.0649 -0.7169  0.6036
 5334TIP3    H137565   6.623   2.393   0.590  0.3541 -0.2073 -0.6894
 5334TIP3    H237566   6.479   2.376   0.550  0.0648 -0.7222  0.5241
 5335TIP3   OH237567   6.103   1.010   5.978 -0.0187  0.1612 -0.1253
 5335TIP3    H137568   6.078   1.048   6.062 -1.5774  1.7704 -1.2533
 5335TIP3    H237569   6.198   1.001   5.982 -0.0637  0.2375  1.7656
 5336TIP3   OH237570   6.060   4.413   8.040 -0.4966 -0.2474  0.5542
 5336TIP3    H137571   6.040   4.439   7.950 -0.7199 -1.1802  0.3222
 5336TIP3    H237572   5.991   4.454   8.092 -0.0108  0.8159  0.3942
 5337TIP3   OH237573   3.469   0.051   8.222  0.4082 -0.4219  0.0926
 5337TIP3    H137574   3.538   0.049   8.156 -2.0117 -2.6297 -2.6405
 5337TIP3    H237575   3.450  -0.041   8.240 -2.0063  0.0739  0.4711
 5338TIP3   OH237576   4.341   6.912   1.637  0.8128  0.1056  0.4682
 5338TIP3    H137577   4.374   6.875   1.719  1.7885 -0.8982 -0.3652
 5338TIP3    H237578   4.348   6.841   1.573  1.0376  1.1795 -0.7375
 5339TIP3   OH237579   1.772   6.246   1.126  0.3324 -0.0768  0.7852
 5339TIP3    H137580   1.681   6.244   1.097  0.3174  0.5612  0.7673
 5339TIP3    H237581   1.823   6.253   1.045  0.5417 -2.6149  0.6177
 5340TIP3   OH237582   3.837   5.289   6.922 -0.1294  0.3296  0.1773
 5340TIP3    H137583   3.799   5.244   6.997  0.2407 -0.8732 -0.3280
 5340TIP3    H237584   3.789   5.372   6.916 -1.7516 -0.5609  0.3459
 5341TIP3   OH237585   3.171   0.808   8.335  0.4812 -0.0254  0.4986
 5341TIP3    H137586   3.236   0.865   8.377 -0.0213 -0.0196  1.2891
 5341TIP3    H237587   3.102   0.867   8.307  0.6432 -0.0764 -0.0246
 5342TIP3   OH237588   2.663   2.704   7.747  0.0795 -0.2785 -0.1984
 5342TIP3    H137589   2.723   2.688   7.674 -0.7073 -2.2080 -0.4718
 5342TIP3    H237590   2.611   2.780   7.719  0.2528 -0.5577 -1.3462
 5343TIP3   OH237591   2.349   2.473   0.439  0.0635  0.3709 -0.3159
 5343TIP3    H137592   2.366   2.437   0.352 -0.7365 -0.8855  0.0289
 5343TIP3    H237593   2.255   2.491   0.440 -0.2091 -0.9166  0.7192
 5344TIP3   OH237594   3.325   2.769   7.784  0.0596  0.4694  0.0033
 5344TIP3    H137595   3.342   2.752   7.877 -2.3346  0.1223  0.4431
 5344TIP3    H237596   3.313   2.681   7.746 -3.4186  0.6167  0.4006
 5345TIP3   OH237597   3.036   4.787   7.748 -0.4769  0.3071 -0.1902
 5345TIP3    H137598   3.115   4.738   7.768 -1.0633 -0.9211 -0.7782
 5345TIP3    H237599   2.966   4.722   7.751 -1.7170  1.6377  1.8492
 5346TIP3   OH237600   3.573   4.732   7.132 -0.0848 -0.1424  0.2314
 5346TIP3    H137601   3.561   4.660   7.071 -0.1229  0.1801 -0.1450
 5346TIP3    H237602   3.623   4.694   7.205  2.8367  0.1843 -1.4316
 5347TIP3   OH237603   4.542   0.147   7.667 -0.0919  0.1761  0.4668
 5347TIP3    H137604   4.511   0.236   7.650 -1.9382 -0.2372  1.3586
 5347TIP3    H237605   4.576   0.116   7.583 -2.3679  0.6351 -0.7118
 5348TIP3   OH237606   1.650   6.696   7.207 -0.3047  0.5398  0.5572
 5348TIP3    H137607   1.717   6.643   7.251 -0.8082 -0.0269  0.6655
 5348TIP3    H237608   1.598   6.733   7.278 -0.8722 -0.0507  0.4631
 5349TIP3   OH237609   1.089   0.411   1.626 -0.2906 -0.4240 -0.2052
 5349TIP3    H137610   1.127   0.332   1.667  0.3520 -0.0071  0.0221
 5349TIP3    H237611   0.995   0.394   1.625 -0.3160 -0.5088  1.3327
 5350TIP3   OH237612   3.044   5.230   7.353 -0.2339  0.0239  0.3423
 5350TIP3    H137613   3.135   5.199   7.352 -0.0450  0.4694  1.7253
 5350TIP3    H237614   2.992   5.153   7.327  0.4766 -0.4719  0.3700
 5351TIP3   OH237615   2.768   1.536   1.501 -0.3692  0.1308 -0.7924
 5351TIP3    H137616   2.814   1.457   1.530  1.2764  1.1946 -0.3426
 5351TIP3    H237617   2.762   1.590   1.580 -1.6984  0.3644 -1.0385
 5352TIP3   OH237618   6.244   5.688   1.370  0.0601 -0.1887  0.2456
 5352TIP3    H137619   6.303   5.763   1.369 -0.2298  0.0376 -0.8749
 5352TIP3    H237620   6.240   5.661   1.462  1.4897  0.1092  0.4073
 5353TIP3   OH237621   0.918   2.898   8.012  0.1476 -0.1394 -0.2340
 5353TIP3    H137622   0.836   2.852   8.026 -0.6955  0.2607 -3.0730
 5353TIP3    H237623   0.905   2.984   8.051 -0.2688 -0.5067  0.4540
 5354TIP3   OH237624   0.729   0.317   7.544 -0.0735 -0.0743  0.0046
 5354TIP3    H137625   0.666   0.387   7.558  0.1495  0.2003 -0.3381
 5354TIP3    H237626   0.742   0.315   7.449 -0.9881 -1.3766 -0.1209
 5355TIP3   OH237627   1.563   4.380   6.637 -0.2753  0.1663  0.3410
 5355TIP3    H137628   1.477   4.360   6.599  0.1415 -0.0281 -0.5331
 5355TIP3    H237629   1.607   4.430   6.569  1.3018 -2.0091 -0.3568
 5356TIP3   OH237630   3.103   1.749   6.395 -0.3067  0.3216 -0.4546
 5356TIP3    H137631   3.036   1.785   6.453  0.4431 -0.6456  1.0786
 5356TIP3    H237632   3.056   1.689   6.339 -0.6486 -1.1584  1.3108
 5357TIP3   OH237633   4.478   5.976   1.175 -0.3743  0.0882  0.4107
 5357TIP3    H137634   4.524   5.930   1.105 -0.2279  2.4802 -1.1571
 5357TIP3    H237635   4.524   5.949   1.255  1.0330 -0.8332 -0.6559
 5358TIP3   OH237636   0.833   4.520   8.139 -0.1966  0.2777  0.1848
 5358TIP3    H137637   0.884   4.506   8.219 -1.8462  0.9868  1.4286
 5358TIP3    H237638   0.807   4.612   8.144 -2.6362 -0.3587  0.3016
 5359TIP3   OH237639   2.982   6.189   8.009  0.6484  0.3878  0.7991
 5359TIP3    H137640   2.986   6.196   8.104  0.2538  0.9618  0.7749
 5359TIP3    H237641   2.912   6.125   7.993  2.2430 -1.4682  0.9361
 5360TIP3   OH237642   6.687   3.267   7.878  0.4855 -0.0494  0.1910
 5360TIP3    H137643   6.732   3.212   7.941  1.7025  2.3558  1.5446
 5360TIP3    H237644   6.615   3.307   7.927 -0.1783 -0.1601 -0.6670
 5361TIP3   OH237645   1.944   2.978   7.378  0.0854  0.4645 -0.0806
 5361TIP3    H137646   1.876   3.017   7.323 -0.9449 -0.4148  0.5206
 5361TIP3    H237647   2.025   3.019   7.350 -0.8434  2.4624 -0.0015
 5362TIP3   OH237648   5.566   2.056   7.909 -0.2234 -0.0452  0.3142
 5362TIP3    H137649   5.506   2.056   7.983  1.4575  0.8965  1.7498
 5362TIP3    H237650   5.572   1.964   7.883 -1.8658 -0.2161  0.4509
 5363TIP3   OH237651   2.199   6.614   7.711 -0.0774  0.4435 -0.4184
 5363TIP3    H137652   2.231   6.595   7.623  2.6029 -2.5053  0.9867
 5363TIP3    H237653   2.269   6.665   7.752 -1.6928  2.5875 -0.1548
 5364TIP3   OH237654   0.535   3.801   7.159  0.5409 -0.2018  0.1688
 5364TIP3    H137655   0.447   3.776   7.131  0.0117  1.5896  0.0530
 5364TIP3    H237656   0.594   3.746   7.107 -0.4714  0.6846 -2.0479
 5365TIP3   OH237657   4.149   6.566   2.258 -0.0084 -0.0744 -0.0715
 5365TIP3    H137658   4.191   6.534   2.338  0.9438  0.6909 -0.2497
 5365TIP3    H237659   4.192   6.517   2.187  0.1377  0.2544 -0.2108
 5366TIP3   OH237660   4.047   0.241   0.076 -0.0972  0.4365  0.0146
 5366TIP3    H137661   4.106   0.167   0.062 -1.0217 -0.1102 -1.0918
 5366TIP3    H237662   4.045   0.252   0.171  0.5220 -0.5733  0.1575
 5367TIP3   OH237663   5.580   0.798   0.615  0.1044 -0.2082  1.2918
 5367TIP3    H137664   5.550   0.759   0.697 -0.3040  0.6975  1.5913
 5367TIP3    H237665   5.499   0.820   0.568  0.3366 -0.7245  0.6448
 5368TIP3   OH237666   2.932   3.565   6.184 -0.0476 -0.3048 -0.5294
 5368TIP3    H137667   3.008   3.552   6.127  3.3468  1.8548  2.9685
 5368TIP3    H237668   2.899   3.652   6.161  0.3204 -0.0887 -0.2457
 5369TIP3   OH237669   4.004   6.763   7.764 -0.1712 -0.4866  0.2895
 5369TIP3    H137670   3.921   6.781   7.809  1.3067  3.1143  1.9359
 5369TIP3    H237671   4.020   6.670   7.782 -2.4683 -0.5904  2.4030
 5370TIP3   OH237672   5.417   6.431   6.769  0.4186 -0.5952  0.2631
 5370TIP3    H137673   5.441   6.413   6.860  0.1915  0.1258  0.4693
 5370TIP3    H237674   5.334   6.385   6.756 -1.5291  2.2423  1.5684
 5371TIP3   OH237675   5.580   0.407   7.358  0.6713  0.1531 -0.0678
 5371TIP3    H137676   5.556   0.316   7.342 -0.4910  0.7453 -1.9487
 5371TIP3    H237677   5.594   0.412   7.453 -1.9708 -1.3700  0.4934
 5372TIP3   OH237678   6.132   6.114   0.522  0.2247  0.0002  0.1290
 5372TIP3    H137679   6.074   6.060   0.469 -1.3810  0.4358  1.3601
 5372TIP3    H237680   6.134   6.199   0.478  1.8564 -0.6565 -1.1861
 5373TIP3   OH237681   4.199   1.500   0.678  0.1087  0.3133  0.0040
 5373TIP3    H137682   4.148   1.561   0.731  2.1314  1.8620  0.2988
 5373TIP3    H237683   4.266   1.467   0.739 -0.8794 -2.1967 -0.1716
 5374TIP3   OH237684   5.786   5.003   7.026  0.1716  0.2116  0.1599
 5374TIP3    H137685   5.844   4.945   6.976 -1.0910  1.0448 -2.4298
 5374TIP3    H237686   5.787   4.967   7.115  3.1363 -0.8947 -0.2200
 5375TIP3   OH237687   1.420   5.165   6.738 -0.2893 -0.4030  0.7673
 5375TIP3    H137688   1.341   5.112   6.736 -0.0046 -0.8507 -1.5370
 5375TIP3    H237689   1.389   5.256   6.736 -0.7595 -0.5598  0.8871
 5376TIP3   OH237690   6.846   2.080   7.220  0.7560 -0.3284  0.3889
 5376TIP3    H137691   6.774   2.041   7.269  1.1053  0.0330  1.2183
 5376TIP3    H237692   6.887   2.007   7.174 -1.2001 -0.2949 -1.5561
 5377TIP3   OH237693   6.830   1.482   7.353 -0.0282  0.0582 -0.3920
 5377TIP3    H137694   6.796   1.560   7.309  0.8971 -0.5270 -2.2532
 5377TIP3    H237695   6.923   1.480   7.330 -0.0627 -1.6436 -0.4687
 5378TIP3   OH237696   3.911   2.964   7.127  0.0829  0.1175 -0.1877
 5378TIP3    H137697   3.964   2.899   7.174  0.6236  0.6655 -0.0327
 5378TIP3    H237698   3.953   3.048   7.146 -1.5387  0.7387  0.9602
 5379TIP3   OH237699   5.411   5.925   6.298 -0.4512  0.4608 -0.2369
 5379TIP3    H137700   5.490   5.871   6.300 -0.5203  0.1918  3.6532
 5379TIP3    H237701   5.440   6.011   6.326 -1.4882  0.2652  1.6076
 5380TIP3   OH237702   4.061   6.769   6.712  0.2324 -0.7697  0.4308
 5380TIP3    H137703   3.980   6.733   6.749 -1.2446 -1.4012 -2.9690
 5380TIP3    H237704   4.130   6.712   6.744 -1.3127 -3.0915 -0.0926
 5381TIP3   OH237705   0.099   4.852   0.936 -0.9182 -0.3609 -0.1226
 5381TIP3    H137706   0.116   4.878   1.026 -1.1054  1.0621 -0.4632
 5381TIP3    H237707   0.028   4.788   0.942 -0.4709 -0.7891  0.7756
 5382TIP3   OH237708   6.266   3.573   7.744  0.0607 -0.3005 -0.1248
 5382TIP3    H137709   6.193   3.588   7.685 -0.4024  0.1110  0.5405
 5382TIP3    H237710   6.293   3.482   7.727  0.7522  0.1750 -1.8366
 5383TIP3   OH237711   1.763   0.288   1.674  0.4646 -0.2767 -0.3382
 5383TIP3    H137712   1.790   0.339   1.750 -0.1917  0.8186 -0.8027
 5383TIP3    H237713   1.779   0.347   1.600  0.6776 -1.1577 -1.0074
 5384TIP3   OH237714   5.463   2.113   6.798 -0.6446 -0.6660  0.0922
 5384TIP3    H137715   5.421   2.176   6.739  1.5678 -0.6765 -1.6244
 5384TIP3    H237716   5.507   2.166   6.863  0.6394 -0.4229 -0.9465
 5385TIP3   OH237717   4.076   4.743   6.448  0.2659  0.2467  0.4587
 5385TIP3    H137718   4.170   4.726   6.453  0.0771 -0.5681  1.8747
 5385TIP3    H237719   4.035   4.657   6.458 -0.6393  0.7617  1.4879
 5386TIP3   OH237720   2.633   2.228   0.270  0.1051 -0.6538  0.2600
 5386TIP3    H137721   2.710   2.256   0.219  0.3760  1.6447  1.7798
 5386TIP3    H237722   2.668   2.208   0.357 -0.5518 -3.2245  0.0168
 5387TIP3   OH237723   4.826   3.109   8.181  0.5348  0.0560  0.8285
 5387TIP3    H137724   4.899   3.106   8.119  0.0308 -1.3771  0.2623
 5387TIP3    H237725   4.753   3.146   8.130 -0.0211 -1.5899  0.3550
 5388TIP3   OH237726   5.536   0.615   6.786  0.0851  0.4503  0.0097
 5388TIP3    H137727   5.602   0.621   6.717 -0.9192  0.7206 -0.9416
 5388TIP3    H237728   5.570   0.547   6.845  0.9651  0.2214 -0.7398
 5389TIP3   OH237729   2.159   2.466   7.496  0.3796 -0.8764  0.0551
 5389TIP3    H137730   2.065   2.464   7.475  0.2369  1.2891  0.2922
 5389TIP3    H237731   2.163   2.500   7.585  1.4153  0.0219 -0.3137
 5390TIP3   OH237732   4.291   0.511   8.060  0.4376 -0.4405 -0.0463
 5390TIP3    H137733   4.262   0.600   8.043 -0.7132 -0.7001  0.4114
 5390TIP3    H237734   4.303   0.507   8.155 -2.9067 -1.6356  0.4781
 5391TIP3   OH237735   1.485   0.458   6.747 -0.2351 -0.0565  0.1330
 5391TIP3    H137736   1.575   0.487   6.763  0.3857 -0.8559 -1.6039
 5391TIP3    H237737   1.449   0.525   6.688 -1.3430  1.0792  2.0066
 5392TIP3   OH237738   5.044   6.310   7.776 -0.5538 -0.7938  0.3476
 5392TIP3    H137739   5.028   6.241   7.840 -0.6747 -2.1333 -1.0800
 5392TIP3    H237740   4.977   6.376   7.795 -0.2857 -0.9190  1.8829
 5393TIP3   OH237741   2.760   6.459   0.841  0.1693  0.0342 -0.0133
 5393TIP3    H137742   2.735   6.380   0.793 -1.1873  0.0013  0.6844
 5393TIP3    H237743   2.677   6.506   0.856  0.8003  1.0232  0.5670
 5394TIP3   OH237744   4.245   2.717   0.025 -0.5091 -0.3456  0.2004
 5394TIP3    H137745   4.278   2.738  -0.063 -0.9844 -1.1663 -0.1895
 5394TIP3    H237746   4.324   2.700   0.077 -0.2591 -1.0833 -0.4033
 5395TIP3   OH237747   3.338   5.592   7.881 -0.6090 -0.0946 -0.0049
 5395TIP3    H137748   3.344   5.560   7.971  0.5078 -1.8523 -0.6354
 5395TIP3    H237749   3.267   5.541   7.842  0.3967 -1.0102 -0.7020
 5396TIP3   OH237750   2.106   5.979   7.980 -0.3288  1.0572  0.0534
 5396TIP3    H137751   2.183   5.960   7.927  0.9274  2.9194  1.1151
 5396TIP3    H237752   2.056   6.041   7.927 -0.2696  1.0945  0.0408
 5397TIP3   OH237753   5.265   5.820   7.568  0.3685 -0.1676 -0.6432
 5397TIP3    H137754   5.178   5.800   7.532  1.1880 -1.2777 -2.1506
 5397TIP3    H237755   5.306   5.876   7.502  1.3184 -0.8764 -0.6779
 5398TIP3   OH237756   5.101   3.499   2.150 -0.5288 -0.3423  0.0255
 5398TIP3    H137757   5.185   3.486   2.193 -0.0229  0.0988 -0.7910
 5398TIP3    H237758   5.037   3.460   2.209 -0.0572  1.5938  1.9606
 5399TIP3   OH237759   6.374   0.102   7.909  0.2553 -0.4925  0.5531
 5399TIP3    H137760   6.385   0.107   7.814  0.0983 -1.1682  0.4973
 5399TIP3    H237761   6.428   0.173   7.943  0.0151  0.0013 -0.0628
 5400TIP3   OH237762   1.457   6.387   8.037  0.1343 -0.2897 -0.2547
 5400TIP3    H137763   1.496   6.470   8.007 -0.3478 -0.1523 -0.5003
 5400TIP3    H237764   1.504   6.367   8.118 -0.8146  1.0414  0.6686
 5401TIP3   OH237765   6.192   3.123   6.391 -0.1660  0.0057  0.2342
 5401TIP3    H137766   6.286   3.118   6.404  0.0291  1.6050 -0.3684
 5401TIP3    H237767   6.167   3.036   6.358  0.4832 -1.6895  3.6934
 5402TIP3   OH237768   5.429   4.343   1.279 -0.5366  0.2547 -0.3021
 5402TIP3    H137769   5.376   4.324   1.202  0.4949 -0.1084 -0.9430
 5402TIP3    H237770   5.478   4.422   1.256 -1.9732  1.5937  0.9145
 5403TIP3   OH237771   3.546   5.745   0.771  0.5922 -0.2178  0.5391
 5403TIP3    H137772   3.514   5.665   0.814  1.8321  0.0052  1.9267
 5403TIP3    H237773   3.467   5.798   0.758 -0.0834 -1.1664  0.6727
 5404TIP3   OH237774   3.813   6.503   0.694 -0.7818 -0.0591 -0.4561
 5404TIP3    H137775   3.876   6.525   0.626 -0.4934 -0.3250 -0.2766
 5404TIP3    H237776   3.764   6.429   0.659 -0.0667 -0.7451 -0.0375
 5405TIP3   OH237777   6.182   3.517   6.717 -0.3102 -0.2723  0.1143
 5405TIP3    H137778   6.116   3.587   6.720 -0.3710 -0.3451  0.5959
 5405TIP3    H237779   6.164   3.471   6.635 -0.9687 -0.3962  0.3194
 5406TIP3   OH237780   5.215   2.391   7.915 -0.1613  0.0891 -0.2935
 5406TIP3    H137781   5.226   2.429   7.828 -0.5612 -0.3877 -0.5631
 5406TIP3    H237782   5.261   2.450   7.974  0.4963  0.1751 -0.8868
 5407TIP3   OH237783   5.063   3.279   6.693 -0.0080  0.0900  0.3559
 5407TIP3    H137784   5.109   3.258   6.775 -0.1125 -3.2746 -0.3005
 5407TIP3    H237785   5.133   3.295   6.630  0.1650 -0.5016  0.3920
 5408TIP3   OH237786   3.185   0.167   1.144 -0.9336  0.4207  0.4589
 5408TIP3    H137787   3.186   0.261   1.158 -0.4551  0.6450 -0.8740
 5408TIP3    H237788   3.102   0.150   1.100 -0.8143  0.2942  0.2789
 5409TIP3   OH237789   3.631   1.386   7.741  0.4851  0.3662  0.3544
 5409TIP3    H137790   3.583   1.400   7.823  1.9341  1.4702  1.0604
 5409TIP3    H237791   3.668   1.472   7.720  0.8938 -0.1135 -0.9680
 5410TIP3   OH237792   5.224   4.859   8.044 -0.3788  0.3185  0.2755
 5410TIP3    H137793   5.279   4.790   8.082 -2.0705 -0.4227  1.5277
 5410TIP3    H237794   5.211   4.921   8.115 -1.5949  0.1885  0.1842
 5411TIP3   OH237795   4.926   4.642   1.838  0.3775 -0.0489  0.2948
 5411TIP3    H137796   4.916   4.732   1.869  0.6634 -0.6701  2.3492
 5411TIP3    H237797   5.020   4.625   1.847  0.6395  0.0290 -1.9040
 5412TIP3   OH237798   3.119   5.490   0.553  0.2817  0.0494  0.4860
 5412TIP3    H137799   3.156   5.461   0.470 -0.4624 -0.1741  0.2223
 5412TIP3    H237800   3.024   5.483   0.541  0.1386  0.7594  1.0821
 5413TIP3   OH237801   2.597   5.456   7.625 -0.1439 -0.0411 -0.2427
 5413TIP3    H137802   2.563   5.405   7.552 -0.1689  0.9481 -0.9467
 5413TIP3    H237803   2.584   5.400   7.701 -2.2719 -0.1922 -0.6485
 5414TIP3   OH237804   0.437   2.603   7.373 -0.3115  0.2551 -0.1636
 5414TIP3    H137805   0.406   2.645   7.293 -0.1133 -1.3961 -1.1391
 5414TIP3    H237806   0.508   2.546   7.345  0.1595  0.0808  1.2842
 5415TIP3   OH237807   4.342   3.273   5.970  0.0964  0.1834 -0.2519
 5415TIP3    H137808   4.252   3.304   5.959 -0.0232  0.7697  2.0507
 5415TIP3    H237809   4.333   3.187   6.011  0.5521  1.0020  1.6811
 5416TIP3   OH237810   3.240   5.207   1.034  0.1459  0.2657 -0.2177
 5416TIP3    H137811   3.245   5.271   0.963 -1.6162  0.1726 -0.4537
 5416TIP3    H237812   3.329   5.171   1.039  0.5878  1.0719 -1.6157
 5417TIP3   OH237813   0.974   5.620   0.451  0.6167 -0.0110  1.1096
 5417TIP3    H137814   0.911   5.685   0.481 -0.0454 -0.6267  1.0718
 5417TIP3    H237815   1.007   5.654   0.368 -0.3822 -0.1579  0.6485
 5418TIP3   OH237816   1.673   1.139   0.104 -0.2018 -0.0984  0.4411
 5418TIP3    H137817   1.731   1.169   0.174 -0.3883 -1.4665  1.2321
 5418TIP3    H237818   1.593   1.112   0.149 -1.4143  1.5632 -0.6172
 5419TIP3   OH237819   6.558   3.151   2.592  0.0697 -0.5908 -0.6519
 5419TIP3    H137820   6.521   3.195   2.669  1.5355  0.4155 -0.4657
 5419TIP3    H237821   6.500   3.175   2.520  1.1404  2.2658 -0.6779
 5420TIP3   OH237822   5.817   0.674   0.501  0.7737 -0.1508 -0.6447
 5420TIP3    H137823   5.777   0.587   0.500  1.6024 -0.5344 -1.4718
 5420TIP3    H237824   5.756   0.728   0.553 -0.3841 -0.9092 -1.1776
 5421TIP3   OH237825   5.892   5.431   0.464  0.0622 -0.3761 -0.2280
 5421TIP3    H137826   5.844   5.398   0.540  2.0267  0.2275  1.3421
 5421TIP3    H237827   5.856   5.382   0.390 -1.2786 -1.6370  1.1935
 5422TIP3   OH237828   0.932   1.188   6.283  0.3040 -0.1460  0.0027
 5422TIP3    H137829   0.914   1.202   6.190 -1.2844 -1.4538  0.0769
 5422TIP3    H237830   0.846   1.182   6.324  0.9186 -2.0847  1.1452
 5423TIP3   OH237831   5.272   6.637   1.084  0.2240 -0.2650 -0.1233
 5423TIP3    H137832   5.179   6.652   1.099 -0.0859 -1.2696 -0.8842
 5423TIP3    H237833   5.309   6.723   1.068 -1.1554 -0.0816 -2.8587
 5424TIP3   OH237834   0.421   0.501   6.682  0.5854 -0.0185  0.3459
 5424TIP3    H137835   0.516   0.489   6.672  0.4186 -0.7955 -0.5106
 5424TIP3    H237836   0.408   0.511   6.776  1.6009  0.9423  0.4070
 5425TIP3   OH237837   1.832   5.819   7.595 -0.3574  0.2933  0.5270
 5425TIP3    H137838   1.779   5.748   7.632 -1.8393  1.1949  0.2221
 5425TIP3    H237839   1.835   5.885   7.664  1.5326 -0.2678  1.0424
 5426TIP3   OH237840   4.894   6.103   0.735  0.4872  0.4784 -0.3435
 5426TIP3    H137841   4.935   6.150   0.808 -1.4539  1.3192  0.2714
 5426TIP3    H237842   4.946   6.126   0.659 -0.3522  3.7569 -0.0852
 5427TIP3   OH237843   0.692   0.837   0.862 -0.3561  0.2249  0.3278
 5427TIP3    H137844   0.667   0.874   0.777  3.1383  0.2489 -0.8475
 5427TIP3    H237845   0.642   0.756   0.868 -1.3836  0.6787 -1.3043
 5428TIP3   OH237846   4.524   0.083   2.411  0.3066  0.1039 -0.2442
 5428TIP3    H137847   4.613   0.067   2.380  0.5067  0.6205  0.0624
 5428TIP3    H237848   4.477   0.113   2.333 -0.2172 -2.3469 -0.9807
 5429TIP3   OH237849   4.179   1.730   0.442  0.3411  0.5931  0.2258
 5429TIP3    H137850   4.111   1.687   0.391  0.4612  0.5186  0.1308
 5429TIP3    H237851   4.133   1.803   0.485 -0.2476 -0.6304  1.7530
 5430TIP3   OH237852   5.414   4.094   1.449  0.2087 -1.0960  0.4584
 5430TIP3    H137853   5.460   4.104   1.532 -0.3082  0.0764  0.6308
 5430TIP3    H237854   5.424   4.179   1.405  0.5057 -1.7060 -0.7002
 5431TIP3   OH237855   1.698   4.555   0.512 -0.4276  0.2550 -0.6175
 5431TIP3    H137856   1.775   4.519   0.467 -0.9767 -1.6054 -0.1738
 5431TIP3    H237857   1.690   4.500   0.590 -1.0595  1.7076  0.3719
 5432TIP3   OH237858   6.137   4.353   7.673  0.2099  0.3468 -0.2101
 5432TIP3    H137859   6.205   4.374   7.737 -0.3460 -0.8220  0.7982
 5432TIP3    H237860   6.056   4.351   7.724 -0.5684  1.4650 -1.3427
 5433TIP3   OH237861   2.794   3.784   7.320  0.1658  0.6821  0.1612
 5433TIP3    H137862   2.737   3.861   7.318 -1.3142 -0.2615  2.2291
 5433TIP3    H237863   2.827   3.780   7.409  0.4596 -0.8919  0.0191
 5434TIP3   OH237864   2.632   6.754   1.707 -0.2370  0.1001  0.0820
 5434TIP3    H137865   2.657   6.805   1.785 -0.3765 -0.0770  0.2437
 5434TIP3    H237866   2.561   6.805   1.668 -0.3244  0.0721  0.2018
 5435TIP3   OH237867   3.382   4.117   0.392  0.5552  0.2753 -0.3533
 5435TIP3    H137868   3.387   4.022   0.402  1.5410  0.4662  1.6130
 5435TIP3    H237869   3.432   4.136   0.313  0.1725 -0.8442 -0.8847
 5436TIP3   OH237870   5.663   3.443   0.427  0.7094  0.6366 -0.3897
 5436TIP3    H137871   5.681   3.349   0.423 -0.2474  0.4469 -0.4777
 5436TIP3    H237872   5.575   3.449   0.464  1.1260  1.5456  0.4659
 5437TIP3   OH237873   6.484   1.645   0.030  0.2448 -0.3139  0.0115
 5437TIP3    H137874   6.494   1.738   0.050 -1.7519 -0.2572  1.0042
 5437TIP3    H237875   6.409   1.642  -0.030  0.8688 -1.2290 -0.7591
 5438TIP3   OH237876   3.233   3.107   1.104 -0.3828 -0.1300  0.4851
 5438TIP3    H137877   3.197   3.089   1.017  0.7210 -2.5144  0.4546
 5438TIP3    H237878   3.165   3.076   1.164 -1.4212  2.0890  0.5682
 5439TIP3   OH237879   5.360   0.370   0.210  0.3848 -0.0674 -0.3687
 5439TIP3    H137880   5.447   0.367   0.168  0.0701  1.1325 -1.1828
 5439TIP3    H237881   5.374   0.423   0.289  0.2006  1.0905 -1.0838
 5440TIP3   OH237882   2.988   4.400   6.956 -0.0829 -0.2608 -0.6514
 5440TIP3    H137883   3.039   4.328   6.992 -0.3725 -0.5682 -0.8530
 5440TIP3    H237884   3.043   4.477   6.968  0.3886 -0.5757 -0.7873
 5441TIP3   OH237885   3.611   2.076   0.282 -0.1493 -0.2779 -0.4263
 5441TIP3    H137886   3.687   2.071   0.341 -0.3802  0.5837 -0.0459
 5441TIP3    H237887   3.648   2.106   0.199  0.0266 -0.5416 -0.4471
 5442TIP3   OH237888   0.636   2.693   7.769  0.1474  0.1859 -0.0743
 5442TIP3    H137889   0.710   2.735   7.725  1.1701 -0.7346  0.6896
 5442TIP3    H237890   0.672   2.611   7.802 -1.6195 -1.0122 -0.9673
 5443TIP3   OH237891   6.469   6.527   1.329 -0.7892 -0.3704  0.2344
 5443TIP3    H137892   6.557   6.522   1.367 -0.9737 -1.9811  0.5158
 5443TIP3    H237893   6.413   6.484   1.394 -1.9014  1.1807  0.3363
 5444TIP3   OH237894   1.556   0.804   6.439 -0.1694  0.3801  0.0835
 5444TIP3    H137895   1.519   0.881   6.397  0.6370  1.4731  1.3256
 5444TIP3    H237896   1.648   0.826   6.455  0.6868 -1.6878 -1.5185
 5445TIP3   OH237897   5.800   0.882   6.775 -0.0421  0.5347 -0.1790
 5445TIP3    H137898   5.823   0.813   6.713  0.4570  0.6745 -0.1544
 5445TIP3    H237899   5.797   0.838   6.860  0.6862  0.6149 -0.1025
 5446TIP3   OH237900   5.810   2.708   6.946  0.2738  0.1144  0.0971
 5446TIP3    H137901   5.899   2.736   6.968  0.2877  0.1534 -0.0073
 5446TIP3    H237902   5.780   2.772   6.881  0.7545 -0.8099 -1.0568
 5447TIP3   OH237903   3.256   6.664   6.902  0.1466  0.4070 -0.6015
 5447TIP3    H137904   3.232   6.622   6.820 -0.2111 -0.0300 -0.2732
 5447TIP3    H237905   3.178   6.712   6.929  0.3955  0.8872 -0.7235
 5448TIP3   OH237906   0.824   2.775   7.569  0.1744  0.3760  0.2204
 5448TIP3    H137907   0.843   2.864   7.539 -0.3004 -0.2095 -1.9299
 5448TIP3    H237908   0.865   2.718   7.504 -0.0862 -0.9981  1.2105
 5449TIP3   OH237909   0.837   5.010   0.904  0.2213  0.1578  0.1144
 5449TIP3    H137910   0.799   4.967   0.827  1.6188  0.5524 -0.8249
 5449TIP3    H237911   0.785   5.090   0.914  0.3560  0.3736 -0.7613
 5450TIP3   OH237912   5.349   3.447   2.341 -0.0601 -0.5732  0.1814
 5450TIP3    H137913   5.425   3.399   2.373  0.8885  0.8960  0.2520
 5450TIP3    H237914   5.386   3.519   2.289 -1.4552 -0.6469 -0.9733
 5451TIP3   OH237915   0.496   0.519   1.958  0.1897  0.4110 -0.5575
 5451TIP3    H137916   0.408   0.556   1.946 -1.1569 -2.1159  0.7568
 5451TIP3    H237917   0.499   0.497   2.051  1.0767 -2.2116 -1.1523
 5452TIP3   OH237918   1.438   6.911   8.281 -0.2738 -0.2304  0.2590
 5452TIP3    H137919   1.360   6.883   8.233 -0.4780 -0.8953  0.9703
 5452TIP3    H237920   1.505   6.921   8.213 -0.7659 -0.4158 -0.2597
 5453TIP3   OH237921   5.716   4.101   5.913  0.4138  0.0969  0.1134
 5453TIP3    H137922   5.624   4.077   5.905  0.7867 -2.1734  1.6264
 5453TIP3    H237923   5.728   4.119   6.006  1.4294  0.6869 -0.1194
 5454TIP3   OH237924   5.669   4.089   1.145  0.2215  0.0943 -0.2706
 5454TIP3    H137925   5.667   4.000   1.179 -0.4690  0.0737 -0.3581
 5454TIP3    H237926   5.690   4.143   1.221 -0.8995  0.0049  0.1249
 5455TIP3   OH237927   3.169   0.584   7.558 -0.5304 -0.2994 -0.1697
 5455TIP3    H137928   3.146   0.496   7.531 -1.3938 -0.0972 -0.1231
 5455TIP3    H237929   3.136   0.592   7.648 -0.8126  0.1990 -0.3119
 5456TIP3   OH237930   1.557   1.083   6.936 -0.3755 -0.0145  0.0556
 5456TIP3    H137931   1.631   1.030   6.965 -0.6952  0.1689  1.2806
 5456TIP3    H237932   1.526   1.041   6.856  3.1953  1.8909 -2.5941
 5457TIP3   OH237933   0.577   3.108   7.620 -0.0349 -0.1679  0.1404
 5457TIP3    H137934   0.529   3.031   7.590  1.1590 -0.3448 -1.4331
 5457TIP3    H237935   0.656   3.074   7.662 -0.6962  0.1603  1.7367
 5458TIP3   OH237936   6.295   3.770   1.273 -0.1526  0.2692  0.3273
 5458TIP3    H137937   6.285   3.703   1.341 -1.1767 -1.0046 -1.0163
 5458TIP3    H237938   6.207   3.804   1.259  0.1930  1.1558  0.2416
 5459TIP3   OH237939   3.823   5.673   0.806 -0.3276  0.6307 -1.1009
 5459TIP3    H137940   3.850   5.671   0.714  0.7818  2.3788 -0.8636
 5459TIP3    H237941   3.733   5.707   0.804 -1.7265 -2.7889 -1.7240
 5460TIP3   OH237942   1.470   1.730   6.689 -0.2795  0.3514 -0.2071
 5460TIP3    H137943   1.494   1.819   6.664  0.0541  1.3080  3.0129
 5460TIP3    H237944   1.536   1.675   6.649  0.4097  1.7234 -1.0330
 5461TIP3   OH237945   2.155   6.480   2.053 -1.1642  0.4568 -0.0121
 5461TIP3    H137946   2.119   6.566   2.074  0.2046  1.1132 -0.2083
 5461TIP3    H237947   2.249   6.496   2.041 -1.2061 -0.6443 -2.2960
 5462TIP3   OH237948   0.929   4.295   0.582  0.0430  0.2700 -0.1178
 5462TIP3    H137949   0.890   4.216   0.546 -1.3872  0.3968  1.0594
 5462TIP3    H237950   1.019   4.294   0.551 -0.5204 -0.7375 -1.8210
 5463TIP3   OH237951   5.213   0.182   7.880  0.4757 -0.2827 -0.0739
 5463TIP3    H137952   5.249   0.111   7.932  1.0146 -0.4787 -0.7114
 5463TIP3    H237953   5.289   0.229   7.847  0.1467 -0.4091 -1.0352
 5464TIP3   OH237954   2.973   3.697   7.742  0.1010 -0.0713 -0.1423
 5464TIP3    H137955   2.901   3.634   7.747 -1.8462  1.8576 -1.4813
 5464TIP3    H237956   2.981   3.731   7.831 -1.3415  0.3348 -0.1383
 5465TIP3   OH237957   3.656   3.395   6.044 -0.0016  0.3335  0.4833
 5465TIP3    H137958   3.657   3.393   6.139  2.7005 -0.5885  0.5113
 5465TIP3    H237959   3.747   3.379   6.018 -0.5689  0.9709 -2.2534
 5466TIP3   OH237960   0.333   2.113   6.817  0.0785 -0.5353  0.3017
 5466TIP3    H137961   0.300   2.026   6.795 -0.3942 -0.3075  0.1048
 5466TIP3    H237962   0.400   2.130   6.750 -0.0574 -0.6142  0.1435
 5467TIP3   OH237963   2.890   5.310   1.664  0.0548 -0.3322  0.2597
 5467TIP3    H137964   2.925   5.320   1.576 -1.0261 -0.7080 -0.2342
 5467TIP3    H237965   2.840   5.228   1.661  1.0675 -1.0325  1.5960
 5468TIP3   OH237966   6.667   4.528   1.164 -0.5085  0.4382 -0.3551
 5468TIP3    H137967   6.629   4.468   1.228 -1.7925  1.1868 -0.3989
 5468TIP3    H237968   6.614   4.607   1.170 -0.9644  0.3726 -2.6669
 5469TIP3   OH237969   2.269   3.665   0.033 -0.1858  0.4112 -0.4522
 5469TIP3    H137970   2.188   3.672  -0.018 -0.8950  0.8472  0.6686
 5469TIP3    H237971   2.260   3.732   0.101  1.3340  0.7740 -0.5735
 5470TIP3   OH237972   4.078   0.874   7.066  0.3572 -0.4049  0.6201
 5470TIP3    H137973   4.146   0.940   7.077  0.0990 -0.1050  0.4087
 5470TIP3    H237974   4.034   0.897   6.985  2.1511 -2.5338 -1.1039
 5471TIP3   OH237975   0.698   2.385   0.844 -0.0136  0.0642 -0.1234
 5471TIP3    H137976   0.717   2.291   0.849  1.7197  0.3235 -0.9809
 5471TIP3    H237977   0.680   2.411   0.934  0.5050 -0.9061  0.2735
 5472TIP3   OH237978   4.634   0.220   0.058 -0.1987  0.0692  0.7194
 5472TIP3    H137979   4.628   0.313   0.077 -1.9815  0.2928 -0.7074
 5472TIP3    H237980   4.548   0.196   0.024  1.0323 -1.4551 -1.6299
 5473TIP3   OH237981   1.238   5.733   7.072 -0.1528  0.3023  0.3543
 5473TIP3    H137982   1.186   5.706   6.996 -0.2054 -1.7051  1.0459
 5473TIP3    H237983   1.199   5.687   7.145  1.6752 -0.0707  1.1428
 5474TIP3   OH237984   2.713   5.359   6.584 -0.0375 -0.2219 -0.4590
 5474TIP3    H137985   2.621   5.380   6.573 -0.0515  0.0888  0.1854
 5474TIP3    H237986   2.739   5.407   6.663 -0.0589 -2.5989  1.1155
 5475TIP3   OH237987   0.951   0.839   0.067  0.6772 -0.0793  0.6337
 5475TIP3    H137988   0.893   0.912   0.089  1.9538  0.7765  1.2618
 5475TIP3    H237989   0.932   0.773   0.134  0.0864 -0.0225  0.5338
 5476TIP3   OH237990   0.282   6.941   7.981  0.3975 -0.1592  0.4676
 5476TIP3    H137991   0.258   6.890   8.059  1.2404  0.8689  1.4459
 5476TIP3    H237992   0.368   6.906   7.956 -0.0928 -0.8311 -0.3380
 5477TIP3   OH237993   0.999   3.434   8.130  0.4253 -0.1372 -0.0457
 5477TIP3    H137994   0.923   3.492   8.133  0.3936 -0.0438 -1.6316
 5477TIP3    H237995   1.062   3.473   8.190  0.3143  1.4179 -0.8904
 5478TIP3   OH237996   1.542   1.342   6.335 -0.1045 -0.1209  0.2390
 5478TIP3    H137997   1.636   1.331   6.346 -0.1771 -0.3865  0.5944
 5478TIP3    H237998   1.533   1.385   6.249  0.3278 -0.2404  0.1306
 5479TIP3   OH237999   6.908   4.444   7.987 -0.0495  0.4574  0.2951
 5479TIP3    H138000   6.903   4.444   7.891  0.1763  0.9653  0.2786
 5479TIP3    H238001   6.880   4.356   8.012 -1.1509  0.6500 -0.1778
 5480TIP3   OH238002   6.653   1.400   0.040 -1.0856  0.1571 -0.6406
 5480TIP3    H138003   6.620   1.489   0.052  1.2738  1.0825 -0.4494
 5480TIP3    H238004   6.587   1.356  -0.014 -4.6981  0.4956  2.9940
 5481TIP3   OH238005   5.992   0.504   7.415  0.1903  0.2277  0.2950
 5481TIP3    H138006   5.958   0.421   7.382  0.5261  0.2176 -0.0208
 5481TIP3    H238007   5.931   0.528   7.485 -1.1812  0.8144 -1.0386
 5482TIP3   OH238008   0.388   0.279   0.097 -0.4711 -0.4160 -0.3494
 5482TIP3    H138009   0.435   0.249   0.019  0.6691 -1.5308  0.7333
 5482TIP3    H238010   0.302   0.305   0.064  0.2185 -0.1747 -2.0869
 5483TIP3   OH238011   6.215   0.026   8.118  0.2752  0.2584 -0.3014
 5483TIP3    H138012   6.136  -0.025   8.100  2.2255 -2.0984 -2.9821
 5483TIP3    H238013   6.267   0.019   8.038  3.5102  1.1425  1.5611
 5484TIP3   OH238014   4.426   4.452   6.902  0.7673  0.2523  0.7718
 5484TIP3    H138015   4.376   4.459   6.821  0.7397  0.1495  0.7803
 5484TIP3    H238016   4.503   4.508   6.888  0.1981  1.1337  1.1093
 5485TIP3   OH238017   4.849   4.057   2.263 -0.1437 -0.5071  0.0967
 5485TIP3    H138018   4.893   4.113   2.199 -1.4213  0.0086 -0.3811
 5485TIP3    H238019   4.764   4.100   2.277 -0.1749 -0.9976  1.6133
 5486TIP3   OH238020   2.927   5.643   8.111  0.2381  0.9523 -0.2007
 5486TIP3    H138021   2.983   5.650   8.188  0.4448  1.0405 -0.3597
 5486TIP3    H238022   2.873   5.722   8.114  0.0533  0.8194  0.0059
 5487TIP3   OH238023   3.568   5.030   6.823 -0.7820  0.4566 -0.4192
 5487TIP3    H138024   3.494   5.051   6.765 -1.0309  0.3308 -0.1526
 5487TIP3    H238025   3.642   5.076   6.785 -1.1530  1.1904 -0.2879
 5488TIP3   OH238026   4.350   5.469   1.243  0.3492 -0.4360 -0.1215
 5488TIP3    H138027   4.323   5.380   1.224 -0.9408 -0.2953  0.8217
 5488TIP3    H238028   4.395   5.463   1.328  0.1247 -0.1851  0.0188
 5489TIP3   OH238029   5.355   4.054   0.841 -0.0363 -0.6251 -0.3080
 5489TIP3    H138030   5.386   4.051   0.750  1.4578 -1.8277  0.1963
 5489TIP3    H238031   5.413   3.995   0.888 -2.9228 -2.7852  0.8290
 5490TIP3   OH238032   2.309   0.588   0.233 -0.3000  0.7329  0.7056
 5490TIP3    H138033   2.364   0.627   0.165  0.3425  0.0405  0.8058
 5490TIP3    H238034   2.331   0.637   0.312  2.2334 -1.1923  1.3479
 5491TIP3   OH238035   1.129   1.404   6.387  0.3162 -0.3550  0.2644
 5491TIP3    H138036   1.211   1.432   6.426  0.1419 -1.2455  1.3056
 5491TIP3    H238037   1.101   1.329   6.440 -1.5897  0.4425  0.4547
 5492TIP3   OH238038   3.463   4.164   7.337  0.3986  0.2965 -0.1434
 5492TIP3    H138039   3.451   4.070   7.354  0.2504  0.3523  0.0634
 5492TIP3    H238040   3.375   4.201   7.345  0.3611  0.3690 -0.7782
 5493TIP3   OH238041   2.357   2.938   6.655 -0.4672  0.0306  0.2928
 5493TIP3    H138042   2.447   2.965   6.673 -0.4493  1.2848 -1.3977
 5493TIP3    H238043   2.350   2.943   6.559 -2.6818  1.1724  0.4664
 5494TIP3   OH238044   1.898   6.986   1.021 -0.4210  0.5310 -0.0293
 5494TIP3    H138045   1.858   6.938   1.094 -0.5835  1.7408  0.7193
 5494TIP3    H238046   1.943   7.059   1.063  0.1188  0.8283 -1.0976
 5495TIP3   OH238047   4.936   2.606   7.568  0.0377 -0.5074 -0.0406
 5495TIP3    H138048   4.860   2.650   7.607  1.0843  0.5430  0.8883
 5495TIP3    H238049   4.955   2.657   7.489 -0.2670 -0.8376 -0.3343
 5496TIP3   OH238050   1.578   2.691   7.418  0.2114  0.3935 -0.1383
 5496TIP3    H138051   1.530   2.743   7.353 -0.0665 -0.5404 -0.7043
 5496TIP3    H238052   1.658   2.665   7.373 -0.2756 -0.8010 -0.3705
 5497TIP3   OH238053   1.554   0.084   6.894  0.5380  0.2995  0.0258
 5497TIP3    H138054   1.525   0.110   6.806  0.2851 -1.0285 -0.3199
 5497TIP3    H238055   1.584  -0.007   6.882  0.3350  0.0452  1.3449
 5498TIP3   OH238056   4.096   3.108   1.529  0.1154 -0.0900  0.8568
 5498TIP3    H138057   4.011   3.088   1.490  0.1463 -0.7577  1.1343
 5498TIP3    H238058   4.127   3.025   1.565  0.6646  0.2530  1.1908
 5499TIP3   OH238059   3.092   4.360   8.361  0.5198 -0.0614  0.1136
 5499TIP3    H138060   3.117   4.277   8.402 -0.4457 -0.5756 -0.3000
 5499TIP3    H238061   3.036   4.334   8.288 -1.4157  1.0296  1.1350
 5500TIP3   OH238062   6.952   5.432   1.454 -0.6926  0.5628 -0.1355
 5500TIP3    H138063   7.026   5.489   1.434 -0.9499  0.3821 -1.6782
 5500TIP3    H238064   6.879   5.491   1.470 -0.7010  0.6961 -0.6550
 5501TIP3   OH238065   4.540   1.471   1.017  0.6224 -0.4537 -0.1540
 5501TIP3    H138066   4.629   1.450   1.046  0.8041  1.2047  0.5411
 5501TIP3    H238067   4.548   1.555   0.972 -1.0183  1.3483  2.5990
 5502TIP3   OH238068   5.496   3.151   8.358 -0.1179 -0.4296 -0.4676
 5502TIP3    H138069   5.568   3.202   8.322  0.9225 -1.0748  0.6080
 5502TIP3    H238070   5.433   3.217   8.389  0.0818  0.1451 -1.2654
 5503TIP3   OH238071   5.011   5.808   0.231  0.2744  0.4190 -0.0979
 5503TIP3    H138072   5.072   5.874   0.198  2.3274 -0.6159  1.3762
 5503TIP3    H238073   5.066   5.732   0.250 -1.4920 -0.6151  1.2517
 5504TIP3   OH238074   4.223   4.850   7.674  0.5169  0.0751  0.1012
 5504TIP3    H138075   4.221   4.935   7.719 -1.1345  0.8852 -1.3652
 5504TIP3    H238076   4.185   4.868   7.588  2.8662 -1.5525 -1.4120
 5505TIP3   OH238077   4.474   4.827   6.692  0.4844  0.6236  0.3785
 5505TIP3    H138078   4.486   4.830   6.786 -1.2007  0.6751  0.6228
 5505TIP3    H238079   4.525   4.901   6.659 -1.4129  2.5929  1.5972
 5506TIP3   OH238080   0.541   0.795   6.857 -0.3895 -0.1326  0.4469
 5506TIP3    H138081   0.550   0.831   6.769  1.3256  0.8304  0.9687
 5506TIP3    H238082   0.471   0.847   6.897  0.5563  1.1697  0.4625
 5507TIP3   OH238083   2.354   0.226   1.903  1.2010  0.2210  0.4301
 5507TIP3    H138084   2.326   0.306   1.859  1.0785 -0.1213 -0.1218
 5507TIP3    H238085   2.441   0.208   1.867  0.5535 -0.7954 -0.6968
 5508TIP3   OH238086   4.751   0.899   0.771 -0.3834  0.0434  0.3018
 5508TIP3    H138087   4.763   0.888   0.677 -0.0948 -1.3304  0.4797
 5508TIP3    H238088   4.827   0.949   0.800 -1.0576  1.5144 -0.3515
 5509TIP3   OH238089   0.519   5.867   8.189  0.2001  0.3829 -0.0081
 5509TIP3    H138090   0.488   5.814   8.263  1.4295  0.6517  0.7234
 5509TIP3    H238091   0.600   5.825   8.162 -0.5617 -0.0928 -1.6505
 5510TIP3   OH238092   4.631   1.202   7.470  0.1806  0.0930 -0.2681
 5510TIP3    H138093   4.631   1.218   7.375  0.6380  0.5806 -0.1900
 5510TIP3    H238094   4.637   1.106   7.477  1.8165  0.1262 -0.7407
 5511TIP3   OH238095   2.669   4.508   0.379 -0.0272  0.3785 -0.2352
 5511TIP3    H138096   2.631   4.473   0.299 -0.8033 -0.4658  0.4802
 5511TIP3    H238097   2.762   4.485   0.373 -0.3140 -0.8317 -0.3195
 5512TIP3   OH238098   0.002   0.844   6.244  0.7313 -0.2304  0.5300
 5512TIP3    H138099  -0.046   0.767   6.274  2.4471 -0.9529  1.6144
 5512TIP3    H238100  -0.002   0.906   6.317 -0.0064  0.4249 -0.0486
 5513TIP3   OH238101   1.948   4.908   7.751 -0.1273  0.2750 -0.7069
 5513TIP3    H138102   1.870   4.878   7.703  0.9621 -1.2127 -1.6414
 5513TIP3    H238103   2.011   4.837   7.740  1.6519  1.7878 -0.6589
 5514TIP3   OH238104   6.538   3.926   8.072 -0.0684  0.5146  0.2022
 5514TIP3    H138105   6.519   3.990   8.141  0.7275  1.1534 -0.1554
 5514TIP3    H238106   6.632   3.935   8.056 -0.4602  1.4211 -1.9695
 5515TIP3   OH238107   3.705   5.923   7.846  0.2583 -0.2469  0.1184
 5515TIP3    H138108   3.666   6.010   7.851  1.1170  0.1003  1.1539
 5515TIP3    H238109   3.631   5.864   7.832 -0.4285  0.5652  0.2402
 5516TIP3   OH238110   1.124   6.410   6.456 -0.2709  0.6686  0.3165
 5516TIP3    H138111   1.035   6.386   6.428 -0.0730  1.9509 -1.6167
 5516TIP3    H238112   1.176   6.331   6.442 -0.9077  0.2043  0.5263
 5517TIP3   OH238113   6.134   4.479   0.808 -0.4779  0.0960  0.6520
 5517TIP3    H138114   6.083   4.399   0.794 -0.3346 -0.1129  1.2922
 5517TIP3    H238115   6.095   4.543   0.748 -1.8707  0.1167  1.5280
 5518TIP3   OH238116   2.265   0.696   7.110 -0.3556 -0.7611 -0.1053
 5518TIP3    H138117   2.222   0.781   7.121  0.4100 -0.3540 -0.2592
 5518TIP3    H238118   2.358   0.714   7.116 -0.1676 -1.5429 -0.4891
 5519TIP3   OH238119   3.186   2.489   0.831  0.0592 -0.2624  0.3798
 5519TIP3    H138120   3.096   2.520   0.842 -0.1920  0.0137 -1.9022
 5519TIP3    H238121   3.238   2.568   0.821  0.5167 -0.4355  1.2991
 5520TIP3   OH238122   6.811   6.366   2.231 -0.0979  0.9464  0.3452
 5520TIP3    H138123   6.895   6.332   2.201 -1.0301 -1.0801 -0.1775
 5520TIP3    H238124   6.808   6.456   2.199  0.7765  0.2310 -1.9060
 5521TIP3   OH238125   5.642   1.677   1.068  0.4218 -0.3718  0.3389
 5521TIP3    H138126   5.624   1.768   1.044 -2.4253 -1.2953 -1.4744
 5521TIP3    H238127   5.737   1.674   1.080  0.9553  2.3066 -2.0750
 5522TIP3   OH238128   1.580   0.280   1.010 -0.0744 -0.1261  0.2611
 5522TIP3    H138129   1.584   0.250   1.101 -0.5841 -0.7418  0.0795
 5522TIP3    H238130   1.631   0.362   1.010  1.4281 -1.0205  0.7281
 5523TIP3   OH238131   0.649   0.292   6.751 -0.2167  0.3024 -0.5020
 5523TIP3    H138132   0.653   0.217   6.691  1.3307 -1.4452  1.6147
 5523TIP3    H238133   0.647   0.368   6.694 -2.4863 -1.3070 -2.7848
 5524TIP3   OH238134   6.123   4.115   8.228 -0.2990  0.6598  0.3003
 5524TIP3    H138135   6.038   4.116   8.182  0.3352  2.4421 -0.9269
 5524TIP3    H238136   6.186   4.090   8.161  0.4976  2.1375  0.4614
 5525TIP3   OH238137   5.478   3.387   0.867  0.3007  0.2461 -0.7502
 5525TIP3    H138138   5.496   3.463   0.811  0.0179 -0.4671 -1.8358
 5525TIP3    H238139   5.561   3.369   0.910  0.4632  0.9393 -0.7532
 5526TIP3   OH238140   0.774   4.332   6.743 -0.0092 -0.1702  0.5265
 5526TIP3    H138141   0.692   4.379   6.734  0.3986  0.6885  1.1393
 5526TIP3    H238142   0.820   4.377   6.815  1.1151 -0.4413 -0.0015
 5527TIP3   OH238143   6.677   2.277   6.840 -0.0419 -0.2152  0.3082
 5527TIP3    H138144   6.754   2.220   6.837 -0.2384 -0.6648  2.3230
 5527TIP3    H238145   6.712   2.364   6.860  0.2391  0.4571 -2.5863
 5528TIP3   OH238146   3.022   2.017   6.885  0.2458  0.4433  0.5180
 5528TIP3    H138147   3.004   1.972   6.803  0.1527  0.5349  0.4873
 5528TIP3    H238148   2.951   1.990   6.943 -0.5213  1.5226  0.1155
 5529TIP3   OH238149   4.616   1.930   6.935  0.9399 -0.3979  0.1789
 5529TIP3    H138150   4.661   1.868   6.879  0.5216 -0.5816  0.0383
 5529TIP3    H238151   4.547   1.967   6.879  0.9428 -0.0888  0.3727
 5530TIP3   OH238152   5.444   1.262   8.245 -0.0844 -0.0518  0.3700
 5530TIP3    H138153   5.508   1.331   8.261  0.2375 -0.1405 -0.4620
 5530TIP3    H238154   5.468   1.227   8.159 -1.3000 -0.0250 -0.0102
 5531TIP3   OH238155   1.113   2.662   1.938 -0.0130  0.3317 -0.4490
 5531TIP3    H138156   1.055   2.596   1.901 -0.9043  0.5268  0.5593
 5531TIP3    H238157   1.064   2.699   2.011  1.8652 -0.4004  1.2658
 5532TIP3   OH238158   0.845   5.840   0.520 -0.2411  0.0977  0.3953
 5532TIP3    H138159   0.909   5.898   0.561 -0.3222 -0.5037  1.3956
 5532TIP3    H238160   0.834   5.876   0.431  4.2262 -1.8235 -1.2270
 5533TIP3   OH238161   3.198   3.319   0.600 -0.0231 -0.0677 -0.3488
 5533TIP3    H138162   3.189   3.389   0.664 -2.3703 -0.7294  0.1356
 5533TIP3    H238163   3.195   3.364   0.515 -0.7807  0.5091 -0.0335
 5534TIP3   OH238164   3.691   0.091   7.855  0.2035  0.1804  0.1886
 5534TIP3    H138165   3.595   0.081   7.851  0.3959 -3.6421  1.0707
 5534TIP3    H238166   3.709   0.108   7.948  0.3813  4.5510 -0.4033
 5535TIP3   OH238167   4.531   5.095   0.205 -0.2253 -0.6137 -0.4871
 5535TIP3    H138168   4.578   5.037   0.144  0.1047 -0.8758  0.0115
 5535TIP3    H238169   4.553   5.183   0.175 -1.8460 -0.7005 -2.1283
 5536TIP3   OH238170   1.268   5.114   1.828  0.3862  0.3599 -0.0456
 5536TIP3    H138171   1.259   5.085   1.737  0.1747  0.6573 -0.1209
 5536TIP3    H238172   1.335   5.057   1.865  0.3901  0.1615 -0.3567
 5537TIP3   OH238173   5.586   1.088   2.093 -0.2885  0.2302  0.3627
 5537TIP3    H138174   5.677   1.088   2.123  0.2898  0.7033 -1.3017
 5537TIP3    H238175   5.550   1.006   2.127  1.2288 -0.7735 -0.3343
 5538TIP3   OH238176   6.568   2.650   6.852 -0.6543 -0.1825 -0.3605
 5538TIP3    H138177   6.562   2.622   6.761  0.3878  0.2886 -0.5926
 5538TIP3    H238178   6.652   2.696   6.857 -1.5116  1.3867  0.4021
 5539TIP3   OH238179   6.073   4.560   0.452  0.0773 -0.0805 -0.4996
 5539TIP3    H138180   6.040   4.557   0.362 -1.0382 -0.4577 -0.0925
 5539TIP3    H238181   5.998   4.533   0.506  0.7187  0.1800  0.5447
 5540TIP3   OH238182   2.106   0.314   1.763 -0.0774 -0.0428 -0.0603
 5540TIP3    H138183   2.023   0.361   1.772  0.6872  1.1816  1.1388
 5540TIP3    H238184   2.165   0.377   1.723  0.3030 -0.8835 -0.8510
 5541TIP3   OH238185   0.678   2.743   8.076  0.5023  0.1960  0.9036
 5541TIP3    H138186   0.646   2.653   8.068 -0.1123  0.4715  0.0550
 5541TIP3    H238187   0.602   2.793   8.106 -0.2748  1.0194 -2.0168
 5542TIP3   OH238188   2.046   3.156   0.874 -0.6853  0.0877 -0.2884
 5542TIP3    H138189   2.028   3.246   0.902 -0.9785  0.0103 -0.2256
 5542TIP3    H238190   2.136   3.140   0.902 -0.7437  0.2488 -0.0044
 5543TIP3   OH238191   4.714   1.792   1.182  0.4077 -0.2560 -0.0408
 5543TIP3    H138192   4.804   1.822   1.166  1.1061 -0.0971  3.4782
 5543TIP3    H238193   4.724   1.712   1.233 -1.4566 -0.3313  0.2691
 5544TIP3   OH238194   0.388   2.683   1.475  0.0204  0.1447 -0.1452
 5544TIP3    H138195   0.378   2.753   1.539  1.5384  1.7213 -1.5410
 5544TIP3    H238196   0.407   2.605   1.528  0.8644  1.3055  1.3422
 5545TIP3   OH238197   4.830   0.702   7.056  0.3724 -0.5326 -0.7710
 5545TIP3    H138198   4.874   0.632   7.104  0.3764 -0.7030 -1.0242
 5545TIP3    H238199   4.808   0.767   7.123 -0.2064 -1.0722 -0.4307
 5546TIP3   OH238200   3.010   1.972   0.059 -0.0570 -0.0309 -0.3497
 5546TIP3    H138201   3.014   1.940   0.149 -1.1035 -1.6258 -0.8358
 5546TIP3    H238202   2.929   2.024   0.056  0.4635  0.8001 -0.1405
 5547TIP3   OH238203   4.773   2.541   8.160 -0.1409  0.7805 -0.6035
 5547TIP3    H138204   4.760   2.627   8.198 -2.6108  0.8155 -1.3454
 5547TIP3    H238205   4.837   2.554   8.089  0.7803  1.6234  0.3556
 5548TIP3   OH238206   6.255   6.532   0.783 -0.5942 -0.0399  1.0216
 5548TIP3    H138207   6.329   6.571   0.828 -0.9550  0.9533  0.7763
 5548TIP3    H238208   6.240   6.449   0.828  0.7421 -0.3289  0.9889
 5549TIP3   OH238209   4.765   1.173   0.657 -0.2529 -0.3328  0.2352
 5549TIP3    H138210   4.841   1.203   0.608 -0.6687 -0.5184 -0.5437
 5549TIP3    H238211   4.744   1.087   0.619 -2.9723  1.1647 -2.0900
 5550TIP3   OH238212   4.926   5.066   0.594 -0.3249  0.0957 -0.2859
 5550TIP3    H138213   4.941   5.025   0.680 -0.4556 -1.2391 -0.8699
 5550TIP3    H238214   4.986   5.140   0.592 -0.0537 -0.0741  0.8082
 5551TIP3   OH238215   3.033   3.362   7.451  0.1736 -0.1678  0.0597
 5551TIP3    H138216   3.103   3.296   7.445 -1.0793 -1.4266 -2.2060
 5551TIP3    H238217   3.047   3.404   7.535  1.6463 -2.6725  1.1854
 5552TIP3   OH238218   5.290   0.866   7.532 -0.7923  0.0966 -0.3777
 5552TIP3    H138219   5.333   0.832   7.610 -2.9064  1.3654  1.4664
 5552TIP3    H238220   5.240   0.793   7.498  0.0364 -0.4263 -0.5022
 5553TIP3   OH238221   6.689   5.332   0.187 -0.2921 -1.0190  0.0670
 5553TIP3    H138222   6.602   5.352   0.221 -1.0801  0.9003 -2.7092
 5553TIP3    H238223   6.675   5.260   0.125  0.3796 -1.6160  0.5803
 5554TIP3   OH238224   1.076   2.441   0.053 -0.0707  0.0185 -0.1165
 5554TIP3    H138225   1.135   2.416   0.124 -0.1497  0.2288  0.0251
 5554TIP3    H238226   1.008   2.494   0.096 -1.9380 -2.4826  0.2394
 5555TIP3   OH238227   2.066   6.314   7.089  0.1577  0.2321  0.0245
 5555TIP3    H138228   1.971   6.326   7.091  0.3912  2.2808  2.1387
 5555TIP3    H238229   2.096   6.370   7.018 -0.1590  0.1334 -0.1877
 5556TIP3   OH238230   4.433   3.146   1.705  0.0526  0.1394 -0.3692
 5556TIP3    H138231   4.386   3.137   1.788  0.5475 -1.1204 -0.2070
 5556TIP3    H238232   4.508   3.201   1.726 -0.6351  1.0891 -0.3399
 5557TIP3   OH238233   3.706   0.569   1.614 -0.0067  0.3398 -0.0924
 5557TIP3    H138234   3.770   0.502   1.638  0.7850  0.8360 -0.7693
 5557TIP3    H238235   3.708   0.632   1.686 -0.5511 -0.2087  0.4129
 5558TIP3   OH238236   3.075   0.984   1.546 -0.3788 -0.1131  0.2708
 5558TIP3    H138237   3.165   1.016   1.540  1.0244 -3.6594 -0.1368
 5558TIP3    H238238   3.053   0.990   1.639  0.7083 -0.1887  0.5451
 5559TIP3   OH238239   1.933   6.274   0.906  0.3006 -0.0890  0.3646
 5559TIP3    H138240   1.966   6.342   0.848 -1.4384  0.4609 -0.0464
 5559TIP3    H238241   1.886   6.213   0.849 -1.0826  0.2364  1.1118
 5560TIP3   OH238242   1.721   4.615   1.328 -0.0644 -0.1779 -0.1305
 5560TIP3    H138243   1.629   4.598   1.346 -0.2107 -0.7089 -1.3026
 5560TIP3    H238244   1.753   4.534   1.287  0.5255  0.5450 -1.1493
 5561TIP3   OH238245   1.807   6.522   6.856 -0.0162 -0.1030  0.3430
 5561TIP3    H138246   1.789   6.597   6.913 -0.0777  0.1266  0.0184
 5561TIP3    H238247   1.811   6.558   6.768 -0.4016 -0.5327  0.1436
 5562TIP3   OH238248   0.616   3.245   0.455 -0.3685  0.0387  0.5275
 5562TIP3    H138249   0.558   3.290   0.393  0.1039 -0.1093 -0.0381
 5562TIP3    H238250   0.688   3.306   0.468  0.6320 -0.7838 -0.7869
 5563TIP3   OH238251   4.332   5.355   8.404 -0.2121 -0.3717  0.1003
 5563TIP3    H138252   4.412   5.405   8.394 -0.3160  0.0796  1.4074
 5563TIP3    H238253   4.292   5.355   8.316  1.0489 -0.3633 -0.4904
 5564TIP3   OH238254   1.544   5.103   0.731  0.4279  0.6222  0.0678
 5564TIP3    H138255   1.479   5.060   0.787  0.0436 -0.7047 -1.3531
 5564TIP3    H238256   1.494   5.135   0.656  1.0753  1.6382  0.0411
 5565TIP3   OH238257   2.335   5.755   0.659 -0.3645 -0.0226 -0.0485
 5565TIP3    H138258   2.267   5.718   0.716 -0.3660  1.3873  0.9151
 5565TIP3    H238259   2.415   5.708   0.684 -0.6742 -0.5550 -0.0457
 5566TIP3   OH238260   4.091   6.411   6.646  0.2021  0.4026 -0.6299
 5566TIP3    H138261   4.058   6.457   6.724 -0.7354 -0.9481 -0.1939
 5566TIP3    H238262   4.020   6.353   6.620  1.3571 -0.8820 -1.0864
 5567TIP3   OH238263   0.998   0.848   6.122 -0.4619  0.0521 -0.3875
 5567TIP3    H138264   0.927   0.912   6.121 -0.3083  0.2797  0.9542
 5567TIP3    H238265   0.955   0.764   6.140 -0.5458 -0.0573 -1.0775
 5568TIP3   OH238266   6.256   1.435   8.380 -0.1566 -0.4467  0.0348
 5568TIP3    H138267   6.240   1.377   8.306  0.0636 -0.4954  0.0244
 5568TIP3    H238268   6.282   1.377   8.452 -1.1740 -0.4770  0.3913
 5569TIP3   OH238269   4.496   6.723   6.933  0.0510  0.2188 -0.2617
 5569TIP3    H138270   4.553   6.753   7.003 -0.2522 -0.4714  0.2990
 5569TIP3    H238271   4.442   6.655   6.973 -0.5096  0.1904 -1.0225
 5570TIP3   OH238272   1.694   5.968   0.942 -0.5927  0.1462  0.0196
 5570TIP3    H138273   1.667   6.059   0.957  0.9180  0.5123  0.6682
 5570TIP3    H238274   1.664   5.922   1.021  0.6385  0.5524  0.7410
 5571TIP3   OH238275   0.225   2.299   2.509 -0.8136  0.0468  0.9970
 5571TIP3    H138276   0.272   2.309   2.427  0.6991 -1.5647  1.5919
 5571TIP3    H238277   0.199   2.388   2.533 -2.3840  0.4435 -1.7692
 5572TIP3   OH238278   4.806   6.493   0.956 -0.3480  0.2084  0.0953
 5572TIP3    H138279   4.803   6.491   1.052 -1.0916 -1.6293  0.0792
 5572TIP3    H238280   4.849   6.412   0.931 -0.6658  0.3908 -1.1431
 5573TIP3   OH238281   1.718   5.276   5.705 -0.3358  0.1671  0.6064
 5573TIP3    H138282   1.690   5.185   5.694  1.1176 -0.3248  0.7231
 5573TIP3    H238283   1.676   5.304   5.787  0.4876 -0.9467  1.4466
 5574TIP3   OH238284   2.640   5.660   2.189  0.2571 -0.5815 -0.0271
 5574TIP3    H138285   2.553   5.626   2.167  0.4720 -0.8853 -0.4225
 5574TIP3    H238286   2.648   5.740   2.136  0.3237 -0.6992 -0.1958
 5575TIP3   OH238287   1.717   0.175   0.421 -0.2162 -0.0726  0.0339
 5575TIP3    H138288   1.761   0.256   0.446 -2.7881  1.6525 -0.6237
 5575TIP3    H238289   1.763   0.146   0.342  1.1676  0.3294  0.6656
 5576TIP3   OH238290   2.432   0.182   7.714 -0.2158  0.0374  0.4336
 5576TIP3    H138291   2.497   0.159   7.648 -1.0847 -0.3694 -0.3031
 5576TIP3    H238292   2.475   0.163   7.797 -0.5270 -3.5936 -0.0590
 5577TIP3   OH238293   2.638   5.335   0.324  0.2478  0.2070  0.0245
 5577TIP3    H138294   2.685   5.315   0.243 -0.3560  0.5381 -0.4181
 5577TIP3    H238295   2.555   5.373   0.294 -0.0249  0.2270  0.7996
 5578TIP3   OH238296   6.878   1.319   8.278  0.0593 -0.4538 -0.0424
 5578TIP3    H138297   6.818   1.294   8.208  1.1571 -0.9688 -0.8208
 5578TIP3    H238298   6.824   1.316   8.357 -0.9417 -0.8793 -0.7164
 5579TIP3   OH238299   3.355   1.455   2.188 -0.9906  0.2367 -0.2594
 5579TIP3    H138300   3.420   1.452   2.258 -1.5964  2.1066  0.4342
 5579TIP3    H238301   3.271   1.445   2.233 -1.3280  0.4966 -0.8250
 5580TIP3   OH238302   4.534   5.225   7.377  0.8923  0.0433 -0.3805
 5580TIP3    H138303   4.537   5.199   7.285  2.4004  2.7364 -1.1967
 5580TIP3    H238304   4.441   5.234   7.396  0.3826 -3.3992 -0.6619
 5581TIP3   OH238305   5.504   6.080   2.011  0.2400  0.7730  0.2216
 5581TIP3    H138306   5.500   6.085   1.915 -0.9933  2.1150  0.3083
 5581TIP3    H238307   5.548   5.997   2.028 -1.9450 -0.8756 -1.5028
 5582TIP3   OH238308   5.273   4.352   6.617 -0.0925  0.2678 -0.3246
 5582TIP3    H138309   5.314   4.336   6.532 -0.0072 -2.0305  0.1034
 5582TIP3    H238310   5.341   4.399   6.667  0.5418  0.0014 -0.9155
 5583TIP3   OH238311   6.982   4.142   7.664 -0.0394 -0.5630 -0.3178
 5583TIP3    H138312   7.074   4.163   7.677  0.4665 -1.7062 -1.8512
 5583TIP3    H238313   6.939   4.228   7.655  1.0612 -0.0413 -0.7446
 5584TIP3   OH238314   5.953   4.910   8.071 -0.2102  0.0554 -0.0468
 5584TIP3    H138315   5.937   4.832   8.125  0.3822 -1.5170 -2.0243
 5584TIP3    H238316   5.897   4.898   7.994  1.5829  0.4036 -1.4698
 5585TIP3   OH238317   1.960   5.835   7.323  0.0370 -0.0782  0.2477
 5585TIP3    H138318   2.000   5.758   7.364  1.2090  0.4178  0.0621
 5585TIP3    H238319   1.872   5.839   7.361 -1.2088 -3.2303 -1.9576
 5586TIP3   OH238320   1.643   3.542   7.138 -0.8623 -0.2031 -0.5314
 5586TIP3    H138321   1.677   3.560   7.226 -1.8184 -0.0680 -0.1758
 5586TIP3    H238322   1.667   3.451   7.121 -0.5003 -0.1697 -0.2172
 5587TIP3   OH238323   4.293   2.696   1.231  0.4338  0.2557  0.5903
 5587TIP3    H138324   4.223   2.753   1.261  0.9356  1.2259 -0.0409
 5587TIP3    H238325   4.367   2.715   1.289  0.3484 -0.3837  0.9203
 5588TIP3   OH238326   0.983   6.188   1.080  0.1669  0.2250  0.2915
 5588TIP3    H138327   0.940   6.102   1.085 -1.0272  0.5968 -2.0266
 5588TIP3    H238328   1.004   6.210   1.170 -1.5030 -1.5282  1.1786
 5589TIP3   OH238329   5.243   5.381   7.148 -0.2595  0.0185  0.3076
 5589TIP3    H138330   5.238   5.443   7.222 -3.4205 -1.0904  1.1866
 5589TIP3    H238331   5.278   5.301   7.187  2.6575  0.7183 -0.5760
 5590TIP3   OH238332   2.353   6.542   6.870 -0.9343 -0.0358  0.2668
 5590TIP3    H138333   2.314   6.604   6.808 -1.0442 -1.0076 -0.6612
 5590TIP3    H238334   2.314   6.566   6.954 -2.1568  0.1881 -0.3319
 5591TIP3   OH238335   2.848   0.034   6.323 -0.0626 -0.3517  0.5510
 5591TIP3    H138336   2.826  -0.027   6.394 -3.0311  1.6721  1.5621
 5591TIP3    H238337   2.830   0.121   6.359 -0.0213  0.8913 -2.1599
 5592TIP3   OH238338   5.697   0.989   8.213  0.3372  0.3926 -0.3925
 5592TIP3    H138339   5.633   0.918   8.221  1.1632 -0.2778  0.5593
 5592TIP3    H238340   5.669   1.055   8.276  1.8854 -0.9779  1.8681
 5593TIP3   OH238341   1.167   2.775   8.070 -0.4123 -0.3535  0.2330
 5593TIP3    H138342   1.216   2.792   7.989 -2.0690  1.9278 -0.3949
 5593TIP3    H238343   1.081   2.813   8.054 -1.2802 -1.1472  2.5757
 5594TIP3   OH238344   4.959   2.474   0.231  0.4578 -0.2351 -0.2303
 5594TIP3    H138345   5.052   2.496   0.218  0.9038 -0.9675  1.4140
 5594TIP3    H238346   4.934   2.522   0.310 -0.3183 -0.7247 -0.1724
 5595TIP3   OH238347   4.237   4.978   7.045 -0.4241  0.1783  0.6367
 5595TIP3    H138348   4.189   4.966   6.963 -0.5395  0.6618  0.6296
 5595TIP3    H238349   4.282   5.061   7.034  1.1956 -0.7009  0.2675
 5596TIP3   OH238350   4.724   3.973   7.828 -0.0788  0.2447  0.5028
 5596TIP3    H138351   4.795   3.909   7.817  0.3339  0.4252  1.9286
 5596TIP3    H238352   4.662   3.951   7.759  0.1804 -1.5378  0.7921
 5597TIP3   OH238353   1.009   0.996   0.633  0.5062  0.0273 -0.7300
 5597TIP3    H138354   0.966   0.912   0.649  0.0576  0.3331 -0.3117
 5597TIP3    H238355   1.026   1.031   0.720  2.4541 -0.5011 -0.8524
 5598TIP3   OH238356   4.362   5.984   8.277  0.4116 -0.2915 -0.5656
 5598TIP3    H138357   4.368   5.903   8.327  0.1176 -0.3783 -0.6733
 5598TIP3    H238358   4.454   6.011   8.265  0.4827  1.1270  2.2671
 5599TIP3   OH238359   3.149   2.027   1.439 -0.7754  0.5138 -0.5480
 5599TIP3    H138360   3.135   2.121   1.441 -1.1270  0.4563  1.2455
 5599TIP3    H238361   3.063   1.990   1.461 -0.0551 -0.1146  1.4464
 5600TIP3   OH238362   0.390   1.147   0.150 -0.2211 -0.5141 -0.1033
 5600TIP3    H138363   0.312   1.200   0.137 -0.4677 -1.1037 -1.0995
 5600TIP3    H238364   0.435   1.188   0.224  0.2896  1.9460 -1.6452
 5601TIP3   OH238365   5.054   6.852   7.249 -0.0637  0.2735 -0.3804
 5601TIP3    H138366   5.077   6.932   7.203 -0.5818  0.6480  0.0083
 5601TIP3    H238367   5.062   6.874   7.342 -2.3806  0.5656 -0.1979
 5602TIP3   OH238368   0.342   6.986   0.127  0.0937  0.1714 -0.2744
 5602TIP3    H138369   0.386   7.069   0.145  0.0462 -0.4125  3.0214
 5602TIP3    H238370   0.260   7.012   0.085  0.5053  1.7088 -0.1868
 5603TIP3   OH238371   0.071   3.485   2.094  0.3588 -0.2842 -0.2444
 5603TIP3    H138372   0.125   3.465   2.171  0.0762  1.0855  0.3358
 5603TIP3    H238373   0.099   3.572   2.066  0.6964 -0.9070 -1.9234
 5604TIP3   OH238374   4.360   2.264   7.527 -0.0621 -0.4248  0.2747
 5604TIP3    H138375   4.326   2.184   7.487 -1.0952  1.0519 -1.9792
 5604TIP3    H238376   4.315   2.335   7.481  1.1690  1.4939  1.8681
 5605TIP3   OH238377   1.065   6.795   6.409 -0.3258  0.5497 -0.4926
 5605TIP3    H138378   1.035   6.724   6.354  0.4933 -0.7997  0.7345
 5605TIP3    H238379   1.027   6.874   6.370 -0.7382 -0.4729 -2.2426
 5606TIP3   OH238380   5.585   6.051   1.714  0.4200 -0.3149 -0.2410
 5606TIP3    H138381   5.609   6.063   1.622  2.0898  0.5182  0.2616
 5606TIP3    H238382   5.559   5.959   1.720 -2.0180  0.1632 -1.9886
 5607TIP3   OH238383   6.107   2.460   7.049  0.1163  0.3938 -0.2395
 5607TIP3    H138384   6.090   2.368   7.028  0.4752  0.4780 -0.9216
 5607TIP3    H238385   6.165   2.490   6.979 -0.4833  1.3081 -0.3596
 5608TIP3   OH238386   6.304   6.122   7.268 -0.9654 -0.1893 -0.2498
 5608TIP3    H138387   6.231   6.183   7.275 -0.5558  0.3739 -0.7679
 5608TIP3    H238388   6.370   6.170   7.218 -0.5590 -0.9880 -0.4893
 5609TIP3   OH238389   1.691   2.503   7.683  0.6238  0.0076  0.6659
 5609TIP3    H138390   1.666   2.438   7.749 -1.8408 -0.3783 -0.5382
 5609TIP3    H238391   1.778   2.532   7.710  0.9516 -2.2915  2.3919
 5610TIP3   OH238392   2.899   3.712   8.333  0.7189  0.2222 -0.6897
 5610TIP3    H138393   2.832   3.741   8.271 -0.3444  1.7631  1.0515
 5610TIP3    H238394   2.871   3.749   8.417  2.1865 -1.6045  0.6946
 5611TIP3   OH238395   1.705   0.538   6.972  0.0683  0.4277  0.0693
 5611TIP3    H138396   1.686   0.462   7.027  1.1404  2.1516  3.0528
 5611TIP3    H238397   1.763   0.505   6.904 -1.1878 -1.7935 -0.0254
 5612TIP3   OH238398   4.821   1.874   0.819  0.3674 -0.7426  0.1382
 5612TIP3    H138399   4.845   1.820   0.893  0.0022 -2.3327 -0.8570
 5612TIP3    H238400   4.726   1.885   0.827  0.6330  1.1427  1.2054
 5613TIP3   OH238401   2.430   1.788   8.069  0.7889  0.5836 -0.9188
 5613TIP3    H138402   2.442   1.710   8.124 -0.9963  0.9975  0.1551
 5613TIP3    H238403   2.511   1.795   8.018  2.2656 -0.1701  1.2104
 5614TIP3   OH238404   3.723   4.233   7.434 -0.4176 -0.0336 -0.2730
 5614TIP3    H138405   3.646   4.196   7.392 -0.7796 -1.3412  1.4377
 5614TIP3    H238406   3.705   4.227   7.527 -0.2253  4.0063  0.1736
 5615TIP3   OH238407   6.740   4.629   6.633 -0.4881  0.0084  0.2023
 5615TIP3    H138408   6.768   4.706   6.583 -0.7702  0.5291  0.8364
 5615TIP3    H238409   6.645   4.640   6.641 -0.8434 -1.4297 -1.4232
 5616TIP3   OH238410   4.575   3.192   8.059  0.7904  0.3591 -0.1987
 5616TIP3    H138411   4.515   3.181   8.132  1.6061 -0.1135  0.4223
 5616TIP3    H238412   4.570   3.285   8.037  0.1210  0.3923  0.0955
 5617TIP3   OH238413   0.399   4.653   0.849 -0.0534  0.1918 -0.2666
 5617TIP3    H138414   0.429   4.740   0.875  0.0064 -0.5718  2.5167
 5617TIP3    H238415   0.474   4.595   0.864 -0.4423 -0.5213 -0.9842
 5618TIP3   OH238416   6.769   3.098   8.072  0.3146 -0.4480  0.5417
 5618TIP3    H138417   6.700   3.068   8.130 -0.1185 -1.8390 -0.6436
 5618TIP3    H238418   6.850   3.069   8.114 -0.0106 -1.6908  0.3725
 5619TIP3   OH238419   0.211   1.877   6.736 -0.2966  0.1169  0.0968
 5619TIP3    H138420   0.194   1.785   6.755 -2.0469  0.2642 -0.5548
 5619TIP3    H238421   0.225   1.880   6.641  0.1835  0.4637  0.1757
 5620TIP3   OH238422   5.173   5.762   6.346 -0.4554  0.2534 -0.4646
 5620TIP3    H138423   5.250   5.812   6.319  1.3592 -2.5800 -0.9972
 5620TIP3    H238424   5.114   5.765   6.271  0.2685  0.3807 -1.0370
 5621TIP3   OH238425   5.743   6.285   7.885  0.8456 -0.0364  0.5597
 5621TIP3    H138426   5.664   6.280   7.939  1.2334 -0.0385  1.1390
 5621TIP3    H238427   5.714   6.260   7.797  0.5819 -1.8982  1.1499
 5622TIP3   OH238428   1.802   2.089   0.414  0.3295 -0.5461  0.2095
 5622TIP3    H138429   1.886   2.049   0.390  2.4813  2.7349  1.4343
 5622TIP3    H238430   1.754   2.096   0.331  2.6925  0.3362 -1.1978
 5623TIP3   OH238431   6.673   4.133   7.040  0.0876  0.2683 -0.3403
 5623TIP3    H138432   6.726   4.207   7.011  0.4503  0.2263  0.1986
 5623TIP3    H238433   6.733   4.081   7.093 -0.5064  0.2460  0.3190
 5624TIP3   OH238434   3.375   1.025   8.378  0.0419  0.3231  1.0205
 5624TIP3    H138435   3.451   1.082   8.392  0.9603 -0.9996  1.6987
 5624TIP3    H238436   3.412   0.945   8.340 -1.4277  0.7639 -1.4832
 5625TIP3   OH238437   6.882   1.533   0.220  0.3562  0.5917 -0.5217
 5625TIP3    H138438   6.796   1.569   0.243  0.3676  1.0666 -1.2071
 5625TIP3    H238439   6.891   1.551   0.127  0.2221 -1.4811 -0.9875
 5626TIP3   OH238440   0.780   3.900   1.221  0.1567 -0.0887 -0.2216
 5626TIP3    H138441   0.848   3.960   1.252  0.3330 -0.5090  0.2227
 5626TIP3    H238442   0.807   3.877   1.132  0.7331 -0.4400  0.0337
 5627TIP3   OH238443   6.335   3.284   1.845  0.1629 -0.3870  0.2836
 5627TIP3    H138444   6.397   3.333   1.792  0.7757 -0.5291  0.8518
 5627TIP3    H238445   6.381   3.268   1.927 -0.8693  0.1038  0.9860
 5628TIP3   OH238446   3.411   1.866   7.802 -0.3440  0.7792  0.6002
 5628TIP3    H138447   3.333   1.899   7.757 -0.1046 -0.2507 -0.6232
 5628TIP3    H238448   3.379   1.835   7.887 -1.3042  0.2551  0.0638
 5629TIP3   OH238449   5.027   6.859   1.926  0.2772 -0.8011  0.4177
 5629TIP3    H138450   5.122   6.859   1.940  0.4487  1.0370 -0.5553
 5629TIP3    H238451   5.016   6.868   1.832 -0.8837 -1.4928  0.4641
 5630TIP3   OH238452   1.468   5.806   6.590 -0.3319 -0.6511  0.0471
 5630TIP3    H138453   1.536   5.772   6.533  1.4134  1.3441  0.8149
 5630TIP3    H238454   1.502   5.793   6.679 -1.4182 -0.5257  0.5044
 5631TIP3   OH238455   0.536   6.805   0.001  0.0713  0.1261 -0.3764
 5631TIP3    H138456   0.552   6.886   0.051  1.1519  0.1743 -0.7805
 5631TIP3    H238457   0.623   6.771  -0.018 -0.3329 -0.2271 -1.7002
 5632TIP3   OH238458   2.253   0.275   7.007  0.0986 -0.6532 -0.2969
 5632TIP3    H138459   2.219   0.246   6.923  0.5560 -0.6094 -0.5018
 5632TIP3    H238460   2.176   0.299   7.058 -0.2231 -1.2551 -0.4863
 5633TIP3   OH238461   5.710   4.907   2.131 -0.1592  0.0001 -0.2367
 5633TIP3    H138462   5.671   4.907   2.219  1.4223  0.6747  0.4838
 5633TIP3    H238463   5.726   4.814   2.113 -0.3599 -0.1308  0.2303
 5634TIP3   OH238464   4.007   1.224   6.742 -0.0266  0.0272 -0.4013
 5634TIP3    H138465   4.018   1.152   6.804 -0.2896 -0.3924 -0.8418
 5634TIP3    H238466   3.983   1.182   6.660  0.5034  0.5726 -0.8420
 5635TIP3   OH238467   0.056   1.343   7.112 -0.0401  0.0171 -0.1825
 5635TIP3    H138468   0.104   1.262   7.092 -0.7513 -0.7063  0.9476
 5635TIP3    H238469   0.091   1.406   7.049  0.8103 -1.0542 -0.8487
 5636TIP3   OH238470   4.614   6.892   1.749  0.5842 -0.3165  0.3970
 5636TIP3    H138471   4.659   6.975   1.731 -0.2892  0.1691  0.4133
 5636TIP3    H238472   4.672   6.825   1.711 -0.3512  0.5078 -2.7973
 5637TIP3   OH238473   2.822   0.277   7.858  0.1259  0.0584 -0.2653
 5637TIP3    H138474   2.861   0.311   7.938 -2.3327 -0.0793  1.0835
 5637TIP3    H238475   2.744   0.230   7.887 -0.2136 -1.0185 -2.6571
 5638TIP3   OH238476   2.274   2.344   1.050  0.3250 -0.0085  0.2092
 5638TIP3    H138477   2.346   2.330   0.988  0.4108  2.2265 -0.2686
 5638TIP3    H238478   2.317   2.356   1.134  0.8695  3.7997 -0.4364
 5639TIP3   OH238479   4.825   4.733   1.494  0.0238 -0.4463 -0.4088
 5639TIP3    H138480   4.881   4.802   1.530 -0.3559 -0.1247 -0.4170
 5639TIP3    H238481   4.740   4.775   1.484 -0.2441 -0.9565 -0.3025
 5640TIP3   OH238482   5.460   0.334   7.855  0.0157 -0.0473  0.4116
 5640TIP3    H138483   5.490   0.384   7.930  0.5370 -0.5682  0.5518
 5640TIP3    H238484   5.529   0.270   7.839  0.1562  0.3823 -0.8226
 5641TIP3   OH238485   1.863   0.117   0.780 -0.0640  0.0902 -0.1951
 5641TIP3    H138486   1.930   0.081   0.722 -0.1108  0.4795 -0.4917
 5641TIP3    H238487   1.852   0.050   0.848  0.8059  0.1396  0.0048
 5642TIP3   OH238488   5.848   5.885   6.998 -0.3410 -0.2965 -0.2654
 5642TIP3    H138489   5.763   5.919   7.024 -1.3142 -2.1599 -0.7573
 5642TIP3    H238490   5.912   5.943   7.039 -1.8343  0.6181  0.8559
 5643TIP3   OH238491   2.104   2.183   6.606 -0.0423 -0.0804 -0.3311
 5643TIP3    H138492   2.168   2.218   6.544 -0.6491  2.9662  0.5974
 5643TIP3    H238493   2.021   2.184   6.559  0.1309 -1.7970 -0.7580
 5644TIP3   OH238494   6.112   5.225   7.311 -0.0126 -0.2227 -0.3455
 5644TIP3    H138495   6.026   5.186   7.326 -0.3986  0.9807  0.6238
 5644TIP3    H238496   6.095   5.298   7.252  0.4230 -0.2400 -0.4959
 5645TIP3   OH238497   3.378   1.557   1.897  0.4544 -0.0801 -0.1961
 5645TIP3    H138498   3.407   1.496   1.964  0.2590  0.1172  0.0716
 5645TIP3    H238499   3.451   1.619   1.888 -0.0596  0.6973  0.8184
 5646TIP3   OH238500   1.965   3.133   0.590 -0.0715 -0.7808 -0.3091
 5646TIP3    H138501   2.006   3.128   0.676 -0.0291 -0.0603 -0.2822
 5646TIP3    H238502   2.004   3.060   0.541  0.6228 -0.6130 -0.0230
 5647TIP3   OH238503   1.424   0.822   0.054 -0.1465  0.2586  0.1244
 5647TIP3    H138504   1.381   0.858   0.132  2.4633  1.4488  1.1134
 5647TIP3    H238505   1.390   0.732   0.047 -2.5159  1.0125  0.9420
 5648TIP3   OH238506   0.837   3.498   7.743 -0.0545 -0.1669 -0.0464
 5648TIP3    H138507   0.786   3.579   7.752  0.3759  0.0099  0.9340
 5648TIP3    H238508   0.928   3.528   7.734  0.0283 -0.5210 -0.4154
 5649TIP3   OH238509   6.454   6.655   0.977  0.2620  0.1412  0.3587
 5649TIP3    H138510   6.510   6.584   1.007  1.4583  0.8596 -0.1153
 5649TIP3    H238511   6.502   6.735   1.000 -0.1261  0.7586 -0.8760
 5650TIP3   OH238512   4.600   2.973   1.050 -0.6557  0.0248 -0.7654
 5650TIP3    H138513   4.669   2.908   1.060 -0.4717  0.2025 -0.8737
 5650TIP3    H238514   4.641   3.056   1.076 -0.3032  0.4220 -2.4851
 5651TIP3   OH238515   6.207   2.975   6.930 -0.4021  0.0023 -0.3726
 5651TIP3    H138516   6.278   2.912   6.919 -0.2037  0.3344 -1.0372
 5651TIP3    H238517   6.251   3.056   6.959 -0.7164 -0.3219  1.0662
 5652TIP3   OH238518   4.863   6.578   6.719 -0.4676 -0.1442  0.3201
 5652TIP3    H138519   4.953   6.547   6.723  0.3181  2.0296  1.0097
 5652TIP3    H238520   4.854   6.616   6.631 -1.1936 -1.6056 -0.2655
 5653TIP3   OH238521   2.058   6.675   2.574  0.6002  0.1899 -0.0002
 5653TIP3    H138522   1.973   6.718   2.577  0.9408  1.1626 -2.4271
 5653TIP3    H238523   2.121   6.745   2.559  1.6281 -0.7182 -0.1079
 5654TIP3   OH238524   1.222   4.941   7.863 -0.2557  0.5913 -0.1543
 5654TIP3    H138525   1.239   5.012   7.925  0.1312 -0.1026  0.5486
 5654TIP3    H238526   1.132   4.957   7.834 -0.9852  0.1355  1.6927
 5655TIP3   OH238527   6.953   6.920   6.975 -0.3785 -0.1945 -0.1148
 5655TIP3    H138528   6.952   7.012   6.998 -1.7658 -0.8017  2.6709
 5655TIP3    H238529   7.027   6.883   7.023 -0.6999 -0.7780 -0.0488
 5656TIP3   OH238530   5.770   6.722   6.275  0.3833 -0.2957  0.4486
 5656TIP3    H138531   5.845   6.681   6.233  0.6654  0.3433  0.3198
 5656TIP3    H238532   5.761   6.806   6.232 -0.2449 -0.2537  0.6483
 5657TIP3   OH238533   2.301   3.359   6.688 -0.2929 -0.1379 -0.0410
 5657TIP3    H138534   2.368   3.294   6.708  0.4363  1.0715  1.6689
 5657TIP3    H238535   2.290   3.353   6.593  3.8137  1.0255 -0.8054
 5658TIP3   OH238536   6.699   2.012   0.580  0.3391  0.3266 -0.5274
 5658TIP3    H138537   6.626   1.977   0.631  0.8605 -0.0082  0.0044
 5658TIP3    H238538   6.706   1.955   0.504  3.4070 -3.1631  1.9888
 5659TIP3   OH238539   4.845   2.142   6.983  0.6690  0.1584 -0.0592
 5659TIP3    H138540   4.818   2.193   6.907 -0.0097  0.6478  0.5039
 5659TIP3    H238541   4.796   2.060   6.976  1.1509 -0.0957 -0.5284
 5660TIP3   OH238542   4.306   5.997   8.015  0.0529  0.1035 -0.2660
 5660TIP3    H138543   4.363   6.051   7.960 -1.4914  2.6379  0.4400
 5660TIP3    H238544   4.332   6.019   8.105 -0.0733 -1.0035  0.0563
 5661TIP3   OH238545   2.234   1.980   7.281  0.2010 -0.1458 -0.2861
 5661TIP3    H138546   2.327   2.001   7.286  0.1263  0.1342 -0.0676
 5661TIP3    H238547   2.226   1.898   7.330  0.1025  0.5735  0.9286
 5662TIP3   OH238548   0.596   2.799   0.352  0.1335 -0.4602 -0.6356
 5662TIP3    H138549   0.613   2.707   0.370  4.6393  0.0512 -0.9993
 5662TIP3    H238550   0.623   2.810   0.260 -0.6993  1.1582 -0.7149
 5663TIP3   OH238551   4.718   0.415   7.451  0.0083  0.1763 -0.5857
 5663TIP3    H138552   4.722   0.416   7.546  0.2892 -1.2989 -0.5603
 5663TIP3    H238553   4.698   0.324   7.428  2.8967 -0.2193 -2.0291
 5664TIP3   OH238554   4.683   1.458   7.383 -0.2732  0.1264  0.2196
 5664TIP3    H138555   4.706   1.370   7.413 -0.0969  0.0444 -0.1531
 5664TIP3    H238556   4.763   1.509   7.398 -0.1332  0.0483 -0.2575
 5665TIP3   OH238557   5.609   1.552   1.618 -0.4319 -0.2441  0.4866
 5665TIP3    H138558   5.616   1.634   1.667 -1.0845 -0.0534  0.2656
 5665TIP3    H238559   5.515   1.531   1.620 -0.1748 -1.4078  1.2426
 5666TIP3   OH238560   6.287   0.138   1.069 -0.1967  0.6520 -0.3031
 5666TIP3    H138561   6.267   0.106   0.981 -1.7373  0.0142  0.2530
 5666TIP3    H238562   6.288   0.060   1.124 -4.2132  1.3536  1.1117
 5667TIP3   OH238563   6.070   6.743   7.663 -0.5789  0.7005  0.5291
 5667TIP3    H138564   6.134   6.687   7.619 -1.0204  0.6871 -0.1091
 5667TIP3    H238565   6.110   6.831   7.661 -0.3047  0.5798  0.6899
 5668TIP3   OH238566   2.074   6.994   0.610 -0.0876  0.1034 -0.4421
 5668TIP3    H138567   2.160   6.960   0.632  1.3294  3.8338  0.6586
 5668TIP3    H238568   2.088   7.046   0.531 -1.2239  0.9175 -0.1458
 5669TIP3   OH238569   4.094   5.269   0.082 -0.0708 -0.3795 -0.0859
 5669TIP3    H138570   4.083   5.261   0.177 -0.7122  1.1478  0.0030
 5669TIP3    H238571   4.182   5.306   0.071  0.3169 -1.2823 -0.1543
 5670TIP3   OH238572   2.697   6.462   1.340  0.8607 -0.1864  0.2919
 5670TIP3    H138573   2.636   6.421   1.400 -1.0891  1.1234 -0.6594
 5670TIP3    H238574   2.743   6.527   1.393  1.8736 -1.5524  1.1400
 5671TIP3   OH238575   1.408   1.192   1.826  0.1487  0.0232 -0.3250
 5671TIP3    H138576   1.430   1.285   1.815  1.7215 -0.4875 -1.9128
 5671TIP3    H238577   1.483   1.154   1.871 -0.1431 -0.6362 -0.3819
 5672TIP3   OH238578   1.683   3.769   1.990 -0.0840 -0.1174  0.0087
 5672TIP3    H138579   1.721   3.848   2.029  0.2248  0.0761 -0.6710
 5672TIP3    H238580   1.700   3.700   2.055 -0.7496  0.4480  0.8096
 5673TIP3   OH238581   2.413   4.530   7.191 -0.0534 -0.4774  0.2768
 5673TIP3    H138582   2.388   4.623   7.190 -1.1447 -0.7554  0.3838
 5673TIP3    H238583   2.333   4.484   7.215  0.6505 -1.4030  0.9088
 5674TIP3   OH238584   4.305   0.447   6.912 -0.7407 -0.1663 -0.5361
 5674TIP3    H138585   4.275   0.388   6.842 -0.1894 -0.6800 -0.3475
 5674TIP3    H238586   4.227   0.464   6.964 -0.7190 -1.5368 -0.0091
 5675TIP3   OH238587   1.421   3.298   7.917  0.3947 -0.0825  0.2613
 5675TIP3    H138588   1.416   3.308   7.822 -2.4598  1.2684  0.4617
 5675TIP3    H238589   1.365   3.223   7.936  1.2913 -0.6100  0.8807
 5676TIP3   OH238590   4.053   5.279   2.452  0.3062 -0.1262 -0.0856
 5676TIP3    H138591   4.066   5.200   2.399  1.1303  0.6047 -1.0026
 5676TIP3    H238592   3.961   5.275   2.479 -0.2627 -0.3247 -1.9332
 5677TIP3   OH238593   4.521   2.956   7.492  0.5977 -0.4283  0.6834
 5677TIP3    H138594   4.488   3.021   7.554 -0.7986  0.6610 -1.0926
 5677TIP3    H238595   4.586   3.003   7.440 -0.1613 -0.5179 -0.3815
 5678TIP3   OH238596   1.216   2.719   0.048 -0.4466  0.7032  0.7140
 5678TIP3    H138597   1.127   2.750   0.036 -0.8510 -0.7110 -0.2210
 5678TIP3    H238598   1.266   2.798   0.070 -1.7702  1.6479  0.4731
 5679TIP3   OH238599   2.578   6.486   6.666  0.2197  0.2410 -0.2375
 5679TIP3    H138600   2.660   6.528   6.693 -0.7489  1.4327  0.9808
 5679TIP3    H238601   2.510   6.549   6.690 -1.4110 -2.3569  2.5440
 5680TIP3   OH238602   4.645   4.608   6.852  0.8574 -0.0141 -0.8492
 5680TIP3    H138603   4.686   4.632   6.935  1.8311 -2.1757 -0.6518
 5680TIP3    H238604   4.690   4.661   6.787  0.2879  1.4947 -0.0756
 5681TIP3   OH238605   4.472   6.239   0.180  0.3148  0.0885  0.0892
 5681TIP3    H138606   4.464   6.196   0.265  0.5655  1.1214  0.6403
 5681TIP3    H238607   4.547   6.297   0.188  0.8742 -0.4154 -1.1171
 5682TIP3   OH238608   2.512   1.325   0.876  0.4316 -0.2752 -0.7095
 5682TIP3    H138609   2.569   1.346   0.802  0.6280  1.8412 -0.0427
 5682TIP3    H238610   2.569   1.280   0.939  0.6562 -0.6448 -1.1750
 5683TIP3   OH238611   1.362   5.760   0.111  0.0224 -0.5416 -0.3821
 5683TIP3    H138612   1.406   5.792   0.189 -0.0605 -2.0514  0.3220
 5683TIP3    H238613   1.281   5.721   0.144 -0.1437 -0.9499 -1.2454
 5684TIP3   OH238614   2.748   4.723   0.824  0.1766  0.5342 -0.3080
 5684TIP3    H138615   2.716   4.736   0.735 -3.1444  0.7712  0.7990
 5684TIP3    H238616   2.723   4.803   0.870 -0.2621 -0.5103  1.3424
 5685TIP3   OH238617   6.774   6.141   0.316 -0.3318  0.4405 -0.3247
 5685TIP3    H138618   6.811   6.183   0.393 -0.1108  1.3765 -0.9324
 5685TIP3    H238619   6.684   6.119   0.342  0.1702 -0.5761  0.6773
 5686TIP3   OH238620   5.487   4.583   1.187 -0.3610 -0.0872  0.0309
 5686TIP3    H138621   5.504   4.647   1.119 -0.0036  1.1355  1.2223
 5686TIP3    H238622   5.417   4.622   1.239  0.1593 -0.4522  1.0301
 5687TIP3   OH238623   5.278   2.134   7.788 -0.0655 -0.4646 -0.0484
 5687TIP3    H138624   5.216   2.065   7.812 -1.2459  0.5292 -0.1044
 5687TIP3    H238625   5.243   2.213   7.830  0.3248  0.4174 -1.3076
 5688TIP3   OH238626   3.452   5.479   0.809 -0.2242  0.0555  0.3200
 5688TIP3    H138627   3.451   5.454   0.717 -1.5668  3.1841 -0.6446
 5688TIP3    H238628   3.362   5.467   0.839 -0.1312  0.4453  0.7778
 5689TIP3   OH238629   2.634   4.944   0.974  0.1406 -0.2610 -1.1717
 5689TIP3    H138630   2.592   4.866   1.011 -1.2460  0.9889 -0.0256
 5689TIP3    H238631   2.639   5.006   1.046  1.1612  0.7672 -2.0812
 5690TIP3   OH238632   6.098   6.400   0.377  0.0891 -0.3993  0.4378
 5690TIP3    H138633   6.132   6.489   0.380  1.9625 -1.0906  0.4877
 5690TIP3    H238634   6.029   6.403   0.310 -0.3611  1.2199  0.9353
 5691TIP3   OH238635   0.110   4.773   0.348 -0.2661 -0.0593 -0.3610
 5691TIP3    H138636   0.154   4.782   0.432 -0.0116 -0.3535 -0.4628
 5691TIP3    H238637   0.144   4.691   0.312  1.4384  1.2326 -1.8310
 5692TIP3   OH238638   3.717   3.502   0.738  0.7650  0.4915 -0.1450
 5692TIP3    H138639   3.632   3.503   0.693  0.7956 -1.3288 -0.3455
 5692TIP3    H238640   3.759   3.584   0.713 -0.9513  1.4356 -0.0108
 5693TIP3   OH238641   3.306   3.290   6.687  0.2217 -0.2935  0.3522
 5693TIP3    H138642   3.318   3.359   6.752 -2.5874  0.9986 -0.3145
 5693TIP3    H238643   3.365   3.313   6.616 -1.9104  2.6919 -0.6748
 5694TIP3   OH238644   3.168   4.057   1.634  0.2753 -0.3463 -0.6162
 5694TIP3    H138645   3.166   3.963   1.651 -1.4033 -0.1049  0.7648
 5694TIP3    H238646   3.184   4.097   1.720 -0.8300  0.6855 -0.8649
 5695TIP3   OH238647   2.694   2.519   6.026 -1.0584  0.1167  0.3834
 5695TIP3    H138648   2.657   2.531   6.114 -1.2674 -1.4486  0.5401
 5695TIP3    H238649   2.620   2.493   5.972 -0.9758  1.3080 -0.3400
 5696TIP3   OH238650   6.176   2.446   2.324 -0.0517  0.2295  0.2166
 5696TIP3    H138651   6.092   2.400   2.326 -0.0102  0.0851 -0.8457
 5696TIP3    H238652   6.241   2.378   2.338 -0.0203  0.0351 -0.8142
 5697TIP3   OH238653   5.737   0.679   6.581  0.4240 -0.1061  0.3170
 5697TIP3    H138654   5.824   0.670   6.542  0.8026 -0.3544  1.1984
 5697TIP3    H238655   5.693   0.745   6.526  0.9631 -0.3839 -0.4678
 5698TIP3   OH238656   3.983   4.942   1.696 -0.1908 -0.0927  0.1085
 5698TIP3    H138657   3.970   4.849   1.677  0.3545  0.0993 -1.3552
 5698TIP3    H238658   3.902   4.969   1.739 -1.3879 -0.7224 -1.6201
 5699TIP3   OH238659   0.109   3.889   8.075 -0.6596  0.0719 -0.1330
 5699TIP3    H138660   0.157   3.807   8.090 -3.1037 -1.2438  1.1878
 5699TIP3    H238661   0.110   3.934   8.159 -0.1498  0.9519 -0.5967
 5700TIP3   OH238662   1.373   5.012   6.143 -0.0020  0.3041 -0.7155
 5700TIP3    H138663   1.361   4.963   6.224  0.7436 -1.1417 -1.4217
 5700TIP3    H238664   1.467   5.030   6.139 -0.0428  0.4342 -1.2015
 5701TIP3   OH238665   5.516   1.935   7.122  0.1700 -0.1473  0.2584
 5701TIP3    H138666   5.503   2.029   7.136 -1.1405 -0.4934  1.6088
 5701TIP3    H238667   5.589   1.912   7.179  0.6603  0.0844 -0.2666
 5702TIP3   OH238668   4.074   5.726   7.853  0.6362 -0.6840 -0.7349
 5702TIP3    H138669   4.022   5.685   7.783  0.6049 -0.6333 -0.7414
 5702TIP3    H238670   4.044   5.683   7.933  0.1212 -0.2124 -0.6619
 5703TIP3   OH238671   3.047   6.291   7.477  0.3721 -0.0348  0.2466
 5703TIP3    H138672   2.959   6.272   7.508  1.0656  1.1287  3.1874
 5703TIP3    H238673   3.101   6.295   7.556  2.9744 -0.0707 -1.3924
 5704TIP3   OH238674   3.257   5.036   8.254 -0.1266 -0.4899 -0.2072
 5704TIP3    H138675   3.275   5.091   8.178 -1.3343 -1.3320 -1.1533
 5704TIP3    H238676   3.229   4.952   8.217  0.0605 -1.2032  1.1802
 5705TIP3   OH238677   4.851   0.162   6.612  0.3516 -0.2369 -0.6192
 5705TIP3    H138678   4.766   0.157   6.569 -0.1292 -0.7206  0.3642
 5705TIP3    H238679   4.893   0.240   6.574 -0.6443  0.1779 -0.8918
 5706TIP3   OH238680   2.007   0.370   7.097  0.2213 -0.3403 -0.2055
 5706TIP3    H138681   1.927   0.325   7.070 -0.1894  0.4101 -0.2753
 5706TIP3    H238682   1.979   0.459   7.116  0.7705 -0.4654  1.2780
 5707TIP3   OH238683   0.151   2.126   8.082 -0.5680 -0.8459 -0.6778
 5707TIP3    H138684   0.167   2.208   8.130 -0.4002  0.5140 -2.9187
 5707TIP3    H238685   0.235   2.080   8.085 -0.4193 -0.5555 -0.1253
 5708TIP3   OH238686   6.619   2.583   6.583  0.1500 -0.4013 -0.1963
 5708TIP3    H138687   6.630   2.676   6.563 -0.8508 -0.7208 -2.5959
 5708TIP3    H238688   6.632   2.539   6.499 -1.9173 -2.1969  0.3399
 5709TIP3   OH238689   6.174   0.943   0.263  0.2157  0.0774  0.0218
 5709TIP3    H138690   6.131   0.929   0.179 -0.2493  1.2923  0.0416
 5709TIP3    H238691   6.183   1.038   0.271 -0.1988  0.0265  1.5489
 5710TIP3   OH238692   1.061   5.802   8.256  0.0145  0.6521 -0.9953
 5710TIP3    H138693   1.137   5.859   8.240  0.8229  0.1736  0.8846
 5710TIP3    H238694   1.001   5.856   8.307  0.3364  0.1517 -0.0779
 5711TIP3   OH238695   3.159   5.755   8.281 -0.4154  0.3356 -0.4433
 5711TIP3    H138696   3.222   5.793   8.342 -0.9510  0.9473 -0.2542
 5711TIP3    H238697   3.115   5.686   8.330  0.0523 -0.0497 -0.5552
 5712TIP3   OH238698   4.769   0.646   8.045 -0.1079 -0.2140  0.0419
 5712TIP3    H138699   4.714   0.567   8.036 -1.5728  0.8649 -0.9626
 5712TIP3    H238700   4.739   0.704   7.975  0.4038  1.5477  1.2204
 5713TIP3   OH238701   4.716   6.279   0.288 -0.2266 -0.4038  0.0989
 5713TIP3    H138702   4.690   6.243   0.373 -2.6318 -0.8711 -0.7765
 5713TIP3    H238703   4.808   6.252   0.278  0.4242  0.4471  2.9004
 5714TIP3   OH238704   5.244   3.397   6.509 -0.5202 -0.6652 -0.5542
 5714TIP3    H138705   5.243   3.324   6.447 -0.2851  0.0868 -1.4703
 5714TIP3    H238706   5.220   3.473   6.456 -0.2582  0.0035  0.2741
 5715TIP3   OH238707   6.131   4.518   6.202  0.7401  0.0731 -0.1313
 5715TIP3    H138708   6.071   4.483   6.268  0.6225 -0.4273 -0.4978
 5715TIP3    H238709   6.170   4.441   6.161  0.3461  0.3551 -1.0682
 5716TIP3   OH238710   0.584   3.224   1.598  0.1179  0.2767 -0.5792
 5716TIP3    H138711   0.644   3.298   1.603  0.2452  0.0933  1.1283
 5716TIP3    H238712   0.503   3.261   1.563  0.2333  1.1975  0.0907
 5717TIP3   OH238713   2.501   2.862   1.323  0.3678 -0.0193 -0.5377
 5717TIP3    H138714   2.528   2.893   1.410 -2.9125  0.8645  0.3211
 5717TIP3    H238715   2.431   2.799   1.341  1.9900 -2.6277 -2.5329
 5718TIP3   OH238716   2.238   6.017   6.862  0.1545  0.2140  0.4195
 5718TIP3    H138717   2.304   6.082   6.886  0.3541  0.3145 -0.3879
 5718TIP3    H238718   2.162   6.039   6.916 -0.1434  1.7683 -0.5698
 5719TIP3   OH238719   0.785   6.743   8.261  0.1316  0.2692 -0.6445
 5719TIP3    H138720   0.739   6.660   8.275  0.8729 -0.3903 -1.8680
 5719TIP3    H238721   0.876   6.718   8.247  0.5719  1.4040  0.0563
 5720TIP3   OH238722   6.253   2.903   7.229  0.1947  0.8675 -0.5912
 5720TIP3    H138723   6.344   2.902   7.201 -0.5497 -0.4552 -3.3999
 5720TIP3    H238724   6.243   2.825   7.283  0.6454  0.8501 -0.5314
 5721TIP3   OH238725   2.677   1.618   0.907 -0.0771  0.0491 -0.1451
 5721TIP3    H138726   2.690   1.652   0.818 -1.5686  0.0556 -0.3726
 5721TIP3    H238727   2.761   1.636   0.951  0.9253 -0.5376 -1.7132
 5722TIP3   OH238728   6.476   5.612   7.322 -0.4778 -0.3643 -0.2478
 5722TIP3    H138729   6.560   5.622   7.276  1.1767 -0.0709  2.6314
 5722TIP3    H238730   6.451   5.702   7.344 -1.2707 -0.5064 -0.5290
 5723TIP3   OH238731   1.784   0.433   2.348 -0.4691  0.6261  0.1227
 5723TIP3    H138732   1.693   0.444   2.322 -0.4602  0.4539  0.0258
 5723TIP3    H238733   1.815   0.523   2.363 -1.0986  0.6216  1.6661
 5724TIP3   OH238734   4.175   6.303   7.232  0.6203  0.6633 -0.5572
 5724TIP3    H138735   4.262   6.285   7.195  0.6043 -2.7546  0.7706
 5724TIP3    H238736   4.115   6.262   7.170  0.0654  1.2968 -0.4432
 5725TIP3   OH238737   4.612   5.201   1.418 -0.5901 -0.0755 -0.5495
 5725TIP3    H138738   4.551   5.144   1.372 -0.9824  0.1426 -0.3102
 5725TIP3    H238739   4.636   5.152   1.496  1.6216 -1.3005 -1.9077
 5726TIP3   OH238740   3.544   4.416   7.916 -0.5439 -0.5160 -0.0449
 5726TIP3    H138741   3.458   4.399   7.877 -0.2178 -1.2224 -0.5004
 5726TIP3    H238742   3.604   4.365   7.861  0.3658  1.1396 -0.6610
 5727TIP3   OH238743   1.782   6.653   1.716 -0.3386 -0.1673  0.2068
 5727TIP3    H138744   1.806   6.736   1.673  2.0689 -1.2905 -0.7861
 5727TIP3    H238745   1.778   6.675   1.809 -0.2739  1.1693 -0.0759
 5728TIP3   OH238746   1.729   1.411   7.073 -0.2048  0.0752  0.0726
 5728TIP3    H138747   1.783   1.343   7.113 -0.0502 -0.5734 -1.1877
 5728TIP3    H238748   1.762   1.418   6.983 -1.2044  0.7679 -0.2577
 5729TIP3   OH238749   2.829   2.385   6.790  0.2207  0.7445 -0.3760
 5729TIP3    H138750   2.780   2.340   6.721  1.5367  0.8893 -1.4405
 5729TIP3    H238751   2.921   2.361   6.774  0.5809  0.9557  1.1994
 5730TIP3   OH238752   5.731   6.954   6.150 -0.3671 -0.7848  0.2139
 5730TIP3    H138753   5.675   6.981   6.223  0.7385  1.6012  0.2821
 5730TIP3    H238754   5.692   6.995   6.073  1.6451  1.7074  0.3890
 5731TIP3   OH238755   1.073   1.359   7.953  0.6784 -0.3894 -0.3112
 5731TIP3    H138756   1.011   1.411   7.902 -0.1327  1.6067  2.4589
 5731TIP3    H238757   1.042   1.269   7.944 -2.0883  0.4234  0.1258
 5732TIP3   OH238758   4.790   3.279   6.756 -0.4309  0.2520 -0.3082
 5732TIP3    H138759   4.885   3.273   6.743 -0.0086 -2.5728  2.6873
 5732TIP3    H238760   4.756   3.194   6.728 -2.1199  1.1529 -1.1557
 5733TIP3   OH238761   1.817   5.502   7.610 -0.2056 -0.0825 -0.1314
 5733TIP3    H138762   1.813   5.449   7.531 -1.1643  0.9202 -0.7842
 5733TIP3    H238763   1.726   5.525   7.628  0.1373  0.8731  0.4504
 5734TIP3   OH238764   3.576   2.026   1.383  0.4495  0.2052  0.1476
 5734TIP3    H138765   3.536   2.083   1.318  0.6175  1.7424  1.3350
 5734TIP3    H238766   3.502   1.997   1.437  0.4926  0.1280  0.1646
 5735TIP3   OH238767   3.337   6.889   0.677  0.1877  0.0386 -0.1448
 5735TIP3    H138768   3.414   6.941   0.654 -0.7989  1.6689  0.0532
 5735TIP3    H238769   3.300   6.862   0.593  1.4256 -1.5281 -0.2348
 5736TIP3   OH238770   4.986   6.020   6.363  0.0225 -0.6696  0.2235
 5736TIP3    H138771   5.044   6.051   6.294 -0.0021  1.1367  0.9643
 5736TIP3    H238772   4.998   5.925   6.364  1.3866 -0.5402 -1.0211
 5737TIP3   OH238773   1.741   3.495   0.903  0.5133 -0.1572 -0.3865
 5737TIP3    H138774   1.712   3.585   0.886 -2.3189 -1.3764 -3.0046
 5737TIP3    H238775   1.670   3.457   0.954 -0.1975 -1.8697 -2.5238
 5738TIP3   OH238776   1.254   6.824   1.666  0.0941  0.2392 -0.4460
 5738TIP3    H138777   1.313   6.797   1.736  0.0732 -1.1493 -0.9391
 5738TIP3    H238778   1.280   6.914   1.646  1.0440  0.1615  0.3724
 5739TIP3   OH238779   1.096   3.185   6.368 -0.2747  0.4373  0.1467
 5739TIP3    H138780   1.008   3.149   6.375 -0.3285  0.4445 -0.4833
 5739TIP3    H238781   1.143   3.122   6.313 -0.3416  1.2728 -0.8824
 5740TIP3   OH238782   6.716   6.661   8.087 -0.1115 -0.0783  0.5497
 5740TIP3    H138783   6.758   6.582   8.053  0.2471  0.0623  0.6538
 5740TIP3    H238784   6.713   6.720   8.013 -0.4334 -0.2121  0.4567
 5741TIP3   OH238785   6.866   4.049   6.662  0.6121  0.0499 -0.5538
 5741TIP3    H138786   6.854   4.004   6.745  0.7650 -0.0990 -0.6106
 5741TIP3    H238787   6.929   3.995   6.614  1.2079  0.5964 -0.4138
 5742TIP3   OH238788   6.964   2.489   8.393  0.5172  0.0906  1.0096
 5742TIP3    H138789   6.958   2.394   8.402 -1.7238  0.2715  2.0282
 5742TIP3    H238790   6.920   2.508   8.310 -2.5173  0.4579  2.5780
 5743TIP3   OH238791   5.422   3.278   1.636  0.0360  0.1410 -0.2020
 5743TIP3    H138792   5.447   3.367   1.660 -0.9313  0.5615 -0.7042
 5743TIP3    H238793   5.492   3.249   1.577  1.2996 -0.1207  1.3435
 5744TIP3   OH238794   2.019   0.384   8.339  0.6408 -0.2600 -0.3380
 5744TIP3    H138795   2.059   0.307   8.379 -1.1332  1.0217  4.6324
 5744TIP3    H238796   1.931   0.355   8.314  0.9975 -0.5028 -1.3780
 5745TIP3   OH238797   0.568   4.722   1.716 -0.1725 -0.1863  0.1413
 5745TIP3    H138798   0.576   4.701   1.809  0.5532 -1.8988 -0.2698
 5745TIP3    H238799   0.594   4.814   1.710 -2.5563  0.6878  1.9127
 5746TIP3   OH238800   2.476   3.545   0.181 -0.1396  0.1257  0.0196
 5746TIP3    H138801   2.404   3.577   0.127 -1.3221 -0.3733  1.2422
 5746TIP3    H238802   2.510   3.469   0.133  0.1904  0.9063 -1.0102
 5747TIP3   OH238803   1.724   6.510   7.741 -0.1791 -0.7396 -0.1725
 5747TIP3    H138804   1.697   6.419   7.750  3.7443 -2.3354 -1.9259
 5747TIP3    H238805   1.664   6.546   7.676 -1.7072 -2.0857  0.4158
 5748TIP3   OH238806   3.079   2.625   1.687 -0.1120 -0.0458  0.0362
 5748TIP3    H138807   3.152   2.678   1.720 -0.9894  0.1867  1.7217
 5748TIP3    H238808   3.092   2.623   1.592  1.1544  1.3770  0.1356
 5749TIP3   OH238809   6.356   5.335   7.887 -0.0153  0.5490 -0.5077
 5749TIP3    H138810   6.339   5.373   7.800 -1.3821 -0.6098 -0.7904
 5749TIP3    H238811   6.447   5.307   7.884  0.5369  2.2706 -0.8675
 5750TIP3   OH238812   3.274   3.703   8.169  0.4161 -0.6114 -0.2958
 5750TIP3    H138813   3.277   3.763   8.095  0.1002 -0.1245  0.0857
 5750TIP3    H238814   3.240   3.621   8.131  1.1146 -0.6561 -0.8707
 5751TIP3   OH238815   4.576   5.606   0.993  0.1105  0.3267  0.1630
 5751TIP3    H138816   4.567   5.674   0.926  0.0347 -0.2863 -0.4611
 5751TIP3    H238817   4.582   5.654   1.075  0.5973  1.1042 -0.3193
 5752TIP3   OH238818   6.084   1.040   1.797 -0.2423 -0.7304  0.2567
 5752TIP3    H138819   6.048   1.003   1.716 -0.5292  1.3067 -0.5999
 5752TIP3    H238820   6.171   1.070   1.774 -0.2254 -0.3701  0.7698
 5753TIP3   OH238821   0.791   6.810   7.963  0.4208 -0.2374 -0.2515
 5753TIP3    H138822   0.829   6.858   7.888 -0.7878 -1.9709 -2.0621
 5753TIP3    H238823   0.862   6.809   8.028  1.8185  0.6432 -1.6662
 5754TIP3   OH238824   1.529   3.928   7.460  0.1526 -0.2345 -0.1090
 5754TIP3    H138825   1.563   4.017   7.465 -0.8124  0.2249 -1.2145
 5754TIP3    H238826   1.441   3.933   7.497  0.9960 -1.3186  2.2971
 5755TIP3   OH238827   3.427   2.664   8.025 -0.0592  0.4456 -0.6900
 5755TIP3    H138828   3.480   2.702   8.095  3.5200 -2.7651 -1.3714
 5755TIP3    H238829   3.412   2.574   8.052 -2.9068  0.4110 -1.9364
 5756TIP3   OH238830   0.682   2.060   0.675 -0.1311 -0.5561 -0.4366
 5756TIP3    H138831   0.632   2.073   0.755 -1.0599 -0.8734 -0.9518
 5756TIP3    H238832   0.773   2.050   0.704 -0.6563 -2.2651  0.7022
 5757TIP3   OH238833   5.223   2.441   0.173 -0.4571 -0.0015  0.1251
 5757TIP3    H138834   5.205   2.371   0.110 -1.2718  1.3263 -1.2086
 5757TIP3    H238835   5.253   2.514   0.119  1.0451  0.4851  1.5423
 5758TIP3   OH238836   3.674   4.097   1.277 -0.0871 -0.1663 -0.4312
 5758TIP3    H138837   3.750   4.044   1.253  1.1494  1.2809  0.1408
 5758TIP3    H238838   3.639   4.128   1.193  0.5319 -0.0756 -0.6611
 5759TIP3   OH238839   6.360   0.654   1.841 -0.4342  0.4448  0.3470
 5759TIP3    H138840   6.368   0.695   1.927 -0.2871 -0.9512  1.0259
 5759TIP3    H238841   6.277   0.607   1.844  0.0174 -0.3908  0.0757
 5760TIP3   OH238842   5.355   5.998   0.795 -0.2524  0.7939  0.3725
 5760TIP3    H138843   5.301   5.920   0.811  1.9011 -0.9316 -0.2809
 5760TIP3    H238844   5.333   6.024   0.706  0.5143 -0.4012 -0.1928
 5761TIP3   OH238845   1.507   5.273   2.103 -0.3566 -0.0602 -0.6567
 5761TIP3    H138846   1.515   5.362   2.070  0.1391 -0.5537 -1.9718
 5761TIP3    H238847   1.573   5.267   2.172 -0.9074  0.7943 -0.0394
 5762TIP3   OH238848   2.863   0.677   6.799 -0.2355 -0.3625  0.2259
 5762TIP3    H138849   2.830   0.713   6.717  0.7367  0.9530  0.3889
 5762TIP3    H238850   2.918   0.603   6.773 -2.8971 -2.3949 -0.0643
 5763TIP3   OH238851   3.203   2.695   6.970 -0.2258  0.3025 -0.3223
 5763TIP3    H138852   3.262   2.725   6.900  1.3796 -0.0214  0.8482
 5763TIP3    H238853   3.198   2.769   7.030 -2.2970  0.9055 -1.1366
 5764TIP3   OH238854   1.846   0.151   8.107  0.2588  0.1748 -0.0870
 5764TIP3    H138855   1.883   0.200   8.033  0.2485 -0.9144 -0.8362
 5764TIP3    H238856   1.793   0.216   8.154 -1.7593  0.3929 -2.4335
 5765TIP3   OH238857   5.317   3.633   0.854 -0.1137 -0.3110 -0.0980
 5765TIP3    H138858   5.361   3.718   0.850 -1.3511  0.2855 -1.5884
 5765TIP3    H238859   5.374   3.580   0.911  0.6317  1.5157  0.9530
 5766TIP3   OH238860   6.839   6.767   6.767  0.2555 -0.2865 -0.2462
 5766TIP3    H138861   6.847   6.836   6.833  2.4029 -1.9974  1.4332
 5766TIP3    H238862   6.745   6.746   6.768 -0.3280  1.9831 -0.2393
 5767TIP3   OH238863   1.416   6.047   2.193 -0.3841  0.6050 -0.3075
 5767TIP3    H138864   1.481   5.977   2.202 -0.0791  0.9628  0.4400
 5767TIP3    H238865   1.338   6.004   2.159 -0.3681 -0.1986  0.6386
 5768TIP3   OH238866   3.187   1.316   5.875  0.1561 -0.1670 -0.0430
 5768TIP3    H138867   3.232   1.319   5.959  1.0983  1.8586 -0.5610
 5768TIP3    H238868   3.254   1.290   5.812 -0.1955 -0.2492 -0.3883
 5769TIP3   OH238869   1.132   0.755   7.807 -0.5350 -0.4600  1.0721
 5769TIP3    H138870   1.168   0.841   7.828 -0.1503 -0.3749  0.1180
 5769TIP3    H238871   1.209   0.700   7.793 -0.7205 -0.2870 -0.9571
 5770TIP3   OH238872   5.481   0.554   2.002  0.1604  0.0611  0.0693
 5770TIP3    H138873   5.559   0.569   2.056 -0.7676  0.1853  1.4320
 5770TIP3    H238874   5.433   0.486   2.049 -0.2173 -0.5338 -1.1440
 5771TIP3   OH238875   1.960   6.120   8.388 -0.1230 -0.2430  0.2812
 5771TIP3    H138876   2.046   6.152   8.361  0.3068 -0.1627  1.6735
 5771TIP3    H238877   1.931   6.065   8.315 -0.2372  2.0775 -1.5354
 5772TIP3   OH238878   6.097   3.254   2.198  0.2648 -0.0112  0.0300
 5772TIP3    H138879   6.177   3.300   2.221 -0.7149  1.5228  0.5424
 5772TIP3    H238880   6.098   3.175   2.251  1.8054 -0.4232 -0.5717
 5773TIP3   OH238881   1.572   6.875   7.621  0.7916 -0.2041  0.0249
 5773TIP3    H138882   1.568   6.950   7.561 -0.0863  0.0916  0.4297
 5773TIP3    H238883   1.515   6.810   7.581 -1.1644  0.6196  1.3336
 5774TIP3   OH238884   2.511   4.020   1.809 -0.5740 -0.4605  0.5909
 5774TIP3    H138885   2.461   4.100   1.823  0.0565 -0.1713  1.2430
 5774TIP3    H238886   2.454   3.950   1.840 -0.4691 -0.1065  1.6140
 5775TIP3   OH238887   0.555   6.861   7.872  0.1735  0.1403 -0.1020
 5775TIP3    H138888   0.636   6.832   7.915  0.6935  0.9270 -0.5374
 5775TIP3    H238889   0.548   6.954   7.892 -0.4358  0.1641 -0.3806
 5776TIP3   OH238890   5.119   0.393   5.752 -0.1937  0.2865  0.4920
 5776TIP3    H138891   5.107   0.488   5.755  0.5159  0.5414 -2.4777
 5776TIP3    H238892   5.133   0.369   5.844 -1.3265  2.8878  1.4531
 5777TIP3   OH238893   6.092   6.972   1.201  0.0237 -0.3703 -0.3831
 5777TIP3    H138894   6.110   6.904   1.136 -1.0165 -1.6038  0.5601
 5777TIP3    H238895   5.997   6.973   1.208  0.1135 -0.1289  0.9766
 5778TIP3   OH238896   1.459   6.944   1.836  0.0471 -0.0878  0.0462
 5778TIP3    H138897   1.532   6.927   1.896  0.3825 -1.7551 -0.7826
 5778TIP3    H238898   1.477   7.031   1.801  1.0354 -0.0046  0.7225
 5779TIP3   OH238899   3.252   6.674   2.047  0.4378 -0.5453  0.5128
 5779TIP3    H138900   3.317   6.703   1.982  0.1962 -0.7878  0.1550
 5779TIP3    H238901   3.241   6.580   2.029 -0.0090 -0.5054  0.5678
 5780TIP3   OH238902   4.259   1.367   8.064 -0.0041 -0.8881 -0.0415
 5780TIP3    H138903   4.334   1.388   8.008  1.0355 -0.1620  1.5312
 5780TIP3    H238904   4.197   1.323   8.007  0.5454  0.7490 -1.9918
 5781TIP3   OH238905   5.874   5.410   6.854 -0.1064  0.2458  0.1273
 5781TIP3    H138906   5.901   5.470   6.924 -0.2467  0.9704 -0.4264
 5781TIP3    H238907   5.829   5.466   6.791  0.7949 -0.2277 -0.9789
 5782TIP3   OH238908   5.065   4.988   8.261 -0.6448  0.1861  0.6350
 5782TIP3    H138909   5.041   5.073   8.298 -1.7429  2.0864 -3.8034
 5782TIP3    H238910   4.982   4.953   8.228  0.2914 -1.0354 -0.4870
 5783TIP3   OH238911   5.301   3.837   0.213 -0.0149  0.1350  0.4729
 5783TIP3    H138912   5.304   3.933   0.204  0.4140  0.1002  0.1981
 5783TIP3    H238913   5.208   3.817   0.220 -0.1428  0.5296 -0.0095
 5784TIP3   OH238914   4.430   0.400   7.700  0.4524  0.1444  0.0428
 5784TIP3    H138915   4.354   0.361   7.743  1.1205 -2.9500 -1.2847
 5784TIP3    H238916   4.395   0.442   7.621 -0.0967  0.6999  0.5762
 5785TIP3   OH238917   5.077   5.751   6.591 -0.4259 -0.0129 -0.6955
 5785TIP3    H138918   5.130   5.822   6.624  1.1660 -2.1958  1.8296
 5785TIP3    H238919   5.118   5.726   6.508  1.3911 -0.3942  0.2754
 5786TIP3   OH238920   1.020   3.144   1.345  0.1043  0.2625 -0.6599
 5786TIP3    H138921   0.964   3.222   1.346 -1.6598 -0.9539 -0.5678
 5786TIP3    H238922   1.002   3.100   1.428  0.5437 -0.6277 -1.0247
 5787TIP3   OH238923   0.396   4.728   0.092  0.3491 -0.6160 -0.1462
 5787TIP3    H138924   0.477   4.685   0.065  2.0280  2.2485 -0.1210
 5787TIP3    H238925   0.358   4.762   0.011  0.9640  0.8404  0.1453
 5788TIP3   OH238926   0.445   2.284   8.067 -0.2457 -0.0243  0.0180
 5788TIP3    H138927   0.391   2.304   8.143  1.2316  0.5135  0.9779
 5788TIP3    H238928   0.438   2.189   8.056  0.0374 -0.2014  1.2495
 5789TIP3   OH238929   0.838   1.492   0.215 -0.7120  0.7601 -0.0304
 5789TIP3    H138930   0.777   1.420   0.234 -0.4201  0.4508 -0.2476
 5789TIP3    H238931   0.910   1.479   0.278 -1.0801  1.3924  0.5336
 5790TIP3   OH238932   0.256   2.287   8.278  0.0552  0.5116 -0.0805
 5790TIP3    H138933   0.260   2.347   8.352 -0.0814 -0.3331  0.6245
 5790TIP3    H238934   0.266   2.200   8.316 -0.6189  0.0153 -0.9885
 5791TIP3   OH238935   4.407   6.214   7.183 -0.1076  0.7309 -0.1624
 5791TIP3    H138936   4.415   6.120   7.171 -2.1077  0.1027  2.4342
 5791TIP3    H238937   4.486   6.239   7.231  0.3161  0.3551 -0.6496
 5792TIP3   OH238938   4.447   0.876   1.608 -0.3410  1.0023 -0.2874
 5792TIP3    H138939   4.531   0.842   1.576 -0.2471 -0.0257  0.9222
 5792TIP3    H238940   4.471   0.951   1.663 -0.0735  0.0354  0.9652
 5793TIP3   OH238941   6.141   2.417   6.750 -0.3648  0.0633  0.5889
 5793TIP3    H138942   6.235   2.426   6.735 -0.3278 -1.1384 -0.0745
 5793TIP3    H238943   6.103   2.419   6.662 -0.7614 -1.2178  0.7087
 5794TIP3   OH238944   4.178   4.588   1.143  0.0047  0.2133  0.4497
 5794TIP3    H138945   4.147   4.511   1.094 -0.3114 -0.2821  1.4013
 5794TIP3    H238946   4.101   4.645   1.148  0.1652  0.4786 -0.0214
 5795TIP3   OH238947   3.933   6.408   0.968 -0.3697 -0.1263 -0.0185
 5795TIP3    H138948   3.999   6.476   0.980 -0.3477 -0.5015  2.4539
 5795TIP3    H238949   3.910   6.413   0.875 -0.1348  3.0228 -0.0139
 5796TIP3   OH238950   3.221   4.283   7.340 -0.2709 -0.4449 -0.5194
 5796TIP3    H138951   3.215   4.377   7.322  2.3837  0.0449  0.6455
 5796TIP3    H238952   3.132   4.258   7.366 -0.7975  2.0339  0.3224
 5797TIP3   OH238953   2.512   6.164   1.466  0.0493  0.2035 -0.2243
 5797TIP3    H138954   2.495   6.246   1.513 -0.0263  0.1944 -0.2356
 5797TIP3    H238955   2.452   6.167   1.392  0.8107  0.6473 -0.8346
 5798TIP3   OH238956   0.428   3.503   6.521  0.0965  0.2408 -0.1000
 5798TIP3    H138957   0.410   3.409   6.521 -0.7816  0.3005  2.9005
 5798TIP3    H238958   0.523   3.510   6.524  0.1446 -0.6735  1.8290
 5799TIP3   OH238959   1.427   3.550   8.200 -0.4338  0.2120  0.2093
 5799TIP3    H138960   1.432   3.454   8.201 -0.0374  0.2027 -1.2551
 5799TIP3    H238961   1.510   3.579   8.238  0.9546 -0.0491 -2.4281
 5800TIP3   OH238962   0.531   6.451   7.933  0.1898  0.2961 -0.4264
 5800TIP3    H138963   0.470   6.525   7.923 -1.5017 -0.7425  1.4922
 5800TIP3    H238964   0.506   6.390   7.864  0.2668  0.6526 -0.7733
 5801TIP3   OH238965   0.296   3.702   6.675  0.4440 -0.1348 -0.5488
 5801TIP3    H138966   0.365   3.647   6.637  1.6092  0.9814 -0.1279
 5801TIP3    H238967   0.332   3.731   6.759 -1.7761 -1.9830  1.2003
 5802TIP3   OH238968   0.310   1.672   6.395 -0.1523  0.3258  0.7412
 5802TIP3    H138969   0.231   1.626   6.422 -0.7718  1.9012  1.7745
 5802TIP3    H238970   0.311   1.666   6.300 -0.8167 -0.8020  0.7943
 5803TIP3   OH238971   2.932   2.229   7.232 -0.1337  0.1531 -0.2273
 5803TIP3    H138972   2.867   2.164   7.257  1.3929 -1.3115  0.1108
 5803TIP3    H238973   2.895   2.312   7.262 -1.2525 -0.7923  1.1697
 5804TIP3   OH238974   4.158   2.738   6.817 -0.5259 -0.4895 -0.2419
 5804TIP3    H138975   4.153   2.700   6.729 -0.9855 -0.1733 -0.3584
 5804TIP3    H238976   4.121   2.826   6.807 -1.9848 -0.9765  0.5620
 5805TIP3   OH238977   5.105   5.215   1.380  0.3073  0.5537 -0.4585
 5805TIP3    H138978   5.193   5.216   1.342  0.7899 -1.4470  0.5231
 5805TIP3    H238979   5.052   5.265   1.317  1.9510  1.0702 -1.5003
 5806TIP3   OH238980   4.952   6.258   1.810  0.1260 -0.0254 -0.3183
 5806TIP3    H138981   4.862   6.255   1.842  0.5363 -1.4439  0.7963
 5806TIP3    H238982   5.003   6.289   1.884  0.9187 -2.1308  0.1010
 5807TIP3   OH238983   0.620   1.449   1.445  0.6468  0.0280 -0.3306
 5807TIP3    H138984   0.666   1.408   1.518 -0.8773 -1.4746 -0.1512
 5807TIP3    H238985   0.579   1.527   1.482 -1.4129 -1.5251  0.9157
 5808TIP3   OH238986   1.029   0.985   6.430  0.0457 -0.1315 -0.3370
 5808TIP3    H138987   0.958   0.920   6.430  1.1162 -1.3502  0.0786
 5808TIP3    H238988   1.006   1.046   6.360 -1.6866 -0.1664  0.1465
 5809TIP3   OH238989   4.379   0.443   8.314 -0.2239 -0.0384  0.4298
 5809TIP3    H138990   4.341   0.356   8.327  2.1640 -1.0925  0.7631
 5809TIP3    H238991   4.427   0.461   8.394 -1.2172  1.9339  0.6379
 5810TIP3   OH238992   5.656   1.760   0.647 -0.2918  0.2065  0.2042
 5810TIP3    H138993   5.563   1.781   0.656 -0.5532 -1.0302  0.6434
 5810TIP3    H238994   5.657   1.678   0.598  0.6687  1.1639 -1.4565
 5811TIP3   OH238995   5.152   5.626   8.016 -0.0999 -0.1114  0.1534
 5811TIP3    H138996   5.188   5.668   7.938 -0.5336 -0.3528 -0.1789
 5811TIP3    H238997   5.091   5.560   7.983 -1.1704  0.5620  0.6996
 5812TIP3   OH238998   6.075   4.973   1.367  0.2578 -0.2445  0.3730
 5812TIP3    H138999   6.117   4.991   1.451  1.8054  0.6586 -0.5445
 5812TIP3    H239000   6.039   5.058   1.340 -1.9371 -0.9195  0.9582
 5813TIP3   OH239001   3.548   2.336   0.754  0.2673 -0.2097  0.2902
 5813TIP3    H139002   3.541   2.259   0.810 -0.9958  0.9822  1.9002
 5813TIP3    H239003   3.592   2.401   0.810  2.7377 -0.1575 -1.5451
 5814TIP3   OH239004   5.818   3.196   7.470 -0.4737  0.0627 -0.2679
 5814TIP3    H139005   5.835   3.211   7.563 -2.4263  0.0707  0.1342
 5814TIP3    H239006   5.878   3.126   7.445 -1.5708 -1.6841  1.6684
 5815TIP3   OH239007   0.402   0.653   7.164 -0.4079 -0.2283  0.0777
 5815TIP3    H139008   0.399   0.744   7.134 -0.2609 -0.0224  0.6733
 5815TIP3    H239009   0.342   0.650   7.238  0.1033 -0.4624  0.4826
 5816TIP3   OH239010   4.168   0.380   7.807 -0.2696 -0.5855 -0.4928
 5816TIP3    H139011   4.086   0.332   7.823  0.1243 -1.3722 -0.7933
 5816TIP3    H239012   4.158   0.461   7.857  0.0479 -1.9884  1.9778
 5817TIP3   OH239013   6.154   6.410   1.835  0.4189  0.3327 -0.2183
 5817TIP3    H139014   6.207   6.331   1.846  0.6879  0.5441  0.0376
 5817TIP3    H239015   6.200   6.476   1.887  1.0019  1.0338 -1.5766
 5818TIP3   OH239016   2.562   3.233   6.133 -0.3299 -0.0270 -0.6865
 5818TIP3    H139017   2.657   3.227   6.145 -0.3459  0.0770 -0.4878
 5818TIP3    H239018   2.535   3.147   6.102 -0.2728 -0.2959 -0.0121
 5819TIP3   OH239019   4.786   0.230   7.825  0.0256  0.5621  0.3974
 5819TIP3    H139020   4.714   0.173   7.798  0.1189 -0.5257  2.2567
 5819TIP3    H239021   4.827   0.184   7.899  1.7243  1.8403  0.3176
 5820TIP3   OH239022   1.467   1.095   7.880  0.2433  0.4819 -0.3895
 5820TIP3    H139023   1.542   1.050   7.841  0.4926  0.8982 -0.3863
 5820TIP3    H239024   1.391   1.056   7.837  0.5180  1.0551 -1.4179
 5821TIP3   OH239025   3.871   6.197   6.868  0.1261 -0.0576  0.3993
 5821TIP3    H139026   3.794   6.247   6.842 -0.7896 -1.4372  0.3504
 5821TIP3    H239027   3.915   6.175   6.786 -0.1282 -0.3550  0.3435
 5822TIP3   OH239028   6.065   6.707   7.231  0.0991  0.1548 -0.2484
 5822TIP3    H139029   6.010   6.768   7.181 -0.9693 -0.5265  0.0546
 5822TIP3    H239030   6.107   6.762   7.298  0.9402  0.9377 -1.3866
 5823TIP3   OH239031   2.284   0.762   7.638 -0.3031  0.5464  0.6142
 5823TIP3    H139032   2.368   0.805   7.657 -0.7977  1.7213  0.2552
 5823TIP3    H239033   2.245   0.817   7.570 -0.7848 -0.7359 -0.1711
 5824TIP3   OH239034   4.384   0.141   8.363  0.5303  0.3302 -0.2088
 5824TIP3    H139035   4.324   0.084   8.412 -1.0279  1.6799 -0.4738
 5824TIP3    H239036   4.376   0.112   8.272  2.3937 -1.2751  0.0808
 5825TIP3   OH239037   0.083   1.604   6.952  0.1523  0.5001 -0.1652
 5825TIP3    H139038   0.155   1.561   6.905  0.5386  0.4105  0.5005
 5825TIP3    H239039   0.048   1.667   6.889  0.1306 -0.1937 -0.8616
 5826TIP3   OH239040   4.821   2.738   1.131  0.4239 -0.1072 -0.1042
 5826TIP3    H139041   4.856   2.804   1.071 -1.7550  2.2012  1.0152
 5826TIP3    H239042   4.867   2.753   1.213  0.5267 -0.5786 -0.0716
 5827TIP3   OH239043   2.585   6.181   0.012  0.6066  0.0018 -0.4375
 5827TIP3    H139044   2.654   6.238   0.045  0.4940  0.2594 -0.6468
 5827TIP3    H239045   2.568   6.211  -0.077  0.2970 -0.1257 -0.4262
 5828TIP3   OH239046   5.325   1.634   1.187 -0.4195 -0.4397 -0.4197
 5828TIP3    H139047   5.383   1.711   1.183 -0.9149 -0.0730 -0.6212
 5828TIP3    H239048   5.384   1.560   1.200 -0.0638  0.2031  2.3342
 5829TIP3   OH239049   4.019   6.475   6.154 -0.0720  0.4557 -0.0036
 5829TIP3    H139050   4.057   6.556   6.187 -0.9187  1.0783 -0.5007
 5829TIP3    H239051   4.087   6.409   6.166  0.3629  1.0780  1.1025
 5830TIP3   OH239052   5.027   2.330   2.013  0.1267 -0.3348 -0.0920
 5830TIP3    H139053   5.008   2.239   2.034 -0.4836 -0.3031 -0.4748
 5830TIP3    H239054   4.955   2.379   2.052 -1.9133 -0.4012 -3.4177
 5831TIP3   OH239055   3.457   1.127   0.475  0.1934  1.5613 -0.0409
 5831TIP3    H139056   3.391   1.196   0.477  0.3998  1.7566  1.1200
 5831TIP3    H239057   3.483   1.117   0.567  0.9984  0.7406 -0.3444
 5832TIP3   OH239058   1.078   2.879   7.727 -0.0869 -0.3231 -0.4371
 5832TIP3    H139059   0.998   2.917   7.764  0.3807 -0.2486  0.5364
 5832TIP3    H239060   1.129   2.955   7.698 -0.1223 -0.3423 -0.5525
 5833TIP3   OH239061   5.887   2.420   7.960  0.2587 -0.3933 -0.1877
 5833TIP3    H139062   5.803   2.383   7.987  0.1176 -0.1125 -0.2511
 5833TIP3    H239063   5.935   2.431   8.042  0.6099 -1.4633 -0.2252
 5834TIP3   OH239064   0.028   5.391   7.446 -0.5677 -0.3936  0.5032
 5834TIP3    H139065  -0.009   5.445   7.515 -1.1515 -0.6245  0.3854
 5834TIP3    H239066  -0.041   5.387   7.379  0.4616  0.8659 -0.6751
 5835TIP3   OH239067   1.255   0.993   7.760  0.4329  0.1181  0.4088
 5835TIP3    H139068   1.305   0.968   7.682  1.6795 -0.5434  1.3819
 5835TIP3    H239069   1.176   1.034   7.725  1.0558  0.0428 -1.2004
 5836TIP3   OH239070   6.971   2.984   0.478  0.3447  0.3234  0.3977
 5836TIP3    H139071   6.945   3.052   0.540 -0.5980  0.2160  0.1391
 5836TIP3    H239072   6.897   2.922   0.478 -1.1931  1.8693 -3.1121
 5837TIP3   OH239073   3.401   1.591   7.096 -0.1699  0.0965 -0.5745
 5837TIP3    H139074   3.483   1.547   7.071 -1.1063 -0.8449 -2.1456
 5837TIP3    H239075   3.350   1.523   7.139 -0.3056  0.5625  0.0086
 5838TIP3   OH239076   5.262   3.536   7.723 -0.5666 -0.4402  0.4935
 5838TIP3    H139077   5.209   3.582   7.658  0.2785  0.9586  0.7506
 5838TIP3    H239078   5.333   3.597   7.743  1.0607 -2.1983  0.2659
 5839TIP3   OH239079   4.295   2.144   0.784  0.4747 -0.4615 -0.5586
 5839TIP3    H139080   4.350   2.177   0.855 -0.1129  2.0011 -1.1408
 5839TIP3    H239081   4.214   2.116   0.827  1.0319 -1.3294 -0.0334
 5840TIP3   OH239082   2.564   2.358   8.288 -0.0872 -0.2328 -0.4931
 5840TIP3    H139083   2.532   2.289   8.346 -0.9761  0.4490 -0.1353
 5840TIP3    H239084   2.491   2.420   8.283  0.6589  0.6438 -0.8631
 5841TIP3   OH239085   5.575   0.347   1.302  0.1281 -0.8495 -0.7282
 5841TIP3    H139086   5.666   0.354   1.332  0.3173 -1.5698 -1.1364
 5841TIP3    H239087   5.558   0.432   1.261 -0.1215  0.1669  1.3262
 5842TIP3   OH239088   3.331   1.351   6.121 -0.4429 -0.1464  0.4084
 5842TIP3    H139089   3.357   1.321   6.208 -1.2060  1.2673  1.1531
 5842TIP3    H239090   3.409   1.396   6.087 -0.8536  1.3001  1.3230
 5843TIP3   OH239091   1.228   0.148   6.508  0.0409  0.1874  0.5470
 5843TIP3    H139092   1.225   0.135   6.413 -0.9917 -0.8141  0.6910
 5843TIP3    H239093   1.263   0.065   6.541 -0.2591  0.2694  1.0753
 5844TIP3   OH239094   3.988   3.031   0.678 -0.8225  0.1092 -0.2427
 5844TIP3    H139095   4.083   3.044   0.666 -0.7184 -0.8026 -0.4514
 5844TIP3    H239096   3.953   3.120   0.683 -0.1242  0.4823 -1.4532
 5845TIP3   OH239097   1.136   3.557   1.089 -0.1774  0.2573  1.0083
 5845TIP3    H139098   1.177   3.575   1.004  0.5765 -2.6220  0.6643
 5845TIP3    H239099   1.210   3.552   1.150 -0.4752 -0.1863  1.3342
 5846TIP3   OH239100   6.558   1.663   7.438  0.0167 -0.5033  0.6490
 5846TIP3    H139101   6.599   1.595   7.492 -2.8819 -1.3609  1.9442
 5846TIP3    H239102   6.531   1.617   7.358 -0.2823 -0.4403  0.7134
 5847TIP3   OH239103   2.476   5.757   0.329 -0.2060  0.1583 -0.1912
 5847TIP3    H139104   2.444   5.845   0.350  0.3991  0.3776 -0.1639
 5847TIP3    H239105   2.463   5.706   0.409  0.4623  0.5176  0.1468
 5848TIP3   OH239106   6.281   3.485   0.970 -0.4787  0.0723  0.0415
 5848TIP3    H139107   6.237   3.435   1.039  0.3268  0.5691  0.9496
 5848TIP3    H239108   6.347   3.537   1.017  0.6384 -0.1805 -1.1914
 5849TIP3   OH239109   4.040   5.226   0.348 -0.1087 -0.4754  0.0965
 5849TIP3    H139110   4.109   5.187   0.400 -1.3853 -0.6585  1.7371
 5849TIP3    H239111   4.040   5.319   0.372  0.2288 -0.2698 -0.6759
 5850TIP3   OH239112   1.494   1.461   0.099  0.4399  0.3407  0.2381
 5850TIP3    H139113   1.550   1.398   0.145  1.3020  1.0649  0.1982
 5850TIP3    H239114   1.549   1.496   0.030 -0.7230 -0.4578 -1.1567
 5851TIP3   OH239115   0.663   4.863   0.090  0.3596  0.2760 -0.5284
 5851TIP3    H139116   0.621   4.868   0.176  1.0277 -1.5045 -0.0413
 5851TIP3    H239117   0.742   4.916   0.099  0.6593 -0.2645  0.1243
 5852TIP3   OH239118   5.874   4.109   6.821  0.2227  0.8240 -0.3644
 5852TIP3    H139119   5.878   4.147   6.908  0.5156  1.9838 -0.8679
 5852TIP3    H239120   5.948   4.148   6.774 -0.4675  0.9167 -1.4014
 5853TIP3   OH239121   1.751   5.139   7.542 -0.7036  0.5273  0.2164
 5853TIP3    H139122   1.698   5.214   7.570 -0.3225  0.7727  0.2830
 5853TIP3    H239123   1.833   5.177   7.513 -0.7051  0.1770 -0.2524
 5854TIP3   OH239124   5.960   6.135   1.328 -0.1978  0.0172  0.1243
 5854TIP3    H139125   5.998   6.205   1.274  1.0903 -0.1093  0.8376
 5854TIP3    H239126   6.008   6.057   1.304 -0.0227 -0.1615  1.0074
 5855TIP3   OH239127   6.225   6.754   1.089 -0.0067  0.1820 -0.3117
 5855TIP3    H139128   6.298   6.703   1.053 -0.3163 -1.1230  0.8144
 5855TIP3    H239129   6.226   6.733   1.182 -1.0599  1.1373 -0.0744
 5856TIP3   OH239130   2.636   3.802   0.321 -0.3909 -0.0472 -0.8247
 5856TIP3    H139131   2.568   3.773   0.261 -1.5054  1.9093 -0.5865
 5856TIP3    H239132   2.614   3.893   0.341  0.7111 -0.1917  1.4499
 5857TIP3   OH239133   0.743   0.909   7.467 -0.1889 -0.0343  0.9300
 5857TIP3    H139134   0.657   0.916   7.424  0.1354 -1.8099 -0.1201
 5857TIP3    H239135   0.804   0.946   7.403 -0.0467  0.1005  1.1464
 5858TIP3   OH239136   2.094   4.794   6.791 -0.6339 -0.3493  0.6084
 5858TIP3    H139137   2.126   4.884   6.802  0.4723 -0.7626  0.8788
 5858TIP3    H239138   2.099   4.779   6.697 -3.7090  0.8734  0.1298
 5859TIP3   OH239139   0.249   3.449   2.297 -0.6688  0.4264 -0.1846
 5859TIP3    H139140   0.234   3.541   2.320 -0.3666  0.4231  0.0292
 5859TIP3    H239141   0.299   3.414   2.370  1.8685  0.8654 -1.5868
 5860TIP3   OH239142   5.219   1.060   7.899  0.1258  0.3292 -0.2738
 5860TIP3    H139143   5.152   1.035   7.963 -0.6573  0.9160 -0.8411
 5860TIP3    H239144   5.170   1.072   7.818  1.3977 -2.7227 -1.6297
 5861TIP3   OH239145   5.960   2.888   7.733  0.0478 -0.1133 -0.3757
 5861TIP3    H139146   6.025   2.903   7.665 -0.1222  0.1925 -0.4757
 5861TIP3    H239147   5.922   2.803   7.712  0.0652 -0.0648 -0.6062
 5862TIP3   OH239148   6.857   2.831   0.198  0.3411  0.4507 -0.2532
 5862TIP3    H139149   6.852   2.907   0.140  2.5502  0.1891 -0.8601
 5862TIP3    H239150   6.950   2.819   0.214  0.1146 -2.5533 -0.7111
 5863TIP3   OH239151   6.846   1.938   1.245  0.5836  0.2903 -0.0158
 5863TIP3    H139152   6.940   1.922   1.246  0.5555  0.0568 -0.5655
 5863TIP3    H239153   6.808   1.855   1.215 -0.0106 -0.5546  2.7094
 5864TIP3   OH239154   2.497   0.936   6.552 -0.0297  0.0305 -0.5785
 5864TIP3    H139155   2.556   1.006   6.580 -0.6067 -0.0588  0.9481
 5864TIP3    H239156   2.449   0.974   6.478  1.0155  0.5474 -1.0126
 5865TIP3   OH239157   6.026   1.881   7.788 -0.2259 -0.2937  0.3867
 5865TIP3    H139158   5.971   1.889   7.866 -0.9550  0.0208 -0.1506
 5865TIP3    H239159   6.091   1.951   7.797 -1.0048  0.4757  0.1640
 5866TIP3   OH239160   4.416   6.073   0.820 -0.1231 -0.4147 -0.1145
 5866TIP3    H139161   4.418   6.119   0.904  2.7696  0.4795 -0.5851
 5866TIP3    H239162   4.479   6.002   0.830  1.2567  0.4860 -1.8964
 5867TIP3   OH239163   2.489   2.467   7.818 -0.0642  0.0433 -0.2293
 5867TIP3    H139164   2.561   2.529   7.818 -1.2675  1.5527  1.6545
 5867TIP3    H239165   2.527   2.385   7.849  0.8756  0.7986  0.6567
 5868TIP3   OH239166   0.172   2.484   7.902 -0.3697  0.5111 -0.0688
 5868TIP3    H139167   0.131   2.528   7.827  0.4847 -0.3417 -1.0736
 5868TIP3    H239168   0.101   2.434   7.942 -0.8498  1.0125 -0.2763
 5869TIP3   OH239169   2.230   4.288   7.827  0.2649  0.2194 -0.0039
 5869TIP3    H139170   2.254   4.237   7.750  0.7899 -0.0577  0.3358
 5869TIP3    H239171   2.257   4.377   7.806  0.2103  0.1859 -0.2220
 5870TIP3   OH239172   0.023   5.669   0.906 -0.1198  0.4525  0.1868
 5870TIP3    H139173   0.032   5.648   0.814 -1.0414  0.5548  0.0676
 5870TIP3    H239174  -0.041   5.740   0.909 -1.4506 -0.7039  1.0090
 5871TIP3   OH239175   2.028   5.344   7.701 -0.4089  0.2593  0.1160
 5871TIP3    H139176   1.964   5.416   7.700 -0.4631  0.2081 -0.1996
 5871TIP3    H239177   2.053   5.333   7.609 -2.1872 -1.7288 -0.1907
 5872TIP3   OH239178   3.978   0.183   8.227 -0.0180 -0.2247 -0.3515
 5872TIP3    H139179   4.007   0.214   8.312 -0.8130  0.3693 -0.2844
 5872TIP3    H239180   3.976   0.261   8.172 -1.4514 -0.2159 -0.3433
 5873TIP3   OH239181   0.270   2.871   5.954 -0.2000 -0.6503 -0.1249
 5873TIP3    H139182   0.357   2.835   5.970  0.1087 -0.2376 -0.8515
 5873TIP3    H239183   0.219   2.797   5.922  0.7974 -0.2107 -2.9484
 5874TIP3   OH239184   1.430   2.116   1.874 -0.4763  0.8596  0.1379
 5874TIP3    H139185   1.463   2.203   1.853 -1.1022  1.7259  2.5182
 5874TIP3    H239186   1.493   2.081   1.937 -2.5716  1.5354  2.7993
 5875TIP3   OH239187   3.891   0.415   7.576  0.1140  0.4266 -0.4113
 5875TIP3    H139188   3.808   0.450   7.544 -0.4734  1.6038  2.1203
 5875TIP3    H239189   3.944   0.493   7.595  0.4817 -0.1617  1.1445
 5876TIP3   OH239190   5.238   0.297   1.318  0.9393  0.3907 -0.5867
 5876TIP3    H139191   5.271   0.302   1.228 -0.7192  1.8329 -1.1678
 5876TIP3    H239192   5.260   0.383   1.355  0.2174  0.3848 -0.1357
 5877TIP3   OH239193   0.996   4.650   6.683  0.0059  0.0120  0.8290
 5877TIP3    H139194   0.986   4.684   6.772  0.4222 -0.3723  1.0259
 5877TIP3    H239195   0.915   4.675   6.639 -1.2318 -1.7632  1.9601
 5878TIP3   OH239196   3.712   1.265   6.834 -0.1851  0.0297 -0.1165
 5878TIP3    H139197   3.803   1.279   6.808 -0.0186 -2.1794 -0.9236
 5878TIP3    H239198   3.661   1.307   6.765  0.2761 -2.1196 -1.8620
 5879TIP3   OH239199   4.751   2.454   1.029  0.0529 -0.0200 -0.4492
 5879TIP3    H139200   4.835   2.428   1.068  0.2989  2.0322  0.5236
 5879TIP3    H239201   4.697   2.480   1.103 -1.7703 -1.9720 -0.9983
 5880TIP3   OH239202   6.961   1.901   7.043 -0.5633 -0.3704 -0.5039
 5880TIP3    H139203   7.004   1.827   7.000 -0.4088 -0.1064 -0.8076
 5880TIP3    H239204   7.032   1.963   7.060  0.5365 -2.5112  4.8548
 5881TIP3   OH239205   5.003   2.066   0.387 -0.3086  0.2964 -0.1039
 5881TIP3    H139206   4.976   2.064   0.479  0.3377  0.5564  0.1005
 5881TIP3    H239207   5.054   2.147   0.379  0.3893 -0.1705 -0.4707
 5882TIP3   OH239208   0.686   1.585   0.972  0.7913  0.1812  0.2982
 5882TIP3    H139209   0.613   1.526   0.953  0.1891  0.6697  1.0232
 5882TIP3    H239210   0.728   1.545   1.048  3.5528 -2.0984 -2.1858
 5883TIP3   OH239211   0.791   5.522   0.978  0.4615 -0.0665 -0.1916
 5883TIP3    H139212   0.885   5.538   0.986  0.6843 -0.2085 -2.1256
 5883TIP3    H239213   0.752   5.609   0.976  0.2510  0.0128  2.9468
 5884TIP3   OH239214   3.055   2.282   7.706  0.6496 -0.7135 -0.2903
 5884TIP3    H139215   3.012   2.293   7.791  1.3101 -0.6951  0.0415
 5884TIP3    H239216   3.145   2.258   7.726  0.4378 -2.2386 -0.9907
 5885TIP3   OH239217   4.758   4.749   7.901 -0.0141 -0.2832 -0.0891
 5885TIP3    H139218   4.730   4.759   7.810 -0.0715  0.1418 -0.0271
 5885TIP3    H239219   4.680   4.721   7.947 -0.4035  1.0882  0.1193
 5886TIP3   OH239220   1.819   3.155   6.324  0.2521  0.5162  0.0315
 5886TIP3    H139221   1.892   3.209   6.354  0.5461  0.3438 -0.3784
 5886TIP3    H239222   1.821   3.078   6.381  2.4902 -1.1425 -2.1062
 5887TIP3   OH239223   3.063   0.366   7.011 -0.3973 -0.5786  0.4982
 5887TIP3    H139224   3.056   0.458   7.035  0.6267 -0.4131  0.2185
 5887TIP3    H239225   3.155   0.344   7.026 -0.4580 -1.3416 -0.1601
 5888TIP3   OH239226   1.892   4.329   6.778 -0.4996  0.7125 -0.1149
 5888TIP3    H139227   1.880   4.361   6.688 -1.1967  1.8164  0.3490
 5888TIP3    H239228   1.968   4.377   6.810  0.4728 -0.5309 -0.4679
 5889TIP3   OH239229   0.836   2.721   7.288 -0.1017  0.0390  0.4811
 5889TIP3    H139230   0.882   2.779   7.227  0.4486  0.3366  1.1657
 5889TIP3    H239231   0.836   2.636   7.244  0.4598  0.2040  0.1461
 5890TIP3   OH239232   4.109   1.889   0.712 -0.2321 -0.6024  0.0126
 5890TIP3    H139233   4.040   1.907   0.776 -1.5160 -1.7384 -0.9929
 5890TIP3    H239234   4.110   1.966   0.655 -0.1568 -0.2703  0.4552
 5891TIP3   OH239235   4.522   4.642   1.423 -0.3971 -0.4121 -0.0924
 5891TIP3    H139236   4.552   4.551   1.432  0.9724  0.0645  0.4310
 5891TIP3    H239237   4.469   4.658   1.501  2.9978  0.5386  2.2355
 5892TIP3   OH239238   5.826   5.096   1.632 -0.0834 -0.0461  0.0933
 5892TIP3    H139239   5.917   5.081   1.658 -0.2489 -1.4578 -0.0634
 5892TIP3    H239240   5.774   5.059   1.702 -0.5428  0.0233 -0.2062
 5893TIP3   OH239241   5.503   1.164   6.882 -0.0698 -0.2930 -0.3790
 5893TIP3    H139242   5.513   1.069   6.878  1.0971 -0.2518  0.9958
 5893TIP3    H239243   5.422   1.178   6.930  0.0795 -0.5995 -0.0338
 5894TIP3   OH239244   2.797   6.121   1.549  1.2820 -0.6455  0.0931
 5894TIP3    H139245   2.838   6.186   1.607 -0.1201  1.3020 -0.9802
 5894TIP3    H239246   2.704   6.142   1.552  1.0956 -0.8775 -2.3200
 5895TIP3   OH239247   6.514   2.361   6.382  0.4551 -0.4297 -0.2949
 5895TIP3    H139248   6.604   2.372   6.354  0.7447 -0.0009  0.7645
 5895TIP3    H239249   6.470   2.441   6.355  0.5536 -0.3373 -0.1784
 5896TIP3   OH239250   0.191   4.960   6.774  0.0812 -0.1016 -0.0161
 5896TIP3    H139251   0.247   4.900   6.823 -1.2901 -0.5916  0.9977
 5896TIP3    H239252   0.155   4.907   6.703 -0.9658 -0.4516  0.7563
 5897TIP3   OH239253   0.595   3.451   6.810 -0.2914 -0.0155 -0.0547
 5897TIP3    H139254   0.655   3.496   6.751  0.0202  0.4914  0.6346
 5897TIP3    H239255   0.602   3.359   6.786 -1.4219  0.3387 -1.9255
 5898TIP3   OH239256   1.505   2.767   1.477  0.4177 -0.2556  0.1064
 5898TIP3    H139257   1.557   2.687   1.472  0.2360 -0.5002  1.7203
 5898TIP3    H239258   1.559   2.834   1.433  0.1792 -1.4066 -2.0717
 5899TIP3   OH239259   0.723   3.836   2.003  0.1582 -0.5162 -0.6031
 5899TIP3    H139260   0.701   3.749   2.036 -1.0333  0.3065  0.8579
 5899TIP3    H239261   0.690   3.896   2.069 -0.1097  1.1178 -2.1564
 5900TIP3   OH239262   5.560   6.402   8.385  0.0342  0.0319 -0.2695
 5900TIP3    H139263   5.519   6.481   8.421  0.7416  0.7719 -1.0450
 5900TIP3    H239264   5.553   6.338   8.455 -2.4263  0.1178 -0.3498
 5901TIP3   OH239265   6.205   1.638   1.080 -0.4019 -0.1854  0.6278
 5901TIP3    H139266   6.204   1.565   1.141 -0.4793 -0.6379  0.0875
 5901TIP3    H239267   6.296   1.644   1.052 -0.2743  0.3161  1.1310
 5902TIP3   OH239268   1.069   2.576   1.500  0.0318 -0.0618  0.4065
 5902TIP3    H139269   0.992   2.551   1.449 -0.8404  1.4036  0.9451
 5902TIP3    H239270   1.035   2.636   1.566  1.5131 -0.0826  1.2170
 5903TIP3   OH239271   4.415   5.571   2.483  0.1407 -0.1663 -0.0982
 5903TIP3    H139272   4.398   5.656   2.525  2.7582  0.1527  0.4536
 5903TIP3    H239273   4.358   5.510   2.529  0.6765  0.7239  1.8624
 5904TIP3   OH239274   5.906   0.822   6.405 -0.2648  0.4002 -0.2330
 5904TIP3    H139275   5.978   0.867   6.362 -1.4990  1.5237 -1.1933
 5904TIP3    H239276   5.831   0.879   6.392 -1.0405  0.0033  2.0458
 5905TIP3   OH239277   0.906   5.454   7.597  0.0570  0.7540  0.2965
 5905TIP3    H139278   0.996   5.444   7.630 -1.3520  2.5760  5.9609
 5905TIP3    H239279   0.898   5.547   7.577 -0.6561  0.7265  0.4107
 5906TIP3   OH239280   0.157   5.751   1.115  0.2095  1.0302 -0.0857
 5906TIP3    H139281   0.100   5.826   1.131 -1.6414 -0.1700 -0.6830
 5906TIP3    H239282   0.122   5.710   1.036 -0.4332 -1.8159  1.5100
 5907TIP3   OH239283   5.320   6.351   1.176  0.3159 -0.6078 -0.1717
 5907TIP3    H139284   5.343   6.287   1.108 -1.9427 -1.1501 -0.5285
 5907TIP3    H239285   5.321   6.436   1.132 -0.5707 -0.8962 -0.7870
 5908TIP3   OH239286   2.771   0.916   8.241 -0.3565  0.2974  0.5262
 5908TIP3    H139287   2.679   0.915   8.214 -0.4411 -3.0138  0.4731
 5908TIP3    H239288   2.819   0.884   8.164  0.9358  2.2037  0.4615
 5909TIP3   OH239289   3.729   6.780   6.746 -0.5360 -0.4325 -0.2707
 5909TIP3    H139290   3.735   6.846   6.677  0.1165 -0.4635 -0.2470
 5909TIP3    H239291   3.641   6.792   6.783 -0.4801  0.3270 -0.3623
 5910TIP3   OH239292   3.727   1.028   0.720 -0.3938  0.1323 -0.4157
 5910TIP3    H139293   3.730   1.091   0.648  1.0901  1.6975  0.9243
 5910TIP3    H239294   3.781   1.067   0.788  0.5827 -2.6104  0.5204
 5911TIP3   OH239295   6.096   0.694   0.463  0.1761 -0.4060 -0.1197
 5911TIP3    H139296   6.096   0.761   0.395  0.5521  2.1045  2.1629
 5911TIP3    H239297   6.003   0.676   0.479  0.0489  0.0368 -0.3504
 5912TIP3   OH239298   5.075   3.067   0.860  0.0856 -0.0269 -0.5229
 5912TIP3    H139299   5.082   3.162   0.848 -0.1031 -0.0480 -0.8097
 5912TIP3    H239300   5.108   3.030   0.778  0.8612 -0.2320 -0.1325
 5913TIP3   OH239301   2.117   2.385   0.274 -0.1645  0.1884  0.5038
 5913TIP3    H139302   2.032   2.386   0.229  0.0039 -1.7750  0.0615
 5913TIP3    H239303   2.179   2.357   0.207  0.5182 -0.2228  1.2882
 5914TIP3   OH239304   3.258   6.338   1.850 -0.7137 -0.1645 -0.4048
 5914TIP3    H139305   3.301   6.329   1.935  2.1617 -0.1437 -1.7303
 5914TIP3    H239306   3.196   6.409   1.862  0.3480  0.5168  1.4517
 5915TIP3   OH239307   4.725   3.740   7.089 -0.5049  0.0355 -0.3787
 5915TIP3    H139308   4.659   3.672   7.104 -1.6475  1.1123 -0.3269
 5915TIP3    H239309   4.746   3.733   6.995  1.0163 -1.7616  0.0344
 5916TIP3   OH239310   1.417   1.279   7.100  0.1464  0.0538 -0.2168
 5916TIP3    H139311   1.393   1.333   7.025  0.5717 -0.3227 -0.6320
 5916TIP3    H239312   1.488   1.224   7.068 -1.5277 -2.1580 -0.4354
 5917TIP3   OH239313   0.823   5.094   0.171  0.0694 -0.5663  0.2510
 5917TIP3    H139314   0.833   5.064   0.261  0.6964 -0.2014  0.3074
 5917TIP3    H239315   0.809   5.189   0.178 -0.9160 -0.6865  0.0213
 5918TIP3   OH239316   6.138   3.360   6.941 -0.5182 -0.3547 -0.3060
 5918TIP3    H139317   6.158   3.427   7.006  0.5912 -1.4960  0.5879
 5918TIP3    H239318   6.119   3.409   6.861  0.7447  1.0090  0.1796
 5919TIP3   OH239319   3.272   6.881   1.728 -0.2276 -0.2515  0.0099
 5919TIP3    H139320   3.336   6.851   1.792 -0.3911 -1.0316 -0.1843
 5919TIP3    H239321   3.208   6.810   1.722 -1.6593  0.9028  0.9226
 5920TIP3   OH239322   3.890   2.122   7.289 -0.0808 -0.1276 -0.7072
 5920TIP3    H139323   3.975   2.082   7.307  0.0804  0.1032 -0.9499
 5920TIP3    H239324   3.855   2.072   7.214  0.6540  0.9404 -1.7991
 5921TIP3   OH239325   2.555   1.946   0.219  0.2967 -0.2370 -0.0092
 5921TIP3    H139326   2.580   2.037   0.234  0.2269  0.1268 -1.8395
 5921TIP3    H239327   2.461   1.949   0.205 -0.1320 -0.9675  2.2407
 5922TIP3   OH239328   1.364   2.239   2.280 -0.8429 -0.2986  0.4652
 5922TIP3    H139329   1.290   2.244   2.340 -1.1067  0.1739  0.1091
 5922TIP3    H239330   1.325   2.211   2.197 -0.6606  0.1821  0.2144
 5923TIP3   OH239331   1.110   2.432   7.929  0.8681 -0.3401 -0.2527
 5923TIP3    H139332   1.068   2.417   8.014 -2.3890  0.3147 -1.5664
 5923TIP3    H239333   1.160   2.352   7.913  1.9774 -0.2709  2.4381
 5924TIP3   OH239334   3.362   1.700   0.819 -0.1331  0.1324  0.2286
 5924TIP3    H139335   3.351   1.795   0.809 -0.6933  0.1814  1.2416
 5924TIP3    H239336   3.444   1.691   0.868  0.5360  0.0291 -0.8595
 5925TIP3   OH239337   4.410   2.726   7.784  0.6049  0.7653 -0.2776
 5925TIP3    H139338   4.502   2.705   7.804  0.8274  2.0634  0.1963
 5925TIP3    H239339   4.376   2.760   7.867 -0.5965 -0.5661 -0.1907
 5926TIP3   OH239340   1.027   4.582   7.292 -0.2968  0.0366  0.2733
 5926TIP3    H139341   0.984   4.664   7.267  0.3852  0.5182  0.6213
 5926TIP3    H239342   1.074   4.604   7.373  0.5471 -0.4784 -0.0669
 5927TIP3   OH239343   2.519   4.397   6.888  0.1175 -0.2835 -0.0107
 5927TIP3    H139344   2.436   4.370   6.928 -0.3451 -1.5679 -1.6821
 5927TIP3    H239345   2.501   4.394   6.794  2.0622 -0.6058 -0.4066
 5928TIP3   OH239346   0.404   3.708   1.046  0.1896 -0.2066 -0.4662
 5928TIP3    H139347   0.422   3.680   0.956  0.2392  1.4540 -1.0093
 5928TIP3    H239348   0.358   3.635   1.086 -0.2231 -0.7988 -1.9829
 5929TIP3   OH239349   1.106   1.718   0.532  0.1360  0.0713 -0.2022
 5929TIP3    H139350   1.077   1.627   0.533  0.1557  0.0674  0.4129
 5929TIP3    H239351   1.027   1.768   0.511  0.0389 -0.0573 -0.1423
 5930TIP3   OH239352   2.987   0.454   6.751  0.2993 -0.0756  0.5504
 5930TIP3    H139353   3.055   0.426   6.690  0.4103  2.3609 -0.5548
 5930TIP3    H239354   3.004   0.403   6.830  0.7607 -2.5985 -1.0559
 5931TIP3   OH239355   4.423   3.578   1.821  0.2377 -0.1373 -0.6897
 5931TIP3    H139356   4.406   3.653   1.879  1.3790  1.9230 -2.8567
 5931TIP3    H239357   4.349   3.519   1.837 -1.0077  1.6707  0.7488
 5932TIP3   OH239358   3.336   1.258   1.983 -0.1396 -0.7172  0.0269
 5932TIP3    H139359   3.339   1.294   2.071 -0.2978  1.3234 -0.7496
 5932TIP3    H239360   3.425   1.225   1.967  1.5279  3.5251 -0.7922
 5933TIP3   OH239361   3.121   0.318   6.258  0.0888  0.1010 -0.7505
 5933TIP3    H139362   3.181   0.373   6.207  0.0775  1.2728  0.4481
 5933TIP3    H239363   3.057   0.380   6.292  0.0476 -0.6670  0.5933
 5934TIP3   OH239364   1.074   3.910   6.666 -0.0709  0.4709 -0.6004
 5934TIP3    H139365   1.087   3.969   6.592  0.6611  1.0408 -0.0301
 5934TIP3    H239366   1.021   3.838   6.630 -2.1878  2.1118 -0.9947
 5935TIP3   OH239367   0.079   4.824   7.387 -0.3133  0.7354 -0.1682
 5935TIP3    H139368   0.165   4.847   7.423  0.2270 -0.5295 -0.5847
 5935TIP3    H239369   0.017   4.873   7.440  0.6568  1.5769  0.2287
 5936TIP3   OH239370   3.440   4.752   0.779  0.4435 -0.4316  0.3484
 5936TIP3    H139371   3.352   4.784   0.760 -0.5980 -2.5439  1.2741
 5936TIP3    H239372   3.486   4.829   0.813 -1.5953  0.3505  1.5592
 5937TIP3   OH239373   4.518   1.420   6.886  0.4780  0.2382  0.1451
 5937TIP3    H139374   4.510   1.487   6.819  1.3541  1.0744  0.8510
 5937TIP3    H239375   4.543   1.468   6.965  0.4135 -0.8381  0.8448
 5938TIP3   OH239376   1.739   5.763   1.465  0.3416  0.1629  0.5031
 5938TIP3    H139377   1.775   5.831   1.407  0.6805 -1.0121 -0.7087
 5938TIP3    H239378   1.712   5.693   1.406 -0.0470 -0.7497  1.7280
 5939TIP3   OH239379   1.663   0.937   8.298 -0.0190  0.1163  0.1844
 5939TIP3    H139380   1.600   0.879   8.343 -0.6996  0.0236 -0.8532
 5939TIP3    H239381   1.675   1.010   8.359  0.8076 -1.0442  1.4997
 5940TIP3   OH239382   2.917   4.385   2.115 -0.0845  0.1457 -0.3589
 5940TIP3    H139383   2.988   4.446   2.132 -1.0638  1.6763 -1.4161
 5940TIP3    H239384   2.925   4.318   2.182 -0.3493  2.6834  2.4237
 5941TIP3   OH239385   4.786   0.808   7.824 -0.0782 -0.4090 -0.3330
 5941TIP3    H139386   4.780   0.762   7.740  0.9596  0.2353 -0.7740
 5941TIP3    H239387   4.822   0.894   7.802  3.2230 -1.2723  1.0793
 5942TIP3   OH239388   4.677   1.255   0.210 -0.1928 -0.2448 -0.1411
 5942TIP3    H139389   4.650   1.163   0.216  1.5965 -0.7993 -0.1514
 5942TIP3    H239390   4.686   1.271   0.116  0.9546 -0.5209 -0.0871
 5943TIP3   OH239391   5.169   0.519   0.112 -0.0441 -0.0855 -0.3794
 5943TIP3    H139392   5.096   0.457   0.111  0.2323 -0.4583 -2.3799
 5943TIP3    H239393   5.247   0.464   0.114  0.1940  0.2669  0.0969
 5944TIP3   OH239394   1.752   5.618   5.868  0.1268  0.0287 -0.1518
 5944TIP3    H139395   1.658   5.633   5.870 -0.0041 -0.3850 -1.9118
 5944TIP3    H239396   1.776   5.622   5.775  1.7172 -0.5951  0.1893
 5945TIP3   OH239397   3.033   5.405   1.458 -0.1013  0.3978 -0.3996
 5945TIP3    H139398   3.054   5.323   1.412 -0.2304  0.8121 -1.2007
 5945TIP3    H239399   3.119   5.441   1.481 -0.0441 -0.7394  1.3929
 5946TIP3   OH239400   3.782   3.954   1.015  0.7642  0.1278  0.0687
 5946TIP3    H139401   3.722   3.904   0.959  1.7483  0.5847 -1.4370
 5946TIP3    H239402   3.862   3.902   1.017  0.5786 -0.1478  1.5294
 5947TIP3   OH239403   2.673   3.169   0.930 -0.5351  0.7530 -0.1946
 5947TIP3    H139404   2.643   3.133   0.847 -0.8643  0.6829 -0.0460
 5947TIP3    H239405   2.678   3.093   0.988 -0.6862  0.8618 -0.0397
 5948TIP3   OH239406   6.941   0.639   6.938  0.2476 -0.1327  0.0855
 5948TIP3    H139407   7.027   0.648   6.898 -0.0515 -1.5090 -0.9251
 5948TIP3    H239408   6.898   0.724   6.923  1.3269  0.4912  0.4270
 5949TIP3   OH239409   6.000   1.675   8.146  0.2245  0.3790  0.3722
 5949TIP3    H139410   5.938   1.720   8.088  1.2211  1.1234 -0.1384
 5949TIP3    H239411   6.065   1.637   8.087  1.2631  1.1585  0.9775
 5950TIP3   OH239412   5.860   7.000   1.349  0.1598 -0.2668 -0.1597
 5950TIP3    H139413   5.811   6.972   1.272  0.7278  0.1434 -0.6808
 5950TIP3    H239414   5.826   6.946   1.421 -0.8633 -0.1640 -0.5591
 5951TIP3   OH239415   3.069   0.150   0.308 -0.9088  0.0469  0.3810
 5951TIP3    H139416   3.073   0.228   0.252  0.6185 -1.0025 -1.0851
 5951TIP3    H239417   3.092   0.182   0.395 -1.5208  1.4342  0.0582
 5952TIP3   OH239418   6.898   4.425   7.719  0.6847 -0.6644 -0.5244
 5952TIP3    H139419   6.953   4.497   7.689 -1.3697  0.6647 -1.2433
 5952TIP3    H239420   6.819   4.430   7.666 -0.9226 -1.3869  1.6347
 5953TIP3   OH239421   4.576   4.393   2.132  0.1713  0.3497  0.2234
 5953TIP3    H139422   4.503   4.428   2.183  1.4598 -0.5554  2.9030
 5953TIP3    H239423   4.633   4.353   2.197  2.4009 -0.1756 -1.9059
 5954TIP3   OH239424   5.023   1.022   0.769 -0.0444 -0.6252  0.0309
 5954TIP3    H139425   5.087   1.070   0.823  0.2825  0.2210 -1.0724
 5954TIP3    H239426   5.048   1.042   0.679 -1.4307 -0.8780 -0.4327
 5955TIP3   OH239427   4.827   3.616   1.182  0.0418  0.3636  0.0425
 5955TIP3    H139428   4.848   3.696   1.133  1.6251  1.1798  1.9423
 5955TIP3    H239429   4.887   3.550   1.147  0.7753  0.7933  0.4731
 5956TIP3   OH239430   6.966   1.825   8.316  1.0369  0.4264 -0.1082
 5956TIP3    H139431   6.924   1.883   8.379 -2.1019 -0.3941 -1.2384
 5956TIP3    H239432   6.931   1.738   8.336  2.5109 -0.4134 -0.9579
 5957TIP3   OH239433   3.070   2.878   7.665  0.0381  0.1816  0.2684
 5957TIP3    H139434   3.146   2.863   7.721  0.9126  1.3306 -0.5509
 5957TIP3    H239435   3.108   2.894   7.578 -1.2362 -0.8601 -0.5152
 5958TIP3   OH239436   1.392   2.271   8.318  0.1425 -0.5200 -0.3999
 5958TIP3    H139437   1.310   2.223   8.330  0.5699 -1.1293  0.1504
 5958TIP3    H239438   1.395   2.332   8.392  1.0113 -1.7164  0.5843
 5959TIP3   OH239439   4.102   1.420   1.671  0.3272 -0.6400 -0.4838
 5959TIP3    H139440   4.182   1.384   1.710  0.3480 -1.1863 -1.0024
 5959TIP3    H239441   4.129   1.449   1.584  0.2199  0.2965 -0.2073
 5960TIP3   OH239442   3.648   0.875   1.901 -0.5084 -0.2852  0.2567
 5960TIP3    H139443   3.738   0.856   1.876  0.4599  0.3536  2.9167
 5960TIP3    H239444   3.604   0.790   1.902 -0.3810 -0.4652 -2.3265
 5961TIP3   OH239445   5.866   1.975   0.623  0.3159 -0.7607 -0.0580
 5961TIP3    H139446   5.816   1.893   0.631  1.1395 -1.2139  0.7296
 5961TIP3    H239447   5.941   1.951   0.569 -0.1825 -0.1418 -1.0455
 5962TIP3   OH239448   1.829   1.937   6.734  0.6408 -0.7859 -0.1631
 5962TIP3    H139449   1.789   1.879   6.800  0.1626  0.3260  0.5580
 5962TIP3    H239450   1.779   2.018   6.741  0.2588 -0.7922 -2.2573
 5963TIP3   OH239451   5.556   5.450   7.844 -0.1263 -0.2164 -0.0560
 5963TIP3    H139452   5.482   5.389   7.840 -0.1441 -0.1668 -0.6828
 5963TIP3    H239453   5.545   5.505   7.767 -0.4399  0.9784  0.8255
 5964TIP3   OH239454   6.129   4.683   7.281  0.2204 -0.5992  0.1569
 5964TIP3    H139455   6.221   4.695   7.255  0.0761  0.5448  0.1025
 5964TIP3    H239456   6.131   4.611   7.344  1.1415 -0.6628  0.0715
 5965TIP3   OH239457   3.259   1.503   6.682 -0.3282 -0.0908  0.4536
 5965TIP3    H139458   3.351   1.528   6.687 -0.3385 -0.1214  0.7506
 5965TIP3    H239459   3.212   1.587   6.675 -0.2186 -0.1005 -0.6546
 5966TIP3   OH239460   5.910   6.389   0.202  0.0260 -0.3240  0.3156
 5966TIP3    H139461   5.855   6.313   0.220 -1.2162  0.4486 -0.0813
 5966TIP3    H239462   5.937   6.379   0.110 -1.6370  0.5802 -0.3189
 5967TIP3   OH239463   5.167   1.233   0.322 -0.3869 -0.0420 -0.2256
 5967TIP3    H139464   5.140   1.291   0.251 -1.3663 -0.2518 -0.0493
 5967TIP3    H239465   5.262   1.235   0.320 -0.3960  1.1058 -0.6018
 5968TIP3   OH239466   0.371   6.052   1.169  0.2446 -0.0817 -0.0502
 5968TIP3    H139467   0.335   5.968   1.142  0.8225 -0.1645 -0.5972
 5968TIP3    H239468   0.366   6.051   1.265 -0.0053 -0.6226 -0.0681
 5969TIP3   OH239469   3.501   5.798   8.212 -0.0911 -0.3477 -0.6089
 5969TIP3    H139470   3.526   5.713   8.248  0.3948 -0.6009 -1.5236
 5969TIP3    H239471   3.465   5.846   8.287 -1.3165 -1.7098 -0.2836
 5970TIP3   OH239472   3.424   2.647   1.731  0.2333  0.3418  0.3700
 5970TIP3    H139473   3.479   2.690   1.796  1.3604  0.1308 -0.3931
 5970TIP3    H239474   3.471   2.662   1.648 -1.1192  0.5477 -0.3808
 5971TIP3   OH239475   5.639   5.250   2.303 -0.0731  0.0013 -0.1522
 5971TIP3    H139476   5.575   5.185   2.332 -1.4167  1.0585 -0.6478
 5971TIP3    H239477   5.591   5.304   2.240  1.7539 -0.1199 -1.7320
 5972TIP3   OH239478   6.087   3.795   2.426 -0.1053  0.0602  0.1290
 5972TIP3    H139479   6.092   3.835   2.512 -1.4498  0.5468  0.0023
 5972TIP3    H239480   6.035   3.856   2.374 -0.6522 -0.9741 -0.5817
 5973TIP3   OH239481   4.248   1.037   7.965  0.0591 -0.9326 -0.1241
 5973TIP3    H139482   4.341   1.040   7.942  0.1353 -1.0337  0.1579
 5973TIP3    H239483   4.214   1.123   7.940 -0.0722 -1.3479 -1.4337
 5974TIP3   OH239484   5.529   3.532   6.718 -0.0425  0.1722  0.0824
 5974TIP3    H139485   5.528   3.437   6.725  0.9423  0.1428 -0.0649
 5974TIP3    H239486   5.566   3.562   6.801  1.0266  0.3486 -0.4402
 5975TIP3   OH239487   1.149   4.936   6.763  0.1300  0.1717 -0.0845
 5975TIP3    H139488   1.114   5.012   6.810 -0.0731  0.2916 -0.4289
 5975TIP3    H239489   1.088   4.922   6.691 -0.9605 -1.5373  1.0924
 5976TIP3   OH239490   4.422   4.041   2.063 -0.3980  0.3987 -0.1758
 5976TIP3    H139491   4.334   4.053   2.025 -0.5356  0.4477  0.1599
 5976TIP3    H239492   4.429   4.109   2.129  0.1659  0.8399 -0.6822
 5977TIP3   OH239493   3.131   2.301   1.411 -0.1717 -0.3910  0.4503
 5977TIP3    H139494   3.165   2.375   1.460 -3.1629  0.3305  1.6744
 5977TIP3    H239495   3.071   2.340   1.346  0.6312 -1.5847 -1.0792
 5978TIP3   OH239496   6.300   3.542   5.781  0.2245 -0.2586 -0.3254
 5978TIP3    H139497   6.219   3.491   5.787  0.8554 -1.2175  0.4198
 5978TIP3    H239498   6.354   3.508   5.852  1.3887  0.1592 -0.9929
 5979TIP3   OH239499   5.124   3.496   7.325  0.0894  0.8437  0.0271
 5979TIP3    H139500   5.142   3.412   7.367 -0.9361  0.0858 -0.9709
 5979TIP3    H239501   5.040   3.483   7.280 -0.6219  2.7322  0.6983
 5980TIP3   OH239502   2.255   6.963   1.954  0.0820  0.0390  0.7162
 5980TIP3    H139503   2.320   6.931   2.015  0.1017  0.8691  1.1380
 5980TIP3    H239504   2.286   7.050   1.929 -0.3393  0.0306  0.1399
 5981TIP3   OH239505   6.704   2.382   7.591  0.7271 -0.4256  0.2391
 5981TIP3    H139506   6.720   2.469   7.555  0.1187 -0.7784 -0.9275
 5981TIP3    H239507   6.742   2.385   7.679  0.7851  0.9856  0.1838
 5982TIP3   OH239508   2.520   6.305   7.166 -0.1836  0.0910  0.4420
 5982TIP3    H139509   2.600   6.261   7.194 -0.9229 -0.1369  2.3267
 5982TIP3    H239510   2.500   6.367   7.237  0.3907  3.0000 -1.7449
 5983TIP3   OH239511   0.698   4.619   0.950  0.2956  0.7444 -0.0347
 5983TIP3    H139512   0.777   4.590   0.995 -0.0240 -0.2484 -0.0719
 5983TIP3    H239513   0.687   4.555   0.879  0.8636  2.3185 -1.6401
 5984TIP3   OH239514   2.897   4.536   8.087  0.4113 -0.3588 -0.4340
 5984TIP3    H139515   2.946   4.560   8.166  1.1445 -0.2359 -0.9230
 5984TIP3    H239516   2.870   4.619   8.049 -0.4098 -0.4282 -0.0398
 5985TIP3   OH239517   0.818   0.069   6.630 -0.2293  0.0429 -0.2111
 5985TIP3    H139518   0.739   0.086   6.579 -1.6523 -1.5605  1.3057
 5985TIP3    H239519   0.878   0.027   6.569 -0.6386  1.0311 -1.3189
 5986TIP3   OH239520   4.016   0.995   0.035 -0.0837  0.3069  0.0384
 5986TIP3    H139521   3.964   1.074   0.047 -0.7476  0.0406 -0.9587
 5986TIP3    H239522   3.961   0.938  -0.018  0.2760 -0.9401  0.9470
 5987TIP3   OH239523   5.208   5.595   0.217  0.9046 -0.1870 -0.1822
 5987TIP3    H139524   5.203   5.588   0.121 -0.7717 -0.1513 -0.1336
 5987TIP3    H239525   5.169   5.513   0.248  0.7509  0.1291  0.4642
 5988TIP3   OH239526   3.891   1.665   1.992  0.3447 -0.1741  0.3492
 5988TIP3    H139527   3.983   1.653   2.016  0.0100  2.1550  3.3692
 5988TIP3    H239528   3.887   1.754   1.956 -0.9639  0.6674  2.3824
 5989TIP3   OH239529   3.191   0.899   0.882  0.2028 -0.2153  0.4489
 5989TIP3    H139530   3.116   0.909   0.822 -0.9602 -1.3332  1.6363
 5989TIP3    H239531   3.264   0.938   0.835 -0.6833 -0.8888 -1.6462
 5990TIP3   OH239532   3.495   3.122   1.199 -0.4663 -0.8123  0.3206
 5990TIP3    H139533   3.539   3.056   1.144  0.0013 -1.4283  1.4028
 5990TIP3    H239534   3.404   3.118   1.171 -0.5533 -2.3065  0.7018
 5991TIP3   OH239535   1.108   3.474   6.919  0.0800  0.4135 -0.1593
 5991TIP3    H139536   1.078   3.545   6.976  1.4862  0.5088  0.5075
 5991TIP3    H239537   1.088   3.504   6.830 -0.4174  1.1157  0.1829
 5992TIP3   OH239538   4.752   6.812   0.523  0.3029 -0.0682 -0.3373
 5992TIP3    H139539   4.746   6.881   0.590 -0.3502  0.9495 -1.4139
 5992TIP3    H239540   4.826   6.839   0.468  0.3846 -0.5321 -0.4587
 5993TIP3   OH239541   0.458   6.495   6.552  0.3071  0.3713 -0.5470
 5993TIP3    H139542   0.552   6.504   6.533  0.2494 -0.6881 -1.4310
 5993TIP3    H239543   0.419   6.476   6.467 -0.5957 -0.0719 -0.0331
 5994TIP3   OH239544   1.685   4.512   6.874 -0.1914 -0.4461 -0.0910
 5994TIP3    H139545   1.780   4.521   6.871 -0.1470 -1.0671 -0.6687
 5994TIP3    H239546   1.667   4.425   6.838 -0.9375 -0.6129  0.6328
 5995TIP3   OH239547   0.918   5.643   7.126  0.2155  0.2372 -0.2121
 5995TIP3    H139548   0.942   5.735   7.116  0.0443  0.2267 -0.7356
 5995TIP3    H239549   0.895   5.614   7.038  2.1673 -0.8419 -0.4244
 5996TIP3   OH239550   3.211   0.928   0.180 -0.2092  0.3591 -0.0007
 5996TIP3    H139551   3.277   0.982   0.137  0.0095 -0.1548 -0.3168
 5996TIP3    H239552   3.261   0.875   0.242 -0.5876  1.5304  1.3660
 5997TIP3   OH239553   1.392   1.475   1.801  0.2492  0.0178 -0.1064
 5997TIP3    H139554   1.320   1.521   1.842  1.3469  0.5124  1.3201
 5997TIP3    H239555   1.465   1.481   1.863  1.1316 -1.6372 -0.8843
 5998TIP3   OH239556   3.329   6.079   7.442  0.3989  0.4452  0.2569
 5998TIP3    H139557   3.314   6.080   7.536  1.5042  0.0702  0.4545
 5998TIP3    H239558   3.412   6.031   7.431 -0.2264 -0.4406 -0.9696
 5999TIP3   OH239559   4.689   1.304   8.350  0.0244 -0.0488 -0.0916
 5999TIP3    H139560   4.778   1.284   8.321 -0.6084 -1.6132 -1.0401
 5999TIP3    H239561   4.633   1.243   8.302 -1.8562  2.5962 -1.5236
 6000TIP3   OH239562   0.572   0.138   7.827 -0.1494  0.2390 -0.5436
 6000TIP3    H139563   0.535   0.224   7.807 -2.1333 -0.6213 -0.8054
 6000TIP3    H239564   0.588   0.098   7.742 -1.1993 -0.4247 -0.4447
 6001TIP3   OH239565   6.950   5.660   0.634 -0.2017  0.4512 -0.3592
 6001TIP3    H139566   7.009   5.601   0.588  1.3557  1.6436  0.0274
 6001TIP3    H239567   6.940   5.735   0.575 -2.2034 -0.1584 -0.8734
 6002TIP3   OH239568   6.943   5.355   0.620 -0.0944  0.2531 -0.6511
 6002TIP3    H139569   6.964   5.264   0.640  0.6240  0.9250  2.1502
 6002TIP3    H239570   6.987   5.373   0.537 -0.4530 -1.9855 -1.3771
 6003TIP3   OH239571   3.491   2.054   0.614  0.3280  0.4114 -0.2699
 6003TIP3    H139572   3.412   2.026   0.659 -1.0308  0.4958 -2.4672
 6003TIP3    H239573   3.555   1.985   0.634 -0.6057 -0.1993  0.7190
 6004TIP3   OH239574   1.438   5.510   8.165  0.4970 -0.4905 -0.4128
 6004TIP3    H139575   1.442   5.602   8.191 -1.9249 -0.5644  0.4436
 6004TIP3    H239576   1.442   5.462   8.248 -0.1266 -1.0485 -0.6981
 6005TIP3   OH239577   0.424   3.593   0.300 -0.0965 -0.2390  0.1002
 6005TIP3    H139578   0.422   3.689   0.300 -1.0274 -0.2481 -0.8484
 6005TIP3    H239579   0.435   3.570   0.392  2.7429  0.7982  0.1255
 6006TIP3   OH239580   2.743   2.242   1.228 -0.0230  0.4265 -0.0596
 6006TIP3    H139581   2.662   2.192   1.217  0.5593 -0.7324  0.6207
 6006TIP3    H239582   2.738   2.311   1.162 -2.4222  1.5722  1.1826
 6007TIP3   OH239583   6.629   4.289   7.345 -0.3955  0.0982  0.4243
 6007TIP3    H139584   6.637   4.279   7.440  2.2689  0.5043  0.3212
 6007TIP3    H239585   6.718   4.309   7.316 -1.4258  1.5480 -1.9852
 6008TIP3   OH239586   1.102   1.581   8.170 -0.3092  0.0388 -0.4727
 6008TIP3    H139587   1.155   1.507   8.141  0.0294 -0.2245  0.7449
 6008TIP3    H239588   1.025   1.541   8.211 -0.5831  0.3847 -0.6390
 6009TIP3   OH239589   4.990   2.738   6.475 -0.1210 -0.5968  0.2452
 6009TIP3    H139590   5.051   2.667   6.456  1.9028  1.3390 -0.9787
 6009TIP3    H239591   5.039   2.798   6.531 -1.1925  0.6431 -0.0865
 6010TIP3   OH239592   3.683   5.005   8.168 -0.4112 -0.1630 -0.5158
 6010TIP3    H139593   3.686   4.964   8.254 -0.4633  0.7247 -0.0815
 6010TIP3    H239594   3.749   5.075   8.172 -1.6575  1.0593 -0.5727
 6011TIP3   OH239595   2.890   6.616   2.333 -0.6365 -0.0828 -0.0640
 6011TIP3    H139596   2.916   6.706   2.353 -1.7570  0.6315 -1.5619
 6011TIP3    H239597   2.803   6.607   2.371 -2.1467  0.7996 -2.9485
 6012TIP3   OH239598   6.468   5.893   8.137  0.0371  0.5632  0.3382
 6012TIP3    H139599   6.393   5.907   8.080  0.4058  1.0466 -0.0302
 6012TIP3    H239600   6.454   5.954   8.210 -0.3848  0.0135  0.7255
 6013TIP3   OH239601   6.741   6.722   0.533 -0.3178  0.0981 -0.5165
 6013TIP3    H139602   6.674   6.686   0.475  0.3351 -0.7631 -0.7637
 6013TIP3    H239603   6.804   6.762   0.474 -0.4530  0.6303 -0.3027
 6014TIP3   OH239604   6.489   0.069   7.126 -0.6720  0.0364  0.7134
 6014TIP3    H139605   6.442   0.137   7.173 -2.4008 -0.4902 -0.1746
 6014TIP3    H239606   6.555   0.117   7.075 -1.4464  0.9816  0.5733
 6015TIP3   OH239607   6.009   2.847   7.098  0.2206  0.2225 -0.4057
 6015TIP3    H139608   6.075   2.887   7.041  0.7501 -0.5731 -0.3659
 6015TIP3    H239609   6.059   2.802   7.165 -0.3767 -0.0279 -0.1237
 6016TIP3   OH239610   6.264   1.088   6.922 -0.3642  0.3431 -0.0468
 6016TIP3    H139611   6.174   1.089   6.891 -0.4667 -1.2448  0.0979
 6016TIP3    H239612   6.316   1.107   6.844 -0.8278  2.1549  0.0491
 6017TIP3   OH239613   0.074   2.787   6.989 -0.1597 -0.1488 -0.2126
 6017TIP3    H139614   0.033   2.812   6.906  1.9951 -0.9335 -1.5802
 6017TIP3    H239615   0.150   2.844   6.997 -0.6323  0.2974  1.5481
 6018TIP3   OH239616   1.305   4.928   1.300 -0.7459 -0.3801  0.0312
 6018TIP3    H139617   1.284   4.883   1.218 -1.4658  1.4824 -0.8541
 6018TIP3    H239618   1.227   4.915   1.354 -0.7431 -0.6388 -0.0252
 6019TIP3   OH239619   5.553   4.936   0.581 -0.2604 -0.0750 -0.0571
 6019TIP3    H139620   5.631   4.883   0.562  1.6068  2.2731  0.5011
 6019TIP3    H239621   5.490   4.874   0.617  2.6176 -1.6250  2.9329
 6020TIP3   OH239622   3.191   2.278   0.650  0.4129 -0.0224 -0.2836
 6020TIP3    H139623   3.190   2.340   0.722  0.0574  0.9983 -1.1402
 6020TIP3    H239624   3.103   2.283   0.613  0.3255 -1.1763 -0.2569
 6021TIP3   OH239625   0.232   1.587   1.721  0.3296 -0.2290 -0.3804
 6021TIP3    H139626   0.137   1.579   1.710  0.3705 -0.4053 -0.6120
 6021TIP3    H239627   0.265   1.497   1.716  0.4349 -0.2391  0.4087
 6022TIP3   OH239628   0.974   5.059   7.827  0.5684  0.1320 -0.0218
 6022TIP3    H139629   0.937   5.147   7.835 -0.0147 -0.1959  1.0600
 6022TIP3    H239630   0.977   5.026   7.917  1.0853 -0.8316 -0.3795
 6023TIP3   OH239631   5.058   4.820   6.658  1.1694 -0.1080  0.0124
 6023TIP3    H139632   5.077   4.744   6.712 -0.3309  0.1758  0.9938
 6023TIP3    H239633   4.962   4.822   6.652  1.0499  2.5378  1.2998
 6024TIP3   OH239634   2.358   4.794   8.356 -0.1110  0.9360  0.4633
 6024TIP3    H139635   2.299   4.821   8.427  1.6273  0.2277  2.2752
 6024TIP3    H239636   2.300   4.778   8.282 -1.8443  3.4378  1.1328
 6025TIP3   OH239637   2.963   5.928   0.328 -0.1697 -0.0196  0.2303
 6025TIP3    H139638   2.924   5.860   0.273 -0.6483  0.9310 -0.6437
 6025TIP3    H239639   2.899   6.000   0.326  0.4705  0.5855  0.8657
 6026TIP3   OH239640   5.230   5.400   6.660 -0.3972 -0.1859  0.9751
 6026TIP3    H139641   5.256   5.311   6.684 -0.2165  0.0091  1.5306
 6026TIP3    H239642   5.253   5.453   6.737  0.8713  0.5911  0.1078
 6027TIP3   OH239643   6.761   6.725   6.480  0.5256 -0.1851  0.7095
 6027TIP3    H139644   6.676   6.681   6.487  1.4035 -2.2935 -0.5655
 6027TIP3    H239645   6.804   6.707   6.563  0.2350 -0.3311  0.8298
 6028TIP3   OH239646   3.917   1.425   8.009  0.6950  0.2299  0.1752
 6028TIP3    H139647   3.915   1.520   7.996 -0.2115  0.1946 -0.0271
 6028TIP3    H239648   3.850   1.409   8.075  1.2643 -0.2126  0.6599
 6029TIP3   OH239649   2.420   6.413   1.163 -0.1002 -0.8147 -0.0501
 6029TIP3    H139650   2.384   6.422   1.251  1.9080  0.8961  0.6644
 6029TIP3    H239651   2.442   6.320   1.155  0.9340 -0.7604  1.7787
 6030TIP3   OH239652   4.533   0.911   0.937 -0.2934 -0.2498  0.0438
 6030TIP3    H139653   4.618   0.893   0.896 -0.2746 -0.4161  0.1547
 6030TIP3    H239654   4.514   0.832   0.988  0.4358  0.5450  1.6252
 6031TIP3   OH239655   6.036   2.732   7.971 -0.1146 -0.8706 -0.2501
 6031TIP3    H139656   6.077   2.807   7.929 -0.3582  0.3658  1.6098
 6031TIP3    H239657   6.110   2.681   8.006 -0.0380 -0.1796  0.6064
 6032TIP3   OH239658   5.913   1.722   6.691  0.5644  0.4940  0.2711
 6032TIP3    H139659   5.921   1.766   6.606 -1.0935  1.3045  0.4798
 6032TIP3    H239660   5.961   1.640   6.680 -1.6147 -0.5950 -2.3045
 6033TIP3   OH239661   0.489   4.397   0.247  0.7392  0.3511  0.0169
 6033TIP3    H139662   0.508   4.412   0.340  0.9556  0.0215  0.0275
 6033TIP3    H239663   0.572   4.366   0.211  0.4146 -0.4018 -0.0960
 6034TIP3   OH239664   5.767   2.714   0.263  0.3020 -0.6340  0.2582
 6034TIP3    H139665   5.685   2.761   0.273 -0.3159 -1.7146  0.3739
 6034TIP3    H239666   5.802   2.705   0.352  1.5004  1.4196  0.0660
 6035TIP3   OH239667   0.707   4.057   8.240  0.2968 -0.8707  0.0127
 6035TIP3    H139668   0.658   4.051   8.322 -0.9993 -3.8917 -0.8724
 6035TIP3    H239669   0.648   4.022   8.174  1.8148  0.2118 -2.0325
 6036TIP3   OH239670   3.721   3.513   1.426 -0.2633  0.0551 -0.0200
 6036TIP3    H139671   3.810   3.478   1.423  0.8351  2.6724 -0.4027
 6036TIP3    H239672   3.710   3.542   1.517 -0.8419 -0.4974  0.0901
 6037TIP3   OH239673   6.139   2.168   2.263 -0.6453  0.0961  0.0364
 6037TIP3    H139674   6.090   2.119   2.197  0.8014 -0.9751 -0.3147
 6037TIP3    H239675   6.212   2.207   2.215  0.3373 -0.5510  0.9337
 6038TIP3   OH239676   1.669   0.828   0.953 -0.0638  0.5517 -0.4249
 6038TIP3    H139677   1.746   0.832   0.896  0.8520 -1.0059  0.6276
 6038TIP3    H239678   1.638   0.739   0.945 -2.3030  1.3626 -1.4394
 6039TIP3   OH239679   0.896   0.055   0.940 -0.8910  0.0770 -0.6982
 6039TIP3    H139680   0.907   0.142   0.979  0.2101 -0.4518  0.2077
 6039TIP3    H239681   0.835   0.010   0.998 -0.7186 -0.0852 -0.6449
 6040TIP3   OH239682   2.831   5.362   7.139  0.4536  0.2309 -0.2028
 6040TIP3    H139683   2.894   5.290   7.136  0.6747  0.4279 -0.4295
 6040TIP3    H239684   2.861   5.417   7.212  0.2844  0.0934 -0.0291
 6041TIP3   OH239685   1.673   3.312   0.713  0.3866 -0.2129 -0.4764
 6041TIP3    H139686   1.689   3.342   0.623 -0.1186  2.2016  0.1626
 6041TIP3    H239687   1.731   3.367   0.766  1.0073 -1.9073  0.6812
 6042TIP3   OH239688   4.723   6.299   7.835 -0.4508 -0.0638 -0.0616
 6042TIP3    H139689   4.680   6.213   7.840 -0.8035  0.0983 -0.3117
 6042TIP3    H239690   4.657   6.361   7.864 -0.2145  0.1327  0.0576
 6043TIP3   OH239691   4.779   0.576   1.848 -0.3600 -0.6003 -0.8100
 6043TIP3    H139692   4.713   0.571   1.917 -0.8096 -1.2951 -1.2775
 6043TIP3    H239693   4.854   0.527   1.883  0.5869  1.5586  0.4077
 6044TIP3   OH239694   5.769   4.967   0.233 -0.8267  0.1904 -0.0772
 6044TIP3    H139695   5.767   5.039   0.296  1.9288 -0.1429  0.5075
 6044TIP3    H239696   5.748   5.009   0.149 -1.7869  1.1572  0.6177
 6045TIP3   OH239697   5.950   1.348   0.019 -0.2510 -0.5649  0.3926
 6045TIP3    H139698   6.037   1.318  -0.008 -0.5921 -0.0929 -1.4072
 6045TIP3    H239699   5.962   1.440   0.041 -0.8464  0.7809 -3.8262
 6046TIP3   OH239700   1.316   0.567   8.392  0.7494  0.4649  0.0348
 6046TIP3    H139701   1.318   0.493   8.452  0.8644  1.0888  0.8241
 6046TIP3    H239702   1.402   0.568   8.351  0.8045  0.2606  0.1492
 6047TIP3   OH239703   3.635   4.577   0.661  0.1615  0.5975  0.0164
 6047TIP3    H139704   3.569   4.509   0.644  0.3321 -0.8635  3.9584
 6047TIP3    H239705   3.584   4.656   0.676 -0.8144 -0.3527  2.2718
 6048TIP3   OH239706   3.451   0.879   2.088  0.2543  0.1965 -0.1917
 6048TIP3    H139707   3.445   0.808   2.153 -0.1495  0.3000 -0.1139
 6048TIP3    H239708   3.544   0.885   2.068  0.3528 -0.0077  0.1933
 6049TIP3   OH239709   0.272   6.724   0.018  0.3499 -0.3192 -0.5161
 6049TIP3    H139710   0.359   6.762   0.020 -0.0097  0.5663 -1.2850
 6049TIP3    H239711   0.213   6.797  -0.001 -0.6504 -0.7660  0.6636
 6050TIP3   OH239712   2.889   6.765   1.091  0.1076 -0.0884 -0.0025
 6050TIP3    H139713   2.914   6.823   1.019 -0.0836  0.3103  0.2459
 6050TIP3    H239714   2.806   6.726   1.063 -0.1857  0.3938  0.1776
 6051TIP3   OH239715   5.998   1.311   1.385 -0.4712 -0.1286  0.5487
 6051TIP3    H139716   5.961   1.399   1.385  2.5146  1.2326 -0.1792
 6051TIP3    H239717   6.028   1.298   1.475 -0.0981 -0.0326  0.4377
 6052TIP3   OH239718   2.001   5.535   1.303  0.1129 -0.8125  0.2159
 6052TIP3    H139719   2.069   5.470   1.284  1.1125 -0.2548  1.7192
 6052TIP3    H239720   2.049   5.617   1.314 -0.8577 -0.3080  0.7707
 6053TIP3   OH239721   2.887   1.343   6.402 -0.1926  0.3780  0.7992
 6053TIP3    H139722   2.829   1.400   6.352  0.3453  1.2417  1.1313
 6053TIP3    H239723   2.855   1.255   6.385 -0.6457  0.7278 -0.2476
 6054TIP3   OH239724   3.141   1.399   7.107  0.0982 -0.0671 -0.0323
 6054TIP3    H139725   3.095   1.423   7.027  1.5794 -0.2556 -0.9913
 6054TIP3    H239726   3.115   1.465   7.171 -0.3068  0.7124 -0.9728
 6055TIP3   OH239727   2.627   1.983   0.814  0.2557  0.1034  0.3874
 6055TIP3    H139728   2.688   1.993   0.887 -1.1006  2.3001  1.3392
 6055TIP3    H239729   2.565   1.916   0.843 -0.1176  0.7717  1.1873
 6056TIP3   OH239730   2.394   4.966   2.048  0.0581  0.1621 -0.4230
 6056TIP3    H139731   2.311   5.012   2.063  0.8251  1.5203 -0.1726
 6056TIP3    H239732   2.423   4.939   2.136 -0.7380 -1.4884 -0.6340
 6057TIP3   OH239733   2.221   4.809   1.053 -0.4829 -0.7530  0.1474
 6057TIP3    H139734   2.199   4.896   1.084 -0.3571 -0.2970 -1.0166
 6057TIP3    H239735   2.178   4.801   0.968  2.1725 -0.5354 -1.3368
 6058TIP3   OH239736   1.336   6.875   6.464 -0.3122 -0.2975  0.2509
 6058TIP3    H139737   1.382   6.827   6.395 -0.7750 -1.0777  0.4745
 6058TIP3    H239738   1.244   6.874   6.436 -0.4046 -0.0406  0.5500
 6059TIP3   OH239739   2.519   2.666   1.111  0.6861 -0.0578  0.4217
 6059TIP3    H139740   2.431   2.680   1.077  1.2297  0.5294 -0.7902
 6059TIP3    H239741   2.548   2.753   1.139  0.5784 -0.3893  1.6053
 6060TIP3   OH239742   0.136   5.109   6.144 -0.2102  0.1687  0.2076
 6060TIP3    H139743   0.130   5.022   6.183  1.2710 -1.1092 -2.1578
 6060TIP3    H239744   0.053   5.119   6.096  0.3010 -0.7362 -0.9198
 6061TIP3   OH239745   1.034   3.532   6.192  0.1106 -0.1951  0.9787
 6061TIP3    H139746   0.943   3.511   6.170  0.4598 -1.6567  0.8599
 6061TIP3    H239747   1.086   3.486   6.127  0.9567  0.5673  1.0952
 6062TIP3   OH239748   0.326   5.801   7.434  0.3548 -0.2129  0.5803
 6062TIP3    H139749   0.267   5.728   7.456  0.9685 -0.2984  2.0107
 6062TIP3    H239750   0.411   5.773   7.466  0.9165  0.4931 -0.2638
 6063TIP3   OH239751   2.500   0.735   0.050 -0.4163  0.2823 -0.7109
 6063TIP3    H139752   2.521   0.642   0.051 -0.5055  0.2479  0.9059
 6063TIP3    H239753   2.576   0.777   0.089  0.2959  1.0918 -2.8324
 6064TIP3   OH239754   6.416   6.028   6.749 -0.0089 -1.0044  0.0862
 6064TIP3    H139755   6.397   6.121   6.746 -1.3982 -1.2772 -2.6878
 6064TIP3    H239756   6.330   5.986   6.758  0.2336 -2.0420 -1.8943
 6065TIP3   OH239757   0.652   4.487   7.860  0.6139  0.1380  0.1992
 6065TIP3    H139758   0.644   4.582   7.855 -0.4222  0.0127 -1.1888
 6065TIP3    H239759   0.744   4.470   7.841  1.9953  1.0152  4.7866
 6066TIP3   OH239760   0.899   6.812   0.133  0.5001  0.0136 -0.3759
 6066TIP3    H139761   0.867   6.900   0.115 -0.7140 -0.1773  0.7576
 6066TIP3    H239762   0.943   6.820   0.217 -1.7782 -0.9201  0.9888
 6067TIP3   OH239763   2.938   0.863   0.483  0.2576  0.0298 -0.4625
 6067TIP3    H139764   2.938   0.913   0.401 -0.2712  0.6985 -0.0732
 6067TIP3    H239765   2.924   0.772   0.456  0.4210  0.1997 -1.1359
 6068TIP3   OH239766   1.838   4.872   7.990  0.0756  0.2511  0.0861
 6068TIP3    H139767   1.876   4.904   7.908  0.8545 -0.4887  0.1472
 6068TIP3    H239768   1.896   4.905   8.059  0.0026  0.0250  0.2597
 6069TIP3   OH239769   6.151   1.805   0.529 -0.3311 -0.7272  0.2405
 6069TIP3    H139770   6.126   1.813   0.437 -0.6390  0.1866  0.3877
 6069TIP3    H239771   6.166   1.711   0.542  0.9548 -0.7352 -1.0479
 6070TIP3   OH239772   0.467   5.198   0.487 -0.1849 -0.5706  0.2492
 6070TIP3    H139773   0.395   5.151   0.529  0.9022 -2.3220  0.2703
 6070TIP3    H239774   0.537   5.197   0.553 -0.0480  0.9170  0.1524
 6071TIP3   OH239775   1.246   2.471   6.900  0.2999  0.3160  0.1636
 6071TIP3    H139776   1.281   2.522   6.826 -1.0124  0.3672 -0.4396
 6071TIP3    H239777   1.178   2.526   6.937  0.1674 -0.2055  0.7117
 6072TIP3   OH239778   4.914   1.286   6.949 -0.1021  1.2498  0.1202
 6072TIP3    H139779   4.851   1.221   6.982  0.3496  0.6531 -0.1617
 6072TIP3    H239780   4.884   1.306   6.860  1.8424 -1.4930 -1.3174
 6073TIP3   OH239781   1.886   5.956   8.160 -0.2435 -0.1984  0.3622
 6073TIP3    H139782   1.939   5.970   8.082 -0.7829 -1.1126 -0.1935
 6073TIP3    H239783   1.889   5.862   8.175  1.8505  0.1410  2.9175
 6074TIP3   OH239784   1.639   2.951   0.067  0.0124  0.3478  0.5092
 6074TIP3    H139785   1.562   2.973   0.119 -0.6710 -2.4704  0.8529
 6074TIP3    H239786   1.607   2.948  -0.023 -1.4350 -4.3209  0.9053
 6075TIP3   OH239787   5.123   2.746   6.078 -0.1911  0.3044  0.1282
 6075TIP3    H139788   5.161   2.716   6.160  0.2500 -0.8782 -0.4844
 6075TIP3    H239789   5.190   2.800   6.038 -0.2856  0.6230  0.3980
 6076TIP3   OH239790   6.631   5.270   7.783 -0.4296 -0.4776 -0.0644
 6076TIP3    H139791   6.664   5.182   7.767 -0.7828 -0.4574 -0.9742
 6076TIP3    H239792   6.588   5.295   7.701 -1.4899  0.0271  0.6257
 6077TIP3   OH239793   6.857   3.522   6.958  1.0332  0.1127  0.6777
 6077TIP3    H139794   6.902   3.438   6.953  0.4310 -0.1426 -1.8706
 6077TIP3    H239795   6.765   3.499   6.974  0.8745  0.2382  0.0134
 6078TIP3   OH239796   3.074   2.456   1.910  0.4114 -0.0754  0.1859
 6078TIP3    H139797   3.061   2.517   1.837  0.4009  0.1841  0.4043
 6078TIP3    H239798   3.067   2.510   1.988  0.3501 -0.3679  0.3836
 6079TIP3   OH239799   1.503   3.096   6.826 -0.1244  0.2138  0.3291
 6079TIP3    H139800   1.575   3.124   6.769 -1.2200  0.0159 -1.2040
 6079TIP3    H239801   1.458   3.177   6.850  0.4638  0.3178  1.1180
 6080TIP3   OH239802   4.156   3.902   8.173 -0.7499 -0.0069 -0.0258
 6080TIP3    H139803   4.197   3.988   8.161 -1.1468  0.2717  0.5572
 6080TIP3    H239804   4.229   3.842   8.187 -0.4239  0.1045 -1.1441
 6081TIP3   OH239805   0.754   0.515   8.262 -0.0670 -0.0521 -0.3998
 6081TIP3    H139806   0.668   0.504   8.221  0.0383 -0.1065 -0.6060
 6081TIP3    H239807   0.815   0.476   8.200  0.1671  0.4875 -0.5093
 6082TIP3   OH239808   1.266   3.718   6.513  0.1988  0.2626  0.9188
 6082TIP3    H139809   1.284   3.660   6.440 -2.5741 -2.3337  2.0718
 6082TIP3    H239810   1.191   3.770   6.484 -1.1893 -1.0756  1.9270
 6083TIP3   OH239811   3.287   3.309   8.165 -0.2744 -0.0994  0.0121
 6083TIP3    H139812   3.251   3.247   8.101  1.0944  0.7201 -1.6494
 6083TIP3    H239813   3.330   3.253   8.230  1.8524 -0.9846 -2.0011
 6084TIP3   OH239814   4.268   4.752   0.203 -0.1199 -0.3833  1.2621
 6084TIP3    H139815   4.297   4.798   0.281 -0.8423 -1.1319  1.9853
 6084TIP3    H239816   4.178   4.725   0.221 -1.2558  1.6437 -0.8265
 6085TIP3   OH239817   3.466   3.760   7.592  0.0073 -0.6830 -0.2812
 6085TIP3    H139818   3.377   3.745   7.624  0.7540 -0.0719  2.3170
 6085TIP3    H239819   3.492   3.676   7.555 -2.2698 -0.3601 -2.9753
 6086TIP3   OH239820   1.331   6.302   2.256  0.6065  0.2021 -0.1878
 6086TIP3    H139821   1.343   6.208   2.240 -1.1094 -0.1316  0.2175
 6086TIP3    H239822   1.398   6.345   2.203  0.0488 -1.1719 -2.1152
 6087TIP3   OH239823   0.602   5.785   7.547  0.3835  0.5669 -0.3419
 6087TIP3    H139824   0.615   5.848   7.618  3.0262 -0.9948  0.7353
 6087TIP3    H239825   0.671   5.806   7.484  0.2816 -0.2190 -0.7330
 6088TIP3   OH239826   5.623   6.214   7.582  0.3167  0.1995 -0.0104
 6088TIP3    H139827   5.529   6.225   7.567  0.5980  0.5692 -1.7478
 6088TIP3    H239828   5.659   6.302   7.573  0.7184  0.2552  1.8073
 6089TIP3   OH239829   6.172   5.411   7.110 -0.1286  0.0130  0.4187
 6089TIP3    H139830   6.120   5.421   7.030  0.3293 -0.1917  0.0855
 6089TIP3    H239831   6.254   5.458   7.091 -0.4192  0.8288  1.1569
 6090TIP3   OH239832   3.661   4.970   0.608 -0.2115  0.2672  0.2386
 6090TIP3    H139833   3.659   4.939   0.699 -1.4188 -0.4128 -0.0017
 6090TIP3    H239834   3.730   5.037   0.607  0.6989 -0.6182  1.3556
 6091TIP3   OH239835   5.101   2.692   1.223  0.7817 -0.1224  0.2583
 6091TIP3    H139836   5.124   2.663   1.311  1.7752 -0.1175  0.0131
 6091TIP3    H239837   5.057   2.617   1.184 -0.8254  0.3057  1.1702
 6092TIP3   OH239838   1.951   2.595   1.139  0.1124  0.3144 -0.1831
 6092TIP3    H139839   1.981   2.526   1.080  1.7444  0.0333  0.9156
 6092TIP3    H239840   1.952   2.674   1.086  2.1485  0.1785 -0.4202
 6093TIP3   OH239841   5.544   4.223   0.442  0.2567  0.2476 -0.2287
 6093TIP3    H139842   5.539   4.260   0.354  1.5564 -1.3513 -1.0126
 6093TIP3    H239843   5.487   4.280   0.494  0.0853  1.7145 -1.9061
 6094TIP3   OH239844   0.893   4.121   0.833 -0.3572 -0.2421  0.1655
 6094TIP3    H139845   0.824   4.064   0.867 -0.4512  0.0057  0.3986
 6094TIP3    H239846   0.884   4.203   0.883 -0.0728 -0.1079  0.0049
 6095TIP3   OH239847   0.741   1.872   7.453 -0.3623 -0.4500  0.3022
 6095TIP3    H139848   0.696   1.934   7.511 -1.3273 -1.0867  0.2588
 6095TIP3    H239849   0.736   1.913   7.366 -0.8191 -0.4882  0.3077
 6096TIP3   OH239850   5.189   0.069   7.181 -0.7812  0.5076  0.2892
 6096TIP3    H139851   5.188   0.159   7.216 -2.1122  0.0199  1.5959
 6096TIP3    H239852   5.181   0.080   7.087  2.8329  1.8808 -0.0079
 6097TIP3   OH239853   6.040   5.181   6.495 -0.8904 -0.0478  0.2225
 6097TIP3    H139854   6.022   5.186   6.401  1.5328 -0.1280 -0.3041
 6097TIP3    H239855   5.965   5.135   6.531 -1.3773 -0.9786 -1.8497
 6098TIP3   OH239856   6.034   6.501   7.999  0.1225  0.4123  0.4694
 6098TIP3    H139857   6.020   6.493   8.093  2.0244  1.1180  0.8518
 6098TIP3    H239858   6.080   6.420   7.975  0.5932  0.7216  0.3387
 6099TIP3   OH239859   5.368   5.713   1.299 -0.0638 -0.1696  0.5118
 6099TIP3    H139860   5.351   5.788   1.241 -2.3478  0.0250  1.3354
 6099TIP3    H239861   5.281   5.685   1.327  0.8463 -2.1277  1.5233
 6100TIP3   OH239862   6.534   5.339   0.697 -0.1780 -0.3609  0.0436
 6100TIP3    H139863   6.591   5.379   0.632  1.2307 -2.3715 -0.0303
 6100TIP3    H239864   6.588   5.330   0.775 -0.9640 -0.6309  0.5734
 6101TIP3   OH239865   6.108   0.839   7.344 -0.1832  0.0116 -0.3964
 6101TIP3    H139866   6.127   0.747   7.329 -2.5612 -0.6374  0.1139
 6101TIP3    H239867   6.194   0.881   7.352  0.9911 -1.8004 -2.4729
 6102TIP3   OH239868   5.303   0.828   6.613  0.6994 -0.6171  0.0016
 6102TIP3    H139869   5.289   0.914   6.650 -0.9105 -0.1601 -1.5680
 6102TIP3    H239870   5.390   0.833   6.572  1.9443 -0.7482  2.4631
 6103TIP3   OH239871   2.031   6.886   1.594 -0.0755  0.1643  0.3710
 6103TIP3    H139872   1.950   6.933   1.610  0.5707  1.5873 -0.3781
 6103TIP3    H239873   2.100   6.952   1.604  1.1454 -1.3051  2.4677
 6104TIP3   OH239874   4.537   3.950   7.581  0.3706  0.8446  0.4870
 6104TIP3    H139875   4.466   4.013   7.566  0.3180  0.9095  0.9908
 6104TIP3    H239876   4.529   3.887   7.509  0.4377  1.4229 -0.0345
 6105TIP3   OH239877   0.491   0.555   1.572  0.4702 -0.2542  0.4121
 6105TIP3    H139878   0.503   0.502   1.651 -2.6626  2.0352  2.6609
 6105TIP3    H239879   0.514   0.644   1.599 -1.2841  0.6904 -0.9849
 6106TIP3   OH239880   0.414   2.846   8.159  0.1051  0.0862 -0.4369
 6106TIP3    H139881   0.368   2.775   8.204 -1.7332  1.4988  0.0066
 6106TIP3    H239882   0.387   2.838   8.068 -2.4216  1.8076  0.0445
 6107TIP3   OH239883   1.821   3.678   6.978 -0.4720  0.0851  0.1102
 6107TIP3    H139884   1.797   3.728   6.900 -0.1926 -1.2895 -0.9025
 6107TIP3    H239885   1.738   3.641   7.009 -0.3323 -0.9564 -0.7091
 6108TIP3   OH239886   4.958   4.033   7.522  0.1259 -0.3413  0.1087
 6108TIP3    H139887   4.934   3.944   7.498  0.7734 -0.1456 -1.3878
 6108TIP3    H239888   4.875   4.080   7.527 -0.1462 -0.7863 -0.1600
 6109TIP3   OH239889   0.831   0.252   0.548 -0.4112  0.1718  0.0733
 6109TIP3    H139890   0.861   0.190   0.615 -0.8178  0.4838  0.5469
 6109TIP3    H239891   0.817   0.334   0.595  0.1634  0.6419 -0.5611
 6110TIP3   OH239892   4.866   3.335   1.415 -0.6421  0.0943  0.0517
 6110TIP3    H139893   4.790   3.393   1.411 -1.3672 -0.6905  1.5859
 6110TIP3    H239894   4.844   3.272   1.484  0.2954 -1.7491 -1.2764
 6111TIP3   OH239895   1.642   5.468   6.572 -0.0250  0.0535 -0.3540
 6111TIP3    H139896   1.593   5.411   6.513  0.0164 -0.8691  0.4936
 6111TIP3    H239897   1.592   5.467   6.654  1.3887 -0.9252  0.5341
 6112TIP3   OH239898   6.488   0.966   7.357  0.0492  0.0289 -0.4910
 6112TIP3    H139899   6.419   0.965   7.291 -1.5982  1.2033  1.1256
 6112TIP3    H239900   6.442   0.966   7.441  2.0457 -0.2337  0.6849
 6113TIP3   OH239901   0.935   5.045   1.263  0.1574  0.3126 -0.2642
 6113TIP3    H139902   0.996   5.118   1.262  0.5275  0.0091  0.0343
 6113TIP3    H239903   0.871   5.066   1.194  0.2813  0.8928 -0.2029
 6114TIP3   OH239904   6.969   1.383   1.580  0.2842 -0.2025  0.2556
 6114TIP3    H139905   7.059   1.354   1.596 -0.0052 -0.7006  1.0568
 6114TIP3    H239906   6.914   1.313   1.616 -0.4302  0.8737  1.3529
 6115TIP3   OH239907   0.145   5.640   0.307 -0.3466 -0.0361 -0.1444
 6115TIP3    H139908   0.133   5.730   0.278 -0.0798  0.0703  0.0732
 6115TIP3    H239909   0.226   5.612   0.265 -0.3251 -0.1119 -0.0520
 6116TIP3   OH239910   1.596   6.633   0.793 -0.0407 -0.0900 -0.0088
 6116TIP3    H139911   1.595   6.605   0.884 -0.3695  0.1434  0.0573
 6116TIP3    H239912   1.680   6.677   0.782  0.4958 -1.1138 -0.1164
 6117TIP3   OH239913   1.055   6.650   0.888 -0.3829  0.4049 -0.5315
 6117TIP3    H139914   1.098   6.569   0.862 -0.5799  0.1584 -0.0840
 6117TIP3    H239915   1.127   6.709   0.909 -0.2639 -0.1491  0.6596
 6118TIP3   OH239916   2.490   6.727   6.362  0.0564  0.3366 -0.4564
 6118TIP3    H139917   2.480   6.808   6.311  1.1294  1.0025  0.3291
 6118TIP3    H239918   2.565   6.683   6.322  0.7593  0.7510  0.3781
 6119TIP3   OH239919   5.499   3.604   6.300  0.5719 -0.2341  0.4039
 6119TIP3    H139920   5.514   3.538   6.368 -0.5593 -0.2873  0.6183
 6119TIP3    H239921   5.581   3.607   6.251  0.5389 -2.0297  0.1813
 6120TIP3   OH239922   6.311   1.814   7.377  0.4939  0.1813  0.4765
 6120TIP3    H139923   6.262   1.731   7.373  0.6301  0.1382 -1.8601
 6120TIP3    H239924   6.398   1.788   7.407  0.8839 -0.7713 -1.3126
 6121TIP3   OH239925   3.074   5.180   0.430 -0.2044 -0.2849 -0.4055
 6121TIP3    H139926   3.031   5.120   0.369 -0.0470  0.4202 -1.2400
 6121TIP3    H239927   3.145   5.129   0.468 -0.2494 -0.7115 -0.8861
 6122TIP3   OH239928   3.848   1.161   1.902  0.5008 -0.1606 -0.0775
 6122TIP3    H139929   3.903   1.083   1.912 -0.9157 -0.9982  1.6944
 6122TIP3    H239930   3.858   1.185   1.810  1.6279 -1.9329 -0.4752
 6123TIP3   OH239931   4.144   5.768   7.142  0.5131  0.1196 -0.2207
 6123TIP3    H139932   4.079   5.824   7.100 -0.0769  0.7206  1.3854
 6123TIP3    H239933   4.217   5.827   7.161  1.2001 -0.3695 -1.2715
 6124TIP3   OH239934   5.441   3.046   6.765  0.4702 -0.1879 -0.7008
 6124TIP3    H139935   5.516   3.021   6.819 -0.5057 -1.8944 -0.0442
 6124TIP3    H239936   5.473   3.040   6.675  0.9418 -1.6675 -0.4626
 6125TIP3   OH239937   1.852   6.724   0.782  0.1325  0.7299 -0.5243
 6125TIP3    H139938   1.876   6.732   0.690 -0.4090  1.4619 -0.6160
 6125TIP3    H239939   1.928   6.760   0.829 -0.2000  1.8015 -0.7600
 6126TIP3   OH239940   2.685   4.396   7.866 -0.8117 -0.0155 -0.0870
 6126TIP3    H139941   2.728   4.447   7.934 -0.1555  0.6366 -0.9893
 6126TIP3    H239942   2.723   4.308   7.874  1.0456  0.6453 -1.1468
 6127TIP3   OH239943   5.815   6.807   7.911 -0.2130  0.2945 -0.5532
 6127TIP3    H139944   5.833   6.725   7.864 -0.4148  0.7902 -1.5215
 6127TIP3    H239945   5.784   6.867   7.843  1.0672  1.5467 -0.0699
 6128TIP3   OH239946   6.719   2.864   1.023  0.3794  0.3552 -0.3360
 6128TIP3    H139947   6.749   2.952   1.000  0.0576  0.4422 -0.4295
 6128TIP3    H239948   6.628   2.876   1.050  0.2514  0.0144 -0.6114
 6129TIP3   OH239949   3.498   0.418   7.950  0.0646  0.3828  0.2533
 6129TIP3    H139950   3.453   0.335   7.936 -0.3355  0.5312  0.6349
 6129TIP3    H239951   3.518   0.450   7.862  1.3502 -0.7186  0.1297
 6130TIP3   OH239952   6.614   6.265   6.849  0.3069  0.2533  0.5425
 6130TIP3    H139953   6.628   6.345   6.899  1.0684  0.7149 -0.3946
 6130TIP3    H239954   6.519   6.263   6.833  0.2730  0.9027  0.6592
 6131TIP3   OH239955   4.825   6.941   1.275 -0.2508 -0.2419 -0.1312
 6131TIP3    H139956   4.919   6.951   1.292  0.1681 -2.8155 -0.4320
 6131TIP3    H239957   4.817   6.955   1.180  0.1787 -1.6157 -0.4081
 6132TIP3   OH239958   6.802   2.676   1.198 -0.4210  0.1190  0.6043
 6132TIP3    H139959   6.886   2.634   1.179 -0.2378  0.8139 -0.1880
 6132TIP3    H239960   6.785   2.731   1.122 -0.5405  1.6680  1.7071
 6133TIP3   OH239961   1.242   6.185   6.364  0.2186 -0.9346  0.0841
 6133TIP3    H139962   1.325   6.148   6.332  1.4330  0.0514  1.9214
 6133TIP3    H239963   1.193   6.109   6.396  0.1564 -1.5847 -1.4472
 6134TIP3   OH239964   3.813   1.165   7.797 -0.4433  0.3868  0.4477
 6134TIP3    H139965   3.865   1.214   7.860 -0.2530  0.3980  0.2822
 6134TIP3    H239966   3.735   1.219   7.781  0.4072  1.3157 -0.7945
 6135TIP3   OH239967   0.152   2.691   0.903 -0.0084 -0.5691 -0.3168
 6135TIP3    H139968   0.223   2.720   0.959 -1.0227 -1.0700  1.3030
 6135TIP3    H239969   0.133   2.766   0.847  1.7271 -0.4155 -0.7502
 6136TIP3   OH239970   3.995   6.908   7.157  0.4046 -0.1682 -0.3159
 6136TIP3    H139971   3.914   6.889   7.109 -1.0857  0.1919  1.9220
 6136TIP3    H239972   4.037   6.823   7.169 -0.6968 -0.6564  0.2429
 6137TIP3   OH239973   3.900   3.791   0.297 -0.8810 -0.2556 -0.1175
 6137TIP3    H139974   3.892   3.883   0.273 -0.9162 -0.2579 -0.1135
 6137TIP3    H239975   3.918   3.746   0.215  2.1409  0.1189  0.2254
 6138TIP3   OH239976   5.663   5.781   7.296  0.1839  0.1797  0.2171
 6138TIP3    H139977   5.580   5.828   7.290  0.9057  1.3213 -3.1500
 6138TIP3    H239978   5.716   5.833   7.355 -0.4623  1.2557 -0.1172
 6139TIP3   OH239979   4.027   4.925   7.867 -0.1639 -0.1467 -1.0421
 6139TIP3    H139980   4.036   4.860   7.798 -2.4718 -1.7366  0.0149
 6139TIP3    H239981   3.934   4.924   7.890  0.5679 -0.2849  2.5914
 6140TIP3   OH239982   2.876   0.361   1.402 -0.1787 -0.3922  0.1792
 6140TIP3    H139983   2.937   0.331   1.470 -0.6073 -3.2045 -0.5253
 6140TIP3    H239984   2.912   0.444   1.372  1.7124 -0.5733  1.7362
 6141TIP3   OH239985   5.467   5.576   0.401  0.1948 -0.4589  0.4884
 6141TIP3    H139986   5.517   5.636   0.456  0.0768 -1.2325  1.4550
 6141TIP3    H239987   5.382   5.568   0.444 -0.7425  0.6683 -1.0156
 6142TIP3   OH239988   1.060   2.860   0.324  0.5951 -0.3754  0.9670
 6142TIP3    H139989   1.013   2.777   0.318  0.5227 -0.2873  0.2632
 6142TIP3    H239990   1.076   2.872   0.418  0.9417 -1.3668  1.0422
 6143TIP3   OH239991   3.309   1.790   7.254 -0.2600 -0.1145  0.4339
 6143TIP3    H139992   3.382   1.839   7.291 -0.0451 -0.8994  1.0825
 6143TIP3    H239993   3.347   1.704   7.233 -1.5018 -1.3735  2.9753
 6144TIP3   OH239994   1.121   2.712   6.799 -0.0482 -0.3973  0.0414
 6144TIP3    H139995   1.206   2.750   6.778 -1.2188  1.4055 -1.8559
 6144TIP3    H239996   1.060   2.785   6.793 -1.8109 -1.7243  0.8921
 6145TIP3   OH239997   1.628   5.398   0.689  0.0234 -0.3802  0.1710
 6145TIP3    H139998   1.601   5.313   0.656  0.1590 -0.1216 -0.6359
 6145TIP3    H239999   1.610   5.394   0.783 -0.9790 -0.9104 -0.0233
 6146TIP3   OH240000   2.789   3.513   0.364  0.3333  0.1856  0.7136
 6146TIP3    H140001   2.737   3.586   0.330  1.0702 -0.2205 -1.4268
 6146TIP3    H240002   2.869   3.555   0.396  0.9963  0.3149 -1.0183
 6147TIP3   OH240003   6.017   3.616   1.135 -0.2164 -0.4844 -0.5991
 6147TIP3    H140004   6.000   3.710   1.144 -1.2573 -0.7723  0.7639
 6147TIP3    H240005   6.087   3.611   1.069 -1.7934  1.0968 -2.5361
 6148TIP3   OH240006   4.615   5.830   6.934 -0.1600  0.1645 -0.3528
 6148TIP3    H140007   4.639   5.802   6.846  1.2762  0.1561  0.0186
 6148TIP3    H240008   4.575   5.916   6.922  0.0915  0.1933 -1.0164
 6149TIP3   OH240009   0.383   4.619   1.543  0.3158  0.2056 -0.3449
 6149TIP3    H140010   0.442   4.576   1.481  0.2875  2.1071 -1.7892
 6149TIP3    H240011   0.441   4.668   1.602  0.2548  1.1045 -1.0113
 6150TIP3   OH240012   3.243   4.492   0.498  0.7529 -0.0939  0.2013
 6150TIP3    H140013   3.278   4.570   0.456  2.3382 -0.5061  0.6831
 6150TIP3    H240014   3.205   4.441   0.426  0.3043  0.8015 -0.2035
 6151TIP3   OH240015   1.884   1.609   1.309  0.1648  0.3850 -0.3918
 6151TIP3    H140016   1.808   1.665   1.300  1.1378  1.8178 -0.0113
 6151TIP3    H240017   1.927   1.640   1.389  0.3717 -1.3628  0.2222
 6152TIP3   OH240018   2.036   5.157   7.413  0.6215 -0.0537  0.7489
 6152TIP3    H140019   2.002   5.112   7.335  1.4995  0.9898 -0.2713
 6152TIP3    H240020   2.077   5.088   7.465  1.0242 -0.6027 -0.2767
 6153TIP3   OH240021   2.449   1.737   7.548  0.4335  0.1642  0.1015
 6153TIP3    H140022   2.407   1.689   7.619 -0.1177  1.6414  0.7975
 6153TIP3    H240023   2.382   1.740   7.479  1.0572 -1.4963 -0.6424
 6154TIP3   OH240024   0.596   2.678   1.317  0.6554 -0.0444 -0.0840
 6154TIP3    H140025   0.517   2.684   1.372  0.1679  1.0430 -0.8559
 6154TIP3    H240026   0.569   2.623   1.243 -0.3758  2.6554 -1.8575
 6155TIP3   OH240027   2.083   6.747   2.087  0.3798 -0.1676 -0.7229
 6155TIP3    H140028   2.011   6.805   2.112  0.1779 -1.0985  1.0109
 6155TIP3    H240029   2.143   6.804   2.038 -0.5156  1.1340 -0.3733
 6156TIP3   OH240030   5.971   1.330   7.376 -0.1663 -0.4082 -0.2790
 6156TIP3    H140031   5.958   1.351   7.284 -0.1463 -2.0094 -0.6841
 6156TIP3    H240032   5.895   1.277   7.400  0.3855 -0.9511  0.3074
 6157TIP3   OH240033   2.148   6.622   1.569 -0.5899  0.8612  0.0528
 6157TIP3    H140034   2.193   6.590   1.648  0.8358  0.2201 -0.9688
 6157TIP3    H240035   2.125   6.712   1.589 -0.4306  0.6481  1.2788
 6158TIP3   OH240036   5.234   1.079   6.719  0.3388  0.3593 -0.1788
 6158TIP3    H140037   5.140   1.061   6.720  0.4692 -0.3334  0.5017
 6158TIP3    H240038   5.240   1.174   6.712 -0.4120  0.4042 -0.2739
 6159TIP3   OH240039   3.369   5.306   0.135  0.3426 -0.0790 -0.1754
 6159TIP3    H140040   3.395   5.297   0.043  0.9766 -1.5048  0.1241
 6159TIP3    H240041   3.361   5.217   0.167  0.0957  0.3981  1.1627
 6160TIP3   OH240042   3.407   4.939   7.899  0.5814 -0.4034 -0.4015
 6160TIP3    H140043   3.446   5.017   7.940  1.4262  0.3805 -2.5476
 6160TIP3    H240044   3.380   4.968   7.813  0.0098 -2.2764 -0.9011
 6161TIP3   OH240045   2.647   0.099   7.240  0.6903 -0.3400 -0.9859
 6161TIP3    H140046   2.723   0.157   7.235  0.2001  0.3114 -1.0399
 6161TIP3    H240047   2.602   0.112   7.157  1.9013 -2.6978 -2.0858
 6162TIP3   OH240048   2.530   4.499   7.423 -0.6948  1.1696 -0.0241
 6162TIP3    H140049   2.494   4.525   7.338  0.6532  2.4388 -0.2427
 6162TIP3    H240050   2.526   4.403   7.423 -0.8996  1.1561 -1.4313
 6163TIP3   OH240051   5.892   4.373   7.818  0.2399  0.2087 -0.4087
 6163TIP3    H140052   5.848   4.320   7.751  1.8517 -1.5036 -0.1954
 6163TIP3    H240053   5.847   4.351   7.899 -1.3170  1.8237 -0.7749
 6164TIP3   OH240054   4.319   0.680   0.137  0.4125 -0.7762 -0.0052
 6164TIP3    H140055   4.241   0.690   0.084  1.9545  0.7053 -2.1559
 6164TIP3    H240056   4.326   0.586   0.153 -3.2937 -0.8247  2.8342
 6165TIP3   OH240057   3.407   1.840   0.397  0.0854  0.2269  0.1385
 6165TIP3    H140058   3.475   1.901   0.426  0.5596  0.6583 -1.7185
 6165TIP3    H240059   3.326   1.878   0.431  0.4725  1.3925 -0.1702
 6166TIP3   OH240060   4.075   0.123   1.252  0.6331  0.0769  0.3376
 6166TIP3    H140061   4.016   0.057   1.288  1.9262 -1.3122  0.0080
 6166TIP3    H240062   4.140   0.136   1.320  1.7906 -0.8694 -0.5414
 6167TIP3   OH240063   5.548   1.192   1.846  0.4727 -0.1353  0.4192
 6167TIP3    H140064   5.513   1.277   1.876  1.0573 -0.0824  0.9908
 6167TIP3    H240065   5.590   1.155   1.924  0.3133 -0.9076  0.1463
 6168TIP3   OH240066   0.752   2.143   8.077 -0.0899  0.6025 -0.5230
 6168TIP3    H140067   0.774   2.236   8.067 -0.7212  0.7353 -0.7713
 6168TIP3    H240068   0.824   2.097   8.035  0.1187  0.9873 -0.5969
 6169TIP3   OH240069   3.037   1.396   1.222  0.0828 -0.2581 -0.0320
 6169TIP3    H140070   3.118   1.362   1.259 -0.1184 -1.5504 -0.7281
 6169TIP3    H240071   3.017   1.338   1.149 -1.7004 -0.2260  0.3808
 6170TIP3   OH240072   4.370   0.484   7.225  0.4726  0.1845 -0.6142
 6170TIP3    H140073   4.313   0.449   7.293  0.6481 -1.5219 -1.2882
 6170TIP3    H240074   4.382   0.576   7.248 -0.3686 -0.0822  1.0175
 6171TIP3   OH240075   6.120   2.637   7.260  0.7232 -0.2672 -0.0401
 6171TIP3    H140076   6.067   2.619   7.338  1.8608 -0.6726  0.6653
 6171TIP3    H240077   6.099   2.566   7.200 -0.1457  0.0321 -0.1099
 6172TIP3   OH240078   3.522   1.737   2.320 -0.1292  0.5547  0.0649
 6172TIP3    H140079   3.492   1.663   2.373 -1.1904  1.1403  0.3188
 6172TIP3    H240080   3.563   1.697   2.244  0.8385 -0.3011  1.0017
 6173TIP3   OH240081   5.053   3.106   7.328  0.0881  0.4441  0.5555
 6173TIP3    H140082   5.017   3.172   7.387  0.0854  1.6373 -0.7145
 6173TIP3    H240083   5.003   3.027   7.346 -0.4489  0.9978  1.5786
 6174TIP3   OH240084   4.739   6.495   7.239  0.0575 -0.6320  0.1723
 6174TIP3    H140085   4.741   6.549   7.318 -1.3676  0.1185 -0.2635
 6174TIP3    H240086   4.715   6.408   7.270 -0.5996 -0.3190  0.5753
 6175TIP3   OH240087   4.182   3.521   0.538 -0.4162  0.0863 -0.5868
 6175TIP3    H140088   4.221   3.486   0.618 -0.0343  1.2617 -0.2412
 6175TIP3    H240089   4.166   3.443   0.483 -1.1038 -0.7749  0.7930
 6176TIP3   OH240090   1.207   5.763   1.775  0.2740  0.3739 -0.5585
 6176TIP3    H140091   1.144   5.691   1.786  1.2618 -0.4614 -0.1633
 6176TIP3    H240092   1.253   5.767   1.859  1.7146  0.0076 -1.3021
 6177TIP3   OH240093   1.287   6.771   0.827  0.4072 -0.1880 -0.3890
 6177TIP3    H140094   1.354   6.838   0.817  0.0638  0.7818  2.8196
 6177TIP3    H240095   1.333   6.689   0.806  2.0684  0.6415 -0.2036
 6178TIP3   OH240096   0.489   6.997   0.481 -0.3746 -0.1921 -0.4800
 6178TIP3    H140097   0.456   6.961   0.399  0.5244 -0.7890 -0.5938
 6178TIP3    H240098   0.411   7.007   0.536 -0.7443 -1.6667 -0.6971
 6179TIP3   OH240099   0.932   0.408   0.765  0.0464  0.3625  0.0047
 6179TIP3    H140100   0.967   0.385   0.851 -0.6875  2.8905  1.0793
 6179TIP3    H240101   1.004   0.453   0.721 -0.3467  1.3867  0.3698
 6180TIP3   OH240102   0.308   4.343   7.267  0.0122 -0.7214  0.1653
 6180TIP3    H140103   0.391   4.310   7.302  0.3860 -1.6485 -1.4814
 6180TIP3    H240104   0.319   4.438   7.265  1.1177 -0.8401 -0.1776
 6181TIP3   OH240105   1.712   6.815   7.857 -0.2632 -0.2585  0.2338
 6181TIP3    H140106   1.802   6.790   7.837  0.2491  1.2097  0.5918
 6181TIP3    H240107   1.668   6.817   7.772 -0.7926 -3.7750  0.2718
 6182TIP3   OH240108   3.149   5.159   1.756 -0.7488  0.1464 -0.0515
 6182TIP3    H140109   3.061   5.194   1.750 -1.1415 -0.9567 -1.2587
 6182TIP3    H240110   3.185   5.197   1.836 -2.1486  0.9679  0.2164
 6183TIP3   OH240111   2.513   1.426   7.339 -0.5544 -0.2208  0.3689
 6183TIP3    H140112   2.548   1.513   7.320 -1.6824  0.2686  0.4465
 6183TIP3    H240113   2.550   1.370   7.271 -0.1754  0.4111  0.0445
 6184TIP3   OH240114   0.304   6.781   0.317  0.4670 -0.7612  0.0933
 6184TIP3    H140115   0.306   6.837   0.239 -1.3571 -0.1368  0.4611
 6184TIP3    H240116   0.214   6.750   0.322  0.4119 -0.3840  2.2369
 6185TIP3   OH240117   0.294   6.240   8.102 -0.6199 -0.6813  0.0683
 6185TIP3    H140118   0.344   6.303   8.154 -0.3904  0.1004 -1.0556
 6185TIP3    H240119   0.207   6.279   8.094 -0.2915 -0.1693 -1.1726
 6186TIP3   OH240120   4.152   3.253   8.272 -0.3623 -0.2876 -0.1972
 6186TIP3    H140121   4.133   3.159   8.271 -0.1950 -0.3326 -1.4589
 6186TIP3    H240122   4.173   3.274   8.181  3.4228  0.2059  0.6406
 6187TIP3   OH240123   5.027   2.412   1.218  0.3645  0.0806  0.2851
 6187TIP3    H140124   5.045   2.325   1.181  0.8285  0.3077 -0.0448
 6187TIP3    H240125   5.066   2.410   1.305  1.7579  0.4585 -0.3022
 6188TIP3   OH240126   6.557   2.761   7.567  0.1732  0.1122  0.2135
 6188TIP3    H140127   6.568   2.783   7.475 -1.5651 -0.5986 -0.2020
 6188TIP3    H240128   6.465   2.737   7.576  0.8214 -2.3332  1.5823
 6189TIP3   OH240129   4.054   0.830   7.782 -0.4943  0.3187  0.2583
 6189TIP3    H140130   4.028   0.776   7.856  0.5171  0.6831  0.8979
 6189TIP3    H240131   4.066   0.917   7.819 -0.9125  0.7224 -0.5244
 6190TIP3   OH240132   1.507   4.961   1.657  0.1894  0.0256 -0.0329
 6190TIP3    H140133   1.505   5.025   1.585  2.0424 -2.0253 -2.0752
 6190TIP3    H240134   1.593   4.973   1.697 -1.1617  1.7515  2.5552
 6191TIP3   OH240135   5.024   4.303   1.006 -0.0384  0.2973  0.2332
 6191TIP3    H140136   5.091   4.246   1.042 -1.6012 -2.0151 -0.2658
 6191TIP3    H240137   5.004   4.265   0.920 -1.5381  1.2703  0.1056
 6192TIP3   OH240138   2.599   0.821   7.171 -0.1383  0.5076  0.8570
 6192TIP3    H140139   2.605   0.741   7.119  0.0402  0.4141  1.0220
 6192TIP3    H240140   2.690   0.844   7.190 -0.0252  2.1716 -1.3603
 6193TIP3   OH240141   5.301   5.837   0.292  0.4800  0.1926  0.4099
 6193TIP3    H140142   5.284   5.745   0.272  1.0910  0.2038 -0.2051
 6193TIP3    H240143   5.396   5.846   0.286  0.3101  1.3182 -1.7921
 6194TIP3   OH240144   5.375   3.299   6.749  0.2548 -0.5853 -0.1734
 6194TIP3    H140145   5.393   3.206   6.736 -1.0028 -0.9109  0.2025
 6194TIP3    H240146   5.345   3.330   6.663 -0.6285 -0.8690  0.0220
 6195TIP3   OH240147   6.973   1.307   6.370  0.0674 -0.0125  0.2145
 6195TIP3    H140148   7.018   1.303   6.286 -0.5417  0.0549 -0.1269
 6195TIP3    H240149   6.948   1.217   6.389 -1.2445  0.1582 -0.5108
 6196TIP3   OH240150   2.077   1.903   6.588 -0.3402 -0.1203 -0.3407
 6196TIP3    H140151   1.984   1.915   6.607 -0.7514 -0.5918 -1.8637
 6196TIP3    H240152   2.115   1.990   6.593 -1.0846  0.2314 -0.7294
 6197TIP3   OH240153   6.406   3.335   7.663 -0.3491  0.1824 -0.3134
 6197TIP3    H140154   6.459   3.309   7.588 -1.1916  0.1478 -0.9176
 6197TIP3    H240155   6.429   3.273   7.732 -0.3039 -0.4257 -0.8679
 6198TIP3   OH240156   2.283   2.751   1.471 -0.3158  0.2644 -0.2904
 6198TIP3    H140157   2.295   2.665   1.432 -1.3701  0.8904 -2.0935
 6198TIP3    H240158   2.218   2.794   1.416 -0.8750  1.7167  1.3961
 6199TIP3   OH240159   1.894   2.906   1.348 -0.2109  0.3986  0.2380
 6199TIP3    H140160   1.824   2.883   1.287 -0.4914  1.3190  0.1932
 6199TIP3    H240161   1.849   2.954   1.418  0.3274  0.7096  0.3705
 6200TIP3   OH240162   5.135   6.796   0.075 -0.1017 -0.1839  0.8572
 6200TIP3    H140163   5.157   6.884   0.107  0.4311 -0.0934  0.2574
 6200TIP3    H240164   5.162   6.737   0.146 -0.2006  0.1101  1.1426
 6201TIP3   OH240165   5.607   6.273   1.131 -0.0570 -0.3133  0.1268
 6201TIP3    H140166   5.540   6.269   1.063  0.0898  0.4495 -0.0660
 6201TIP3    H240167   5.634   6.182   1.143 -0.7071 -0.5558 -0.2100
 6202TIP3   OH240168   4.351   0.513   1.368  0.2349 -0.1231 -0.5522
 6202TIP3    H140169   4.342   0.439   1.307 -1.5135  0.8612 -1.5933
 6202TIP3    H240170   4.442   0.509   1.397  1.1876 -0.6249 -3.2811
 6203TIP3   OH240171   5.055   0.104   1.389 -0.0295 -0.4907  0.1846
 6203TIP3    H140172   5.120   0.041   1.421 -0.4509 -1.3606 -0.6200
 6203TIP3    H240173   5.108   0.180   1.362  0.4535 -0.3412  1.4724
 6204TIP3   OH240174   4.762   6.537   0.221  0.2170 -0.3410 -0.6887
 6204TIP3    H140175   4.757   6.445   0.247  1.5657  0.4396  2.8616
 6204TIP3    H240176   4.854   6.561   0.234 -0.5756  2.1048  1.1441
 6205TIP3   OH240177   6.845   0.060   0.877  0.0676  0.2995 -0.0861
 6205TIP3    H140178   6.785  -0.003   0.837 -0.6491  1.9737 -1.7972
 6205TIP3    H240179   6.815   0.145   0.846  2.4918  1.3329  0.1605
 6206TIP3   OH240180   1.692   1.065   7.663  0.8223 -0.1877 -0.2527
 6206TIP3    H140181   1.769   1.118   7.643  0.4972  0.4556  0.1494
 6206TIP3    H240182   1.634   1.077   7.588  0.8885 -0.2354 -0.3107
 6207TIP3   OH240183   0.302   3.959   0.418 -0.3986 -0.4835 -0.4741
 6207TIP3    H140184   0.238   3.893   0.392 -1.2212  0.0143  0.2289
 6207TIP3    H240185   0.386   3.922   0.393 -0.9279 -1.3442 -1.0246
 6208TIP3   OH240186   6.417   0.127   7.629 -0.1084 -0.2917 -0.4928
 6208TIP3    H140187   6.432   0.048   7.578  1.4684 -1.4986  1.6638
 6208TIP3    H240188   6.467   0.195   7.584 -0.4069 -0.8177 -1.6455
 6209TIP3   OH240189   0.498   2.776   1.920  0.5673 -0.2331  0.6879
 6209TIP3    H140190   0.589   2.746   1.921  0.2613 -1.1960  0.5753
 6209TIP3    H240191   0.490   2.830   1.999  0.9978 -0.8893  1.1949
 6210TIP3   OH240192   1.430   3.227   8.247 -0.2219 -0.0725 -0.6064
 6210TIP3    H140193   1.356   3.260   8.298 -1.2953 -0.0773 -2.0837
 6210TIP3    H240194   1.508   3.257   8.294 -1.1528  2.0364 -0.3168
 6211TIP3   OH240195   1.499   2.850   7.612  0.5517  0.0626  0.2701
 6211TIP3    H140196   1.575   2.906   7.621  0.6022 -0.1427  1.2306
 6211TIP3    H240197   1.525   2.784   7.547  1.5588 -0.5786  1.2828
 6212TIP3   OH240198   1.024   5.392   1.575 -0.2696  0.1904 -0.0620
 6212TIP3    H140199   0.955   5.374   1.511  0.3894 -0.1703 -0.6917
 6212TIP3    H240200   1.087   5.321   1.563 -0.3735 -0.1718  1.3558
 6213TIP3   OH240201   1.042   0.505   2.381  0.0196 -0.5938  0.1027
 6213TIP3    H140202   0.946   0.509   2.375 -0.1956 -1.6768  1.9261
 6213TIP3    H240203   1.072   0.511   2.290 -1.4909  4.1186 -0.3579
 6214TIP3   OH240204   2.017   6.143   6.188  0.3234  0.1633 -0.0884
 6214TIP3    H140205   2.024   6.228   6.145  0.4349 -0.8073 -2.1331
 6214TIP3    H240206   1.936   6.149   6.239 -0.0164  1.2813 -0.7105
 6215TIP3   OH240207   6.908   3.524   0.985 -0.2168  0.2158  0.7145
 6215TIP3    H140208   6.942   3.613   0.995 -0.4848  0.6149 -1.4352
 6215TIP3    H240209   6.819   3.537   0.951 -0.6722 -0.8791  1.4512
 6216TIP3   OH240210   2.776   0.811   6.567 -0.7582 -0.6935  0.0428
 6216TIP3    H140211   2.763   0.906   6.578  0.9050 -0.5397  0.9252
 6216TIP3    H240212   2.730   0.791   6.485  1.2095  1.4395 -1.7527
 6217TIP3   OH240213   3.149   6.254   7.784 -0.7171  0.0417  0.2006
 6217TIP3    H140214   3.085   6.196   7.825 -1.4370  0.7420  0.0833
 6217TIP3    H240215   3.125   6.342   7.812 -1.0248  0.5145 -1.4264
 6218TIP3   OH240216   1.236   1.306   0.610  0.1619 -0.3456 -0.0252
 6218TIP3    H140217   1.271   1.218   0.601  1.5437  0.1388  0.3839
 6218TIP3    H240218   1.268   1.337   0.695  2.1123  1.5670 -1.3442
 6219TIP3   OH240219   4.034   5.332   2.182 -0.8447 -0.7947  0.3164
 6219TIP3    H140220   4.058   5.341   2.274 -0.1905  1.5458 -0.0039
 6219TIP3    H240221   4.088   5.261   2.149  1.4747  0.5320  0.9970
 6220TIP3   OH240222   2.530   3.106   8.274 -0.4065 -0.3122  0.0255
 6220TIP3    H140223   2.518   3.012   8.260  1.3133 -0.7668  1.2139
 6220TIP3    H240224   2.516   3.118   8.368  1.2830  0.2471  0.2395
 6221TIP3   OH240225   1.692   2.902   6.938  0.0463  0.0035 -0.1125
 6221TIP3    H140226   1.771   2.930   6.892 -0.9337  0.2334 -1.7161
 6221TIP3    H240227   1.625   2.964   6.911 -1.0971 -1.2073 -0.1505
 6222TIP3   OH240228   0.355   2.663   0.281  0.0264  0.0888 -0.3082
 6222TIP3    H140229   0.369   2.673   0.376 -0.6913 -1.7522  0.0325
 6222TIP3    H240230   0.270   2.702   0.265 -0.1201 -0.1263 -0.0690
 6223TIP3   OH240231   5.822   1.301   0.840 -0.0082  0.3375 -0.4208
 6223TIP3    H140232   5.879   1.257   0.777 -0.9153 -0.0068 -1.0338
 6223TIP3    H240233   5.834   1.253   0.922  2.0049  1.4574  0.0058
 6224TIP3   OH240234   0.597   6.330   0.650  0.0059 -0.4538  0.0957
 6224TIP3    H140235   0.511   6.342   0.691 -0.3641 -0.9448 -0.5249
 6224TIP3    H240236   0.623   6.418   0.624 -0.7314 -0.4122 -0.5354
 6225TIP3   OH240237   0.940   4.514   1.097 -0.0790 -0.1180 -0.0879
 6225TIP3    H140238   1.014   4.548   1.046  0.7271  0.3837  1.3626
 6225TIP3    H240239   0.963   4.532   1.188 -1.2158 -1.5072  0.5142
 6226TIP3   OH240240   3.967   3.038   1.771  0.2901 -0.5053  0.2620
 6226TIP3    H140241   4.023   3.098   1.819 -0.1683  0.3629 -0.2651
 6226TIP3    H240242   3.915   2.994   1.839  1.0607 -0.7717  0.6942
 6227TIP3   OH240243   1.695   6.986   0.609 -0.3224 -0.0467 -0.2337
 6227TIP3    H140244   1.695   7.071   0.564 -0.8333 -0.4649 -1.0503
 6227TIP3    H240245   1.742   7.002   0.691  0.3438  0.8177 -0.7694
 6228TIP3   OH240246   2.220   6.191   8.286 -0.2087 -0.0269 -0.3513
 6228TIP3    H140247   2.231   6.156   8.374 -0.9243 -0.0769 -0.2770
 6228TIP3    H240248   2.302   6.169   8.241 -0.3549 -1.1654 -0.0876
 6229TIP3   OH240249   3.879   1.809   1.655 -0.0488 -0.5634  0.4726
 6229TIP3    H140250   3.972   1.812   1.636 -0.4487  2.1791 -1.5561
 6229TIP3    H240251   3.872   1.838   1.746  0.9554  1.8898 -0.1767
 6230TIP3   OH240252   5.878   3.713   1.473  0.2283 -0.0570  0.1437
 6230TIP3    H140253   5.878   3.804   1.444 -0.8201 -0.3369 -0.7554
 6230TIP3    H240254   5.971   3.690   1.479  0.4855  0.6923 -0.8309
 6231TIP3   OH240255   6.471   1.646   1.006 -0.3678 -0.5169 -0.4349
 6231TIP3    H140256   6.521   1.700   1.067 -1.4186  0.2360 -0.2117
 6231TIP3    H240257   6.496   1.556   1.028  0.6551 -0.1789 -0.1478
 6232TIP3   OH240258   0.301   0.957   7.742 -0.7851 -0.1284  0.1800
 6232TIP3    H140259   0.287   1.033   7.799 -0.8232 -0.2371  0.3157
 6232TIP3    H240260   0.394   0.935   7.753 -0.1609  1.2975 -1.5884
 6233TIP3   OH240261   5.886   1.104   0.150  0.2362  0.4425 -0.0101
 6233TIP3    H140262   5.917   1.187   0.115  1.4018 -0.2250 -0.6576
 6233TIP3    H240263   5.913   1.104   0.241 -0.6778  1.1889  0.2708
 6234TIP3   OH240264   1.069   6.293   2.340 -0.8585 -0.9401 -0.0750
 6234TIP3    H140265   1.153   6.286   2.294 -0.1748  0.1750  0.9617
 6234TIP3    H240266   1.070   6.222   2.404 -1.3918 -1.8839 -1.0830
 6235TIP3   OH240267   1.894   5.220   0.280 -0.1343  0.6479  0.0437
 6235TIP3    H140268   1.916   5.130   0.303 -0.7297  0.5348  0.2036
 6235TIP3    H240269   1.858   5.214   0.191  1.0264  0.9138 -0.4569
 6236TIP3   OH240270   0.750   5.475   0.620  0.6437 -0.0683 -0.1918
 6236TIP3    H140271   0.813   5.497   0.688  0.3420  1.7411 -0.4366
 6236TIP3    H240272   0.801   5.471   0.540  0.2897  3.2170 -0.6978
 6237TIP3   OH240273   0.617   6.210   1.400  0.3097  0.3701  0.4425
 6237TIP3    H140274   0.626   6.121   1.435  2.9470 -0.2442 -1.4123
 6237TIP3    H240275   0.553   6.252   1.456  0.6990 -1.9847  2.8616
 6238TIP3   OH240276   3.054   1.185   0.034  0.0827 -0.1607  0.3413
 6238TIP3    H140277   3.106   1.171  -0.045  1.9783  0.5920  1.4002
 6238TIP3    H240278   2.972   1.138   0.018 -0.0182  0.7936 -2.4645
 6239TIP3   OH240279   0.637   5.208   0.690  0.4513 -0.7354  0.7395
 6239TIP3    H140280   0.664   5.166   0.771 -0.4698  0.0328  1.4649
 6239TIP3    H240281   0.701   5.277   0.676  0.0444 -0.2197  1.3683
 6240TIP3   OH240282   3.197   6.332   1.243  0.2057 -0.6507 -0.3288
 6240TIP3    H140283   3.258   6.258   1.249  1.5164  0.4516  0.4410
 6240TIP3    H240284   3.114   6.296   1.273  0.9638 -1.6795  0.6243
 6241TIP3   OH240285   6.871   6.432   0.391 -0.3474  0.0587  0.6197
 6241TIP3    H140286   6.826   6.500   0.342 -0.0892  0.3017  0.7195
 6241TIP3    H240287   6.808   6.405   0.459 -0.2088  0.6533  0.9896
 6242TIP3   OH240288   4.066   1.203   0.772 -0.1296 -0.2591  0.1098
 6242TIP3    H140289   4.152   1.164   0.791  0.1682  0.4798  0.3431
 6242TIP3    H240290   4.086   1.291   0.741 -0.7105 -0.8253 -2.0293
 6243TIP3   OH240291   3.280   1.471   0.965  0.7711 -0.3317 -0.3500
 6243TIP3    H140292   3.315   1.540   0.908 -1.8052  2.9454  1.6194
 6243TIP3    H240293   3.295   1.504   1.054  0.1711 -2.8168  0.7553
 6244TIP3   OH240294   0.420   2.343   0.366 -0.2264  0.2110  0.4738
 6244TIP3    H140295   0.488   2.319   0.429 -1.1201  0.1224  1.4207
 6244TIP3    H240296   0.399   2.434   0.387  1.5050  1.1590 -1.5945
 6245TIP3   OH240297   1.257   6.219   1.968 -0.3205  0.8697 -0.0624
 6245TIP3    H140298   1.313   6.149   1.999 -0.1927  0.8486 -0.3363
 6245TIP3    H240299   1.312   6.269   1.908 -0.2687  1.4740  0.4798
 6246TIP3   OH240300   3.494   0.790   8.288 -0.1422 -0.6402  0.2807
 6246TIP3    H140301   3.562   0.734   8.249 -1.0370 -1.5316 -0.0382
 6246TIP3    H240302   3.424   0.730   8.313 -1.3494  0.3686 -0.5119
 6247TIP3   OH240303   2.785   6.774   6.200 -0.1942 -0.0357 -0.1110
 6247TIP3    H140304   2.836   6.849   6.233  0.5637 -0.5770 -0.0327
 6247TIP3    H240305   2.843   6.699   6.210 -0.6207 -0.5042 -1.0035
 6248TIP3   OH240306   3.385   6.313   7.286  0.1684  0.5594 -0.5340
 6248TIP3    H140307   3.325   6.327   7.212  1.1670 -1.0629 -1.6977
 6248TIP3    H240308   3.357   6.230   7.324  0.0961  1.0558  0.5222
 6249TIP3   OH240309   2.630   6.250   7.857 -0.2828 -0.0760  0.0712
 6249TIP3    H140310   2.641   6.182   7.791  0.8593  1.0893 -0.9859
 6249TIP3    H240311   2.535   6.263   7.864 -0.4027  0.3982 -2.0111
 6250TIP3   OH240312   2.445   2.122   0.447 -0.0747  0.2970 -0.1048
 6250TIP3    H140313   2.458   2.204   0.399  0.4573  0.9538  1.1095
 6250TIP3    H240314   2.350   2.115   0.457 -0.1818  0.2445 -1.0673
 6251TIP3   OH240315   0.614   3.784   7.495 -0.0296  0.0792 -0.0832
 6251TIP3    H140316   0.639   3.794   7.586 -0.9512 -1.4969  0.3777
 6251TIP3    H240317   0.581   3.870   7.469 -0.7880  0.2501  1.3863
 6252TIP3   OH240318   0.213   4.988   2.069 -0.2742 -0.2686 -0.1675
 6252TIP3    H140319   0.148   5.030   2.013 -0.3426 -1.0853 -0.7220
 6252TIP3    H240320   0.279   5.055   2.083 -0.6151  0.1770 -0.6491
 6253TIP3   OH240321   3.600   3.980   0.022 -0.1060 -0.1056 -0.0913
 6253TIP3    H140322   3.580   4.072   0.040 -0.2063 -0.5029  1.9830
 6253TIP3    H240323   3.695   3.974   0.032 -0.0026 -0.1077 -0.9532
 6254TIP3   OH240324   0.034   0.330   1.424  0.3733 -0.2722 -0.0617
 6254TIP3    H140325   0.052   0.348   1.331  0.5743 -1.4288 -0.2631
 6254TIP3    H240326   0.049   0.413   1.468 -0.5036  0.5106 -1.1766
 6255TIP3   OH240327   4.050   5.658   6.219  0.1781  0.4591 -0.0312
 6255TIP3    H140328   4.031   5.748   6.190 -0.2761  0.0459 -1.0544
 6255TIP3    H240329   4.042   5.606   6.140  1.7041 -0.3116  0.2992
 6256TIP3   OH240330   4.103   6.997   1.575  0.1306  0.3677 -0.0394
 6256TIP3    H140331   4.076   6.929   1.513 -1.8116  0.3271  0.7719
 6256TIP3    H240332   4.192   6.973   1.601 -0.6007 -2.0802  0.4520
 6257TIP3   OH240333   5.309   1.552   6.294 -0.4532 -0.2107 -0.0313
 6257TIP3    H140334   5.336   1.505   6.215  0.3324 -2.3585  1.4037
 6257TIP3    H240335   5.377   1.616   6.309  0.7159 -1.4573  0.1955
 6258TIP3   OH240336   1.473   5.258   6.447  0.1148  0.5608  0.1534
 6258TIP3    H140337   1.391   5.241   6.493  0.7388  1.6821  1.7725
 6258TIP3    H240338   1.520   5.174   6.450  0.4111  0.7586  2.2108
 6259TIP3   OH240339   2.286   3.086   1.001 -0.7094 -0.2104  0.4924
 6259TIP3    H140340   2.360   3.125   1.048 -0.2731  0.4229 -0.6642
 6259TIP3    H240341   2.292   2.993   1.020  1.8679 -0.5508 -1.4508
 6260TIP3   OH240342   1.080   3.590   6.665  0.1183 -0.0989 -0.3087
 6260TIP3    H140343   1.074   3.511   6.611 -0.1394  0.3553 -0.9553
 6260TIP3    H240344   1.137   3.648   6.616  0.6773 -0.0507  0.3853
 6261TIP3   OH240345   0.273   4.893   8.307  0.1859  0.4264  0.0146
 6261TIP3    H140346   0.364   4.921   8.298  0.1620  0.3516 -0.4974
 6261TIP3    H240347   0.225   4.949   8.246 -0.2192  0.9618  0.8092
 6262TIP3   OH240348   5.848   0.948   7.777  0.0524  0.3866 -0.3901
 6262TIP3    H140349   5.838   1.025   7.834 -1.2371 -0.3317  0.4111
 6262TIP3    H240350   5.907   0.890   7.825  0.8020  0.7535 -0.8644
 6263TIP3   OH240351   1.024   6.586   7.038  0.3163 -0.7017  0.2567
 6263TIP3    H140352   1.074   6.599   7.119  2.2230  1.7980 -1.1773
 6263TIP3    H240353   0.972   6.666   7.030 -0.0019 -1.0149 -0.8695
 6264TIP3   OH240354   0.264   6.196   6.784  0.4675 -0.2271 -0.2187
 6264TIP3    H140355   0.219   6.140   6.721  0.4521 -0.4647  0.0015
 6264TIP3    H240356   0.321   6.137   6.833 -0.0922 -0.1789  0.5093
 6265TIP3   OH240357   4.685   4.918   1.150  0.1484 -0.0156  0.3361
 6265TIP3    H140358   4.592   4.920   1.169  0.5699  1.7810  2.6042
 6265TIP3    H240359   4.716   4.838   1.192 -0.1677  0.0375  0.6731
 6266TIP3   OH240360   6.355   6.415   1.566  0.1170 -0.0326 -0.1481
 6266TIP3    H140361   6.430   6.364   1.598 -0.4652 -1.1664 -0.5145
 6266TIP3    H240362   6.279   6.367   1.599 -0.4650 -0.0664 -1.5111
 6267TIP3   OH240363   2.632   1.022   0.878  0.0772  0.1175  0.2068
 6267TIP3    H140364   2.696   0.963   0.836  1.7370  2.3331 -0.5482
 6267TIP3    H240365   2.685   1.090   0.918 -1.8116  2.9772 -1.8219
 6268TIP3   OH240366   1.212   5.282   6.534 -0.1481  0.4532  0.6458
 6268TIP3    H140367   1.188   5.360   6.484  1.6935  1.0641  0.6428
 6268TIP3    H240368   1.129   5.236   6.549 -0.8402  0.4291 -2.6019
 6269TIP3   OH240369   3.610   2.279   7.155 -0.0107  0.6913  0.2552
 6269TIP3    H140370   3.527   2.232   7.161  0.3998  0.0095  0.6449
 6269TIP3    H240371   3.645   2.255   7.070 -0.4615  1.4180 -0.1515
 6270TIP3   OH240372   2.088   2.596   6.847  0.0509  0.0404 -0.0258
 6270TIP3    H140373   2.123   2.616   6.760  0.6071 -0.7495  0.0061
 6270TIP3    H240374   2.071   2.682   6.886 -1.0769  0.4129 -1.2479
 6271TIP3   OH240375   6.126   6.750   0.616 -0.4628 -0.3991 -0.2178
 6271TIP3    H140376   6.033   6.727   0.605 -0.2668 -0.7276 -1.3111
 6271TIP3    H240377   6.161   6.681   0.672 -0.7735 -0.5380 -0.1892
 6272TIP3   OH240378   3.804   3.316   8.179  0.4466 -0.2391 -0.0718
 6272TIP3    H140379   3.831   3.339   8.268 -0.9046  0.4809  0.1688
 6272TIP3    H240380   3.734   3.252   8.190  0.7273 -0.6534 -0.6442
 6273TIP3   OH240381   3.980   6.229   1.720  0.4110 -0.1101  0.1659
 6273TIP3    H140382   4.057   6.253   1.772 -0.3500  0.2142  1.1736
 6273TIP3    H240383   3.970   6.135   1.733  1.3808 -0.4067 -1.0253
 6274TIP3   OH240384   0.245   0.936   0.409 -0.0091  0.1721 -0.1225
 6274TIP3    H140385   0.258   1.031   0.414 -0.8170  0.3600 -1.2667
 6274TIP3    H240386   0.303   0.907   0.339  0.2818 -0.1939  0.2659
 6275TIP3   OH240387   4.626   0.151   6.467 -0.1021  0.6163  0.1086
 6275TIP3    H140388   4.616   0.076   6.408 -0.8046  0.4250  0.4697
 6275TIP3    H240389   4.537   0.175   6.491  0.1968 -0.1948  2.2132
 6276TIP3   OH240390   3.613   5.672   7.584  0.9791 -0.5091 -0.4863
 6276TIP3    H140391   3.542   5.620   7.546 -0.5171  1.5433 -0.6473
 6276TIP3    H240392   3.585   5.689   7.674  1.4845 -0.0419 -0.4131
 6277TIP3   OH240393   6.687   0.645   0.723  0.1267 -0.9045  0.0056
 6277TIP3    H140394   6.629   0.643   0.647 -2.6642  1.3696  1.8602
 6277TIP3    H240395   6.630   0.626   0.798  1.7701  1.1491  1.9362
 6278TIP3   OH240396   5.874   3.290   6.725 -0.6052  0.2611 -0.0667
 6278TIP3    H140397   5.866   3.372   6.676  0.4506  0.2891 -0.2233
 6278TIP3    H240398   5.876   3.222   6.657 -3.1519 -0.0913  0.1094
 6279TIP3   OH240399   0.188   2.330   7.519  0.0482  0.2643  0.0384
 6279TIP3    H140400   0.172   2.344   7.613 -0.5178  0.1949 -0.0423
 6279TIP3    H240401   0.117   2.272   7.492 -1.2216  2.1531 -0.9335
 6280TIP3   OH240402   2.397   4.662   1.762 -0.3641  0.0884  0.0282
 6280TIP3    H140403   2.392   4.693   1.852  0.1676 -1.5085  0.6514
 6280TIP3    H240404   2.306   4.645   1.737 -0.6962  2.3854 -0.4587
 6281TIP3   OH240405   2.361   2.634   8.007 -0.1882 -0.4181 -0.1538
 6281TIP3    H140406   2.370   2.558   7.950 -0.4742  0.9741 -2.1490
 6281TIP3    H240407   2.442   2.684   7.995 -1.5981  1.6217 -2.1152
 6282TIP3   OH240408   5.987   0.268   6.621 -0.2717  0.4832 -0.4653
 6282TIP3    H140409   5.952   0.186   6.585  0.5804  0.1152 -0.4756
 6282TIP3    H240410   6.006   0.248   6.713 -1.7690  1.2124  0.0298
 6283TIP3   OH240411   1.497   0.522   7.853 -0.2741  0.7187  0.4548
 6283TIP3    H140412   1.576   0.471   7.840 -1.1496 -0.6308  0.1959
 6283TIP3    H240413   1.523   0.612   7.834  0.8819  0.1375 -0.9619
 6284TIP3   OH240414   5.398   1.539   6.962 -0.1530 -0.0088 -0.1972
 6284TIP3    H140415   5.314   1.506   6.930 -1.0016 -0.0836  1.9657
 6284TIP3    H240416   5.421   1.480   7.035  1.5804  0.2673 -0.4676
 6285TIP3   OH240417   0.197   5.272   7.793  0.3535  0.1533 -0.2371
 6285TIP3    H140418   0.286   5.269   7.828  0.5863 -0.9459 -0.8855
 6285TIP3    H240419   0.179   5.366   7.781  0.8282  0.4635  1.3358
 6286TIP3   OH240420   6.015   1.872   7.348  0.2367  0.2626  0.4107
 6286TIP3    H140421   6.083   1.816   7.384  1.3242  0.8074 -0.7024
 6286TIP3    H240422   5.955   1.888   7.421  1.4764  0.0165  1.5182
 6287TIP3   OH240423   2.073   2.863   6.370 -0.1394  0.1217  0.5833
 6287TIP3    H140424   2.167   2.877   6.381 -0.3237 -0.1841  2.8070
 6287TIP3    H240425   2.067   2.778   6.327  0.5968  0.4243 -0.1576
 6288TIP3   OH240426   1.077   5.751   0.203  0.0598 -0.5971  0.4559
 6288TIP3    H140427   1.002   5.772   0.147  0.8439 -1.4379 -0.9925
 6288TIP3    H240428   1.123   5.834   0.212 -0.7555 -0.1806  0.9340
 6289TIP3   OH240429   0.850   4.033   7.438  1.0277  0.3110  0.6860
 6289TIP3    H140430   0.906   3.972   7.486  0.2212  0.3829  1.7564
 6289TIP3    H240431   0.777   4.050   7.497 -0.7616 -0.6883 -1.1184
 6290TIP3   OH240432   5.410   5.611   1.604  0.1230  0.0882  0.4597
 6290TIP3    H140433   5.334   5.641   1.554 -0.1369 -0.8148  0.2830
 6290TIP3    H240434   5.432   5.526   1.565  1.7535  0.7096 -0.0532
 6291TIP3   OH240435   2.216   3.792   7.130 -0.4802 -0.1069  0.3497
 6291TIP3    H140436   2.202   3.885   7.147  0.0657  0.0312  0.0816
 6291TIP3    H240437   2.251   3.790   7.041  0.8383 -0.4525  0.8600
 6292TIP3   OH240438   4.515   2.208   6.431  0.4126 -0.7383 -0.1875
 6292TIP3    H140439   4.594   2.154   6.433  0.3163 -0.8960  2.6621
 6292TIP3    H240440   4.443   2.146   6.426  0.3416 -0.8925  2.0467
 6293TIP3   OH240441   4.570   3.744   6.334  0.0867 -0.5145 -0.3002
 6293TIP3    H140442   4.533   3.656   6.344  2.6494 -1.4339  2.5264
 6293TIP3    H240443   4.532   3.776   6.252 -3.0636 -3.1254 -0.1014
 6294TIP3   OH240444   6.686   3.132   1.321 -0.2825  0.9457 -0.2464
 6294TIP3    H140445   6.771   3.164   1.292 -0.2937  0.1371 -1.2321
 6294TIP3    H240446   6.623   3.171   1.260 -0.5458  0.9985  0.0575
 6295TIP3   OH240447   2.480   3.941   7.339  0.3124 -0.4711 -0.0234
 6295TIP3    H140448   2.518   3.940   7.251  0.7252  1.4546  0.0897
 6295TIP3    H240449   2.406   4.001   7.332  1.0592  0.6481  1.1770
 6296TIP3   OH240450   1.776   6.070   7.147  0.8912 -0.3845  0.2707
 6296TIP3    H140451   1.725   5.993   7.172 -1.4093 -0.9699 -4.8376
 6296TIP3    H240452   1.830   6.039   7.074  0.4186  2.5699 -1.4798
 6297TIP3   OH240453   4.024   5.525   7.114 -0.3544  0.2697  0.1550
 6297TIP3    H140454   4.068   5.610   7.114  0.9999 -0.4018 -0.5436
 6297TIP3    H240455   3.969   5.526   7.036  0.5615  0.0848 -0.5113
 6298TIP3   OH240456   3.147   1.418   0.704  0.0765 -0.0249 -0.1444
 6298TIP3    H140457   3.064   1.421   0.751  0.2325  2.9749  0.1141
 6298TIP3    H240458   3.212   1.392   0.770 -0.3740 -0.6546  0.0638
 6299TIP3   OH240459   6.784   1.240   7.212 -0.3470  0.0483  0.0256
 6299TIP3    H140460   6.870   1.264   7.175 -2.1461  3.3627 -2.6360
 6299TIP3    H240461   6.763   1.313   7.271 -1.1092 -1.0811  1.2075
 6300TIP3   OH240462   5.511   2.368   8.094 -0.0712 -0.2007  0.0510
 6300TIP3    H140463   5.476   2.455   8.078  2.6581  1.1475  0.7980
 6300TIP3    H240464   5.548   2.341   8.010 -2.1126 -1.3590 -0.5689
 6301TIP3   OH240465   1.538   1.832   0.819 -0.6583  0.5235 -0.3736
 6301TIP3    H140466   1.541   1.849   0.913 -0.7517  3.8851 -0.8522
 6301TIP3    H240467   1.584   1.906   0.780 -1.0311 -0.5380 -3.0251
 6302TIP3   OH240468   1.342   6.000   7.041 -0.0022  0.1832  0.9430
 6302TIP3    H140469   1.390   6.030   7.117  0.5940 -0.9865  1.0389
 6302TIP3    H240470   1.315   5.911   7.062  1.4183 -0.7133 -0.7475
 6303TIP3   OH240471   6.281   4.249   0.554 -0.1429  0.2518 -0.4183
 6303TIP3    H140472   6.326   4.211   0.630 -2.7219 -0.5248  0.8063
 6303TIP3    H240473   6.252   4.335   0.584 -2.0971 -0.4757 -0.0857
 6304TIP3   OH240474   5.658   3.171   0.392 -0.1006 -0.0320  0.2550
 6304TIP3    H140475   5.701   3.153   0.308  2.0240  0.7601  1.0875
 6304TIP3    H240476   5.604   3.094   0.409  3.5579 -2.8220  0.6145
 6305TIP3   OH240477   3.127   3.506   1.583  0.2252 -0.2830 -0.3126
 6305TIP3    H140478   3.198   3.443   1.569  0.6813  0.0382  0.4706
 6305TIP3    H240479   3.061   3.458   1.631  0.0250 -0.5091 -0.8096
 6306TIP3   OH240480   2.301   6.993   1.035 -0.2281  0.6446 -0.2239
 6306TIP3    H140481   2.240   7.035   0.974 -0.2879 -0.0319 -0.6497
 6306TIP3    H240482   2.371   7.057   1.048 -1.1052  1.5051  0.4057
 6307TIP3   OH240483   3.468   1.799   6.225 -0.6642 -0.1451 -0.0543
 6307TIP3    H140484   3.535   1.738   6.256 -1.7324 -0.9561  0.7670
 6307TIP3    H240485   3.497   1.885   6.256  1.6034  0.0628 -2.4506
 6308TIP3   OH240486   0.424   1.487   0.946  0.1167 -0.0825 -0.3454
 6308TIP3    H140487   0.387   1.440   0.871  1.1235 -0.3199 -0.7138
 6308TIP3    H240488   0.385   1.574   0.942 -0.6471 -0.4234 -0.5139
 6309TIP3   OH240489   5.822   0.196   6.969 -0.0711 -0.3445 -0.0382
 6309TIP3    H140490   5.915   0.200   6.993  0.5531  3.5105 -2.2334
 6309TIP3    H240491   5.813   0.111   6.925  2.7359 -0.3630 -0.8222
 6310TIP3   OH240492   0.681   0.526   1.164  0.6518 -0.2652  0.1078
 6310TIP3    H140493   0.768   0.491   1.185  1.0386 -0.4389 -1.6527
 6310TIP3    H240494   0.644   0.463   1.102 -1.5155 -1.1599  2.1279
 6311TIP3   OH240495   0.754   5.333   7.795  0.6088  0.4724 -0.0481
 6311TIP3    H140496   0.790   5.353   7.708  1.4738 -2.0357 -0.3401
 6311TIP3    H240497   0.820   5.367   7.856  0.8930  0.6136 -0.4281
 6312TIP3   OH240498   3.551   4.213   7.089 -0.1731 -0.1185 -0.1322
 6312TIP3    H140499   3.616   4.147   7.063  0.6887  0.1656  1.2029
 6312TIP3    H240500   3.515   4.180   7.171  0.5780  1.2386  0.7844
 6313TIP3   OH240501   3.925   4.257   1.153  0.5782  0.0600 -0.0139
 6313TIP3    H140502   3.989   4.219   1.213  0.1773 -2.1947 -0.9186
 6313TIP3    H240503   3.934   4.207   1.072 -1.9351  0.0142 -0.3531
 6314TIP3   OH240504   2.791   6.152   7.550 -0.4123 -0.6357  0.0715
 6314TIP3    H140505   2.773   6.125   7.460 -1.1051 -1.8775  0.5514
 6314TIP3    H240506   2.806   6.069   7.596 -1.3771 -0.1031  1.3720
 6315TIP3   OH240507   4.619   0.065   8.032  0.2810  0.2395 -0.1017
 6315TIP3    H140508   4.571   0.144   8.006  0.5161  0.7402  0.9151
 6315TIP3    H240509   4.711   0.089   8.022  0.3959  0.5835  1.4521
 6316TIP3   OH240510   5.589   1.784   7.851 -0.1014  0.2801 -0.2664
 6316TIP3    H140511   5.583   1.816   7.761  1.8729  2.4821  0.2755
 6316TIP3    H240512   5.614   1.692   7.842 -0.0970  0.4027 -1.9556
 6317TIP3   OH240513   0.216   0.921   7.493  0.2854 -0.4314  0.0306
 6317TIP3    H140514   0.244   0.948   7.580  0.1658  0.9125 -0.3215
 6317TIP3    H240515   0.126   0.892   7.504  0.4727 -0.8581  0.4589
 6318TIP3   OH240516   2.114   4.662   1.708 -0.1890  0.0677  0.7172
 6318TIP3    H140517   2.071   4.635   1.627 -1.8948 -1.0464  1.9348
 6318TIP3    H240518   2.098   4.756   1.714 -0.6728  0.0295  0.1271
 6319TIP3   OH240519   2.715   2.885   1.013  0.2259  0.7584  0.7467
 6319TIP3    H140520   2.713   2.933   1.096  0.8339 -0.2759  1.3741
 6319TIP3    H240521   2.783   2.819   1.024  0.2458  0.5214 -0.5447
 6320TIP3   OH240522   5.364   6.614   7.207 -0.2914 -0.6357  0.7023
 6320TIP3    H140523   5.411   6.678   7.261  1.1748  0.4809 -1.6997
 6320TIP3    H240524   5.431   6.552   7.179 -0.6308 -0.2887 -1.0212
 6321TIP3   OH240525   4.586   1.214   7.193  0.5066  0.7898  0.1599
 6321TIP3    H140526   4.639   1.199   7.115  0.3989  0.7312  0.0982
 6321TIP3    H240527   4.503   1.249   7.159  0.4087  0.6351  0.2377
 6322TIP3   OH240528   5.042   1.471   6.303 -0.0983  0.3191  0.1577
 6322TIP3    H140529   5.025   1.529   6.229  1.6011  1.7022  0.7668
 6322TIP3    H240530   5.123   1.505   6.342 -0.0998 -1.3041  1.7267
 6323TIP3   OH240531   1.662   5.036   6.837  0.4068  0.4420  0.1952
 6323TIP3    H140532   1.587   5.076   6.794  0.5644  0.4966 -0.0333
 6323TIP3    H240533   1.678   4.955   6.787  0.8932  0.7516 -0.1635
 6324TIP3   OH240534   0.691   0.127   1.332  0.4663 -0.3408  0.4996
 6324TIP3    H140535   0.685   0.164   1.420  0.8862  0.4966  0.1887
 6324TIP3    H240536   0.631   0.053   1.333 -1.2033  0.9646  0.8360
 6325TIP3   OH240537   6.003   1.098   6.795 -0.2593  0.3473  0.1912
 6325TIP3    H140538   5.945   1.150   6.849  1.9555  1.3059  1.8125
 6325TIP3    H240539   5.954   1.018   6.776 -2.6570  1.7817  0.0654
 6326TIP3   OH240540   0.697   1.818   1.275  0.3882 -0.1947 -0.1441
 6326TIP3    H140541   0.783   1.776   1.271 -0.4636 -2.4196  2.2096
 6326TIP3    H240542   0.689   1.846   1.367 -0.2408  2.7792 -0.9898
 6327TIP3   OH240543   1.031   6.332   1.297  0.0979  0.5032  0.4114
 6327TIP3    H140544   1.033   6.315   1.391 -0.2981 -1.8340  0.0499
 6327TIP3    H240545   1.034   6.428   1.290 -0.5364  0.7596  2.8042
 6328TIP3   OH240546   3.263   6.736   0.941  0.5953 -0.1377  0.3451
 6328TIP3    H140547   3.261   6.810   0.880  0.3845 -0.5037 -0.1021
 6328TIP3    H240548   3.306   6.665   0.892 -0.3869 -0.7173  0.2869
 6329TIP3   OH240549   0.025   1.042   6.416  0.0470  0.3956  0.4373
 6329TIP3    H140550   0.085   1.029   6.489 -0.2586  2.2714  1.0725
 6329TIP3    H240551  -0.058   1.066   6.457  0.1156  2.4805 -0.4933
 6330TIP3   OH240552   1.518   6.319   2.475  0.5726 -0.0617 -0.0116
 6330TIP3    H140553   1.533   6.226   2.488 -1.0119 -0.4810 -0.9425
 6330TIP3    H240554   1.442   6.324   2.417  2.4980  1.7558 -2.6282
 6331TIP3   OH240555   5.652   5.192   0.361  0.3223  0.5013  0.0740
 6331TIP3    H140556   5.633   5.262   0.299 -0.4431 -0.2478 -0.5534
 6331TIP3    H240557   5.567   5.155   0.382  0.8560 -1.8782 -1.5544
 6332TIP3   OH240558   2.700   3.477   6.616 -0.1963  0.6988 -0.3769
 6332TIP3    H140559   2.713   3.484   6.522 -0.8702  0.5496 -0.4867
 6332TIP3    H240560   2.775   3.523   6.655  1.1989 -0.9668 -0.9603
 6333TIP3   OH240561   2.857   3.124   7.408 -0.1253  0.1891 -0.4335
 6333TIP3    H140562   2.805   3.165   7.339  0.7820  2.5291  0.1794
 6333TIP3    H240563   2.933   3.182   7.417  1.9123 -2.3219 -0.3409
 6334TIP3   OH240564   2.531   4.233   7.410 -0.1787  0.1228 -0.3608
 6334TIP3    H140565   2.533   4.179   7.330 -1.3228 -1.0631  0.3717
 6334TIP3    H240566   2.599   4.196   7.465  0.8409  1.1592 -0.8976
 6335TIP3   OH240567   6.486   6.537   0.231  0.0096  0.5999  0.4981
 6335TIP3    H140568   6.405   6.516   0.185  0.8987 -0.7937 -0.4901
 6335TIP3    H240569   6.470   6.509   0.321 -0.8812  1.1044  0.5102
 6336TIP3   OH240570   1.181   5.239   0.307 -0.0664  0.6278 -0.5109
 6336TIP3    H140571   1.227   5.155   0.301 -2.7136 -1.0167  0.3035
 6336TIP3    H240572   1.118   5.237   0.235 -2.8375  0.0224  1.7330
 6337TIP3   OH240573   6.392   1.917   8.334  0.9885 -0.2415  0.7015
 6337TIP3    H140574   6.472   1.951   8.294  0.9404 -0.8742  0.0439
 6337TIP3    H240575   6.344   1.877   8.261  0.4830 -0.6338  1.2383
 6338TIP3   OH240576   4.898   6.442   6.182 -0.2626  0.2159  0.1212
 6338TIP3    H140577   4.957   6.516   6.199 -0.0437  0.0358  0.1392
 6338TIP3    H240578   4.855   6.466   6.100 -0.5500  0.5907  0.3763
 6339TIP3   OH240579   1.426   3.822   6.927 -0.0419  0.1759 -0.3557
 6339TIP3    H140580   1.443   3.810   6.834  2.2007  0.2668 -0.0226
 6339TIP3    H240581   1.394   3.738   6.958  0.2966 -0.1909 -1.0010
 6340TIP3   OH240582   6.630   4.928   7.259  0.0775 -0.0735 -0.0885
 6340TIP3    H140583   6.669   4.941   7.345  0.5383 -1.1230 -0.1108
 6340TIP3    H240584   6.596   5.014   7.234 -1.1461 -0.0034  1.6443
 6341TIP3   OH240585   4.843   3.877   6.441 -0.4129 -0.0889 -0.3796
 6341TIP3    H140586   4.760   3.830   6.431 -0.5441 -0.5323  2.0515
 6341TIP3    H240587   4.905   3.828   6.387 -0.8529 -2.3539  0.9966
 6342TIP3   OH240588   6.880   6.677   1.485  0.3060 -0.0097 -0.6088
 6342TIP3    H140589   6.969   6.647   1.469  0.4679 -0.1134  0.4066
 6342TIP3    H240590   6.884   6.720   1.570 -1.0082 -1.7918  0.4386
 6343TIP3   OH240591   5.994   6.688   6.047  0.5311 -0.3790  0.0389
 6343TIP3    H140592   6.071   6.730   6.086 -0.7223  0.5734  1.6313
 6343TIP3    H240593   5.995   6.715   5.955  0.9142  1.4540  0.5468
 6344TIP3   OH240594   3.148   6.958   5.749  0.1401  0.1659 -0.6134
 6344TIP3    H140595   3.170   7.031   5.806 -1.1546  0.4791 -0.4935
 6344TIP3    H240596   3.088   6.995   5.685  1.2998 -0.2582 -2.0121
 6345TIP3   OH240597   0.340   4.268   0.856 -0.3166  0.0164 -0.4741
 6345TIP3    H140598   0.295   4.191   0.890 -0.4348 -0.2018 -1.1338
 6345TIP3    H240599   0.282   4.302   0.787  1.1573 -1.0782 -2.3246
 6346TIP3   OH240600   3.507   3.408   1.597  0.0321  0.8476 -0.2133
 6346TIP3    H140601   3.560   3.360   1.660 -3.4661  0.3254  2.6947
 6346TIP3    H240602   3.455   3.341   1.553 -0.5571  1.5439 -0.5989
 6347TIP3   OH240603   4.676   4.535   0.571 -0.6594  0.1839 -0.0991
 6347TIP3    H140604   4.584   4.554   0.553 -0.9823  0.8469  1.9778
 6347TIP3    H240605   4.674   4.456   0.625  0.1064 -0.5832 -1.1559
 6348TIP3   OH240606   3.567   1.685   0.207  0.0943 -0.1967  0.2734
 6348TIP3    H140607   3.546   1.732   0.126  0.9909  0.1844  0.2443
 6348TIP3    H240608   3.515   1.729   0.274  0.4803  0.4885  0.1431
 6349TIP3   OH240609   2.265   3.746   7.682  0.1011  0.2428 -0.2281
 6349TIP3    H140610   2.350   3.776   7.649 -1.1247  0.1078 -4.0808
 6349TIP3    H240611   2.201   3.798   7.632 -2.0925 -0.7810  1.3485
 6350TIP3   OH240612   4.736   2.452   6.110 -0.1850  0.1566  0.3607
 6350TIP3    H140613   4.750   2.396   6.187  1.6066  0.0934  0.0325
 6350TIP3    H240614   4.746   2.541   6.143  0.7178  0.1248  0.1944
 6351TIP3   OH240615   0.347   6.397   0.756 -0.3100  0.4871 -0.0662
 6351TIP3    H140616   0.306   6.484   0.755 -0.6439  0.3238 -1.1004
 6351TIP3    H240617   0.281   6.339   0.719 -0.8686 -0.6015  2.3906
 6352TIP3   OH240618   4.930   4.153   8.311  0.2011 -0.3309  0.0052
 6352TIP3    H140619   4.994   4.082   8.315  0.8372  0.2812  1.0502
 6352TIP3    H240620   4.876   4.131   8.235  0.3959 -1.9061  0.2824
 6353TIP3   OH240621   5.232   6.915   0.917 -0.3696 -0.3833  0.8780
 6353TIP3    H140622   5.171   6.982   0.948 -0.2237  0.0395  0.2766
 6353TIP3    H240623   5.176   6.847   0.880 -0.4972 -0.0604  0.4563
 6354TIP3   OH240624   0.286   0.713   0.922 -0.5506 -0.3072  0.2459
 6354TIP3    H140625   0.207   0.733   0.971 -1.5042 -0.4702 -1.1700
 6354TIP3    H240626   0.272   0.625   0.888  1.0226 -1.0749  1.4166
 6355TIP3   OH240627   2.962   1.153   7.156  0.2844 -0.2270  0.3657
 6355TIP3    H140628   3.042   1.206   7.159 -1.6231  2.9874 -0.9489
 6355TIP3    H240629   2.937   1.153   7.064 -1.8946 -0.0063  0.9071
 6356TIP3   OH240630   5.332   0.837   1.590 -0.6288  0.0170  0.0219
 6356TIP3    H140631   5.292   0.867   1.508 -3.9602 -0.3572  1.3802
 6356TIP3    H240632   5.359   0.918   1.634 -2.4759  0.5422  0.2628
 6357TIP3   OH240633   3.340   5.650   0.199  0.0121 -0.0006  0.6243
 6357TIP3    H140634   3.378   5.654   0.287 -0.2148 -2.2477  0.8608
 6357TIP3    H240635   3.268   5.588   0.206 -0.0531 -0.1790 -1.1399
 6358TIP3   OH240636   1.961   2.883   0.422  0.0401 -0.3750  0.4269
 6358TIP3    H140637   1.880   2.882   0.370 -0.3780 -2.2750  1.0450
 6358TIP3    H240638   2.017   2.818   0.380  0.5302 -0.3762  1.0732
 6359TIP3   OH240639   4.221   2.998   0.067  0.8753  0.2314  0.2639
 6359TIP3    H140640   4.132   2.995   0.101  0.8067  0.7681  0.1404
 6359TIP3    H240641   4.254   2.909   0.079  0.1798 -0.0855 -0.0750
 6360TIP3   OH240642   1.517   4.010   1.496 -0.4328 -0.3393 -0.4264
 6360TIP3    H140643   1.469   4.054   1.567 -1.1120 -1.6224 -0.0552
 6360TIP3    H240644   1.608   4.011   1.525 -0.6719 -0.6630  0.3856
 6361TIP3   OH240645   4.744   4.187   7.994 -0.2044 -0.2256  0.2992
 6361TIP3    H140646   4.758   4.103   7.950  0.8299  0.8360 -1.5433
 6361TIP3    H240647   4.670   4.226   7.948  1.6729  1.4534 -1.5603
 6362TIP3   OH240648   5.061   1.957   6.989  0.1085 -0.9060 -0.1740
 6362TIP3    H140649   5.152   1.930   6.976  0.2928 -0.1207 -0.5932
 6362TIP3    H240650   5.060   2.049   6.962 -0.6747 -0.7323  0.4307
 6363TIP3   OH240651   6.311   6.024   8.374  0.3858 -0.2293  0.3278
 6363TIP3    H140652   6.236   6.073   8.340  1.8925  2.2562  0.3899
 6363TIP3    H240653   6.273   5.963   8.437 -1.6051  0.6999  0.0876
 6364TIP3   OH240654   4.994   4.915   1.694 -0.1614 -0.2615 -0.0442
 6364TIP3    H140655   4.974   5.008   1.703 -3.4770 -0.8497  0.1963
 6364TIP3    H240656   5.019   4.887   1.782 -0.4404  0.1895  0.1823
 6365TIP3   OH240657   6.046   0.083   6.858  0.2221  0.4065  0.3935
 6365TIP3    H140658   6.011   0.043   6.779 -1.6986 -0.7719  1.7572
 6365TIP3    H240659   6.122   0.133   6.828 -1.5211  1.5782 -2.4775
 6366TIP3   OH240660   1.274   3.008   0.010  0.4912  0.1189  0.1781
 6366TIP3    H140661   1.339   2.990  -0.059  0.0317 -0.6703 -0.0641
 6366TIP3    H240662   1.208   3.062  -0.033  0.0739 -0.5825 -0.0964
 6367TIP3   OH240663   5.848   6.438   7.141  0.2549 -0.1828  0.6363
 6367TIP3    H140664   5.915   6.507   7.137 -0.8541  0.9217  0.3680
 6367TIP3    H240665   5.897   6.357   7.133  1.3492  0.6562 -2.4603
 6368TIP3   OH240666   1.236   4.206   7.764 -0.1833  0.5878  0.3223
 6368TIP3    H140667   1.256   4.113   7.755 -3.7756 -0.2241 -0.7478
 6368TIP3    H240668   1.254   4.243   7.678 -1.3605  0.2429 -0.0920
 6369TIP3   OH240669   5.328   0.757   1.850  0.7452  0.1897 -0.0516
 6369TIP3    H140670   5.389   0.719   1.913  1.0826  0.8693  0.0461
 6369TIP3    H240671   5.384   0.786   1.777  0.8452  2.5921  0.8839
 6370TIP3   OH240672   6.715   5.228   1.217  0.3308 -0.0368  0.0668
 6370TIP3    H140673   6.799   5.217   1.261  0.1002 -0.8064  0.3412
 6370TIP3    H240674   6.714   5.160   1.150 -0.0907 -0.0689  0.1009
 6371TIP3   OH240675   1.152   4.549   0.673  0.3891  0.2073  0.1498
 6371TIP3    H140676   1.228   4.603   0.652 -0.8383  1.0062 -2.7542
 6371TIP3    H240677   1.077   4.606   0.657 -0.8912 -1.6941 -1.0052
 6372TIP3   OH240678   6.938   6.893   0.450 -0.6410  0.3053 -0.0924
 6372TIP3    H140679   6.863   6.950   0.433 -0.7404 -0.0598 -0.9112
 6372TIP3    H240680   7.014   6.952   0.441 -0.3921 -0.3227 -5.1076
 6373TIP3   OH240681   3.952   1.549   0.879 -0.1526  0.5353  0.0483
 6373TIP3    H140682   3.988   1.481   0.935  0.2593  1.9320  1.5607
 6373TIP3    H240683   3.857   1.535   0.882  0.0058 -0.8553 -0.8820
 6374TIP3   OH240684   0.568   4.904   8.238  0.3043  0.7326 -0.1003
 6374TIP3    H140685   0.591   4.892   8.330 -1.0917 -2.6775 -0.0309
 6374TIP3    H240686   0.651   4.901   8.191  0.8239 -2.1663  0.8067
 6375TIP3   OH240687   2.773   3.106   0.393 -0.2962  0.6295 -0.0779
 6375TIP3    H140688   2.846   3.139   0.340 -0.4326  0.1470 -0.5679
 6375TIP3    H240689   2.754   3.178   0.454 -0.9729  1.7078 -1.4886
 6376TIP3   OH240690   4.276   5.957   6.846  0.4499 -0.7483  0.1464
 6376TIP3    H140691   4.257   6.007   6.767  1.6378 -0.5071  0.0037
 6376TIP3    H240692   4.189   5.932   6.879 -0.2103  1.4374  0.2534
 6377TIP3   OH240693   0.374   5.584   8.007 -0.5367 -0.1235 -0.6564
 6377TIP3    H140694   0.374   5.570   7.912  1.5813 -0.7532 -0.6133
 6377TIP3    H240695   0.282   5.594   8.029 -1.1041 -0.1709 -2.7470
 6378TIP3   OH240696   1.288   1.577   0.221  0.4655  0.1983  0.0986
 6378TIP3    H140697   1.377   1.547   0.202  0.9175  0.6477  1.4409
 6378TIP3    H240698   1.286   1.668   0.190  0.8126  0.5244  1.0008
 6379TIP3   OH240699   1.144   5.282   8.365  0.0010  0.8109  0.6510
 6379TIP3    H140700   1.123   5.371   8.392  0.0624  1.2971 -0.8332
 6379TIP3    H240701   1.149   5.286   8.270  2.4642 -0.2333  0.6686
 6380TIP3   OH240702   1.094   4.549   6.343  0.4525  0.2796 -0.0243
 6380TIP3    H140703   1.173   4.535   6.292  0.0277 -1.2304 -0.3339
 6380TIP3    H240704   1.046   4.466   6.335 -1.1432  1.1477  0.1735
 6381TIP3   OH240705   0.420   5.670   5.929  0.6000  0.0973  0.0107
 6381TIP3    H140706   0.363   5.738   5.893 -0.4351 -1.4022 -1.3057
 6381TIP3    H240707   0.373   5.638   6.005  0.3154 -0.2257 -0.2984
 6382TIP3   OH240708   5.450   3.116   0.714  0.3234  0.2316 -0.0919
 6382TIP3    H140709   5.448   3.204   0.753 -0.6932 -0.0994  0.6621
 6382TIP3    H240710   5.358   3.096   0.697  0.6212 -0.3444 -1.0845
 6383TIP3   OH240711   3.073   3.855   7.417 -0.5267  0.0124 -0.3481
 6383TIP3    H140712   3.128   3.891   7.348 -0.8568  0.6906 -0.2715
 6383TIP3    H240713   3.098   3.763   7.423  0.4315  0.2520 -0.4765
 6384TIP3   OH240714   1.781   2.366   7.438 -0.4343 -0.9838 -0.2143
 6384TIP3    H140715   1.783   2.271   7.444 -2.4627 -0.9857  1.9715
 6384TIP3    H240716   1.754   2.395   7.526 -0.9058  1.5450 -1.1020
 6385TIP3   OH240717   5.199   1.237   6.110  0.0507 -0.1630 -0.0551
 6385TIP3    H140718   5.291   1.266   6.112  0.2670 -0.8565  0.3295
 6385TIP3    H240719   5.164   1.264   6.195 -1.0729  3.0751 -1.3791
 6386TIP3   OH240720   0.210   2.759   7.572 -0.4187 -0.1520 -0.2369
 6386TIP3    H140721   0.226   2.687   7.510 -0.9802 -1.2640  0.8745
 6386TIP3    H240722   0.293   2.808   7.573 -0.3041 -0.2635 -1.6410
 6387TIP3   OH240723   2.614   4.699   0.570 -0.3384 -0.0647  0.7641
 6387TIP3    H140724   2.634   4.619   0.521  2.4188 -0.3558  2.1639
 6387TIP3    H240725   2.566   4.754   0.508  0.7526 -1.4012 -1.4057
 6388TIP3   OH240726   2.214   3.022   1.949  0.2673 -0.3476 -0.5434
 6388TIP3    H140727   2.269   2.946   1.964 -0.8099 -1.1167 -0.4066
 6388TIP3    H240728   2.203   3.062   2.036 -0.7833 -1.1860 -0.2698
 6389TIP3   OH240729   2.863   4.001   7.153 -0.1990  0.1572 -0.3300
 6389TIP3    H140730   2.912   4.014   7.072  1.1107  1.6969  0.6472
 6389TIP3    H240731   2.853   3.906   7.160 -1.7657  0.0176 -3.0494
 6390TIP3   OH240732   5.477   6.958   6.842 -0.2041  0.5881 -0.3325
 6390TIP3    H140733   5.443   7.046   6.857  0.9534  0.9172  0.5668
 6390TIP3    H240734   5.503   6.957   6.750 -1.2502  0.8040 -0.6376
 6391TIP3   OH240735   4.798   4.794   8.257 -0.1926  0.3649  0.3638
 6391TIP3    H140736   4.843   4.721   8.214  0.1218  0.6789  0.1603
 6391TIP3    H240737   4.800   4.864   8.193 -0.6160  0.5100  0.5104
 6392TIP3   OH240738   3.223   0.967   7.597 -0.0310  0.1662 -0.4155
 6392TIP3    H140739   3.280   0.953   7.674  0.7585  0.6365 -0.9033
 6392TIP3    H240740   3.265   0.917   7.527  1.0584  2.2594 -1.3627
 6393TIP3   OH240741   3.792   1.277   0.560 -0.2834  0.2328  0.0289
 6393TIP3    H140742   3.762   1.292   0.470  0.0959  0.7493 -0.0153
 6393TIP3    H240743   3.877   1.321   0.564  0.2134 -0.7325  0.3143
 6394TIP3   OH240744   1.527   4.388   0.089  0.0236  0.3719  0.3865
 6394TIP3    H140745   1.570   4.311   0.126  0.2406 -0.3096 -1.2200
 6394TIP3    H240746   1.520   4.449   0.163  2.4849 -0.0232  1.0280
 6395TIP3   OH240747   2.034   6.591   2.310  0.3253 -0.1061  0.4582
 6395TIP3    H140748   2.054   6.622   2.398  0.4089 -1.3279  0.8846
 6395TIP3    H240749   2.020   6.671   2.259 -0.2714  0.6009  1.6991
 6396TIP3   OH240750   4.575   6.377   8.310 -1.0279  0.3417 -0.0019
 6396TIP3    H140751   4.566   6.438   8.384 -1.0623 -1.1104  1.2423
 6396TIP3    H240752   4.528   6.299   8.339  0.0171 -0.7055 -1.0674
 6397TIP3   OH240753   6.270   1.179   2.113  0.2543 -0.0853 -0.6461
 6397TIP3    H140754   6.207   1.137   2.172 -0.0824  0.0102 -0.9344
 6397TIP3    H240755   6.238   1.269   2.105 -0.0147 -0.2470 -1.4101
 6398TIP3   OH240756   2.154   2.859   1.254 -0.2242  0.1949 -0.0003
 6398TIP3    H140757   2.064   2.871   1.284  0.0121 -0.9086  1.2579
 6398TIP3    H240758   2.194   2.945   1.263 -0.8421  0.4323  0.5607
 6399TIP3   OH240759   0.699   3.539   0.980  0.0203  0.8934 -0.0245
 6399TIP3    H140760   0.731   3.466   1.033 -1.1275 -0.6083 -1.3094
 6399TIP3    H240761   0.776   3.593   0.964  0.9358 -0.1276  0.8031
 6400TIP3   OH240762   0.257   0.319   1.636 -0.0931  0.4245  0.0267
 6400TIP3    H140763   0.276   0.253   1.569  0.5476  0.2327  0.3913
 6400TIP3    H240764   0.339   0.330   1.684 -0.2518  1.3313  0.1142
 6401TIP3   OH240765   5.545   4.241   0.959 -0.1376  0.1888 -0.3939
 6401TIP3    H140766   5.503   4.174   0.906 -0.1995 -0.4329  0.4207
 6401TIP3    H240767   5.617   4.196   1.003 -1.0411  0.2835  1.2667
 6402TIP3   OH240768   0.595   2.301   6.601 -0.0170  0.1458 -0.9143
 6402TIP3    H140769   0.655   2.290   6.527 -0.9105 -0.1956 -1.5944
 6402TIP3    H240770   0.592   2.215   6.642  1.3141  0.5884  0.1977
 6403TIP3   OH240771   4.897   3.418   6.472  0.1240 -0.0592  0.2835
 6403TIP3    H140772   4.939   3.396   6.555 -0.9462 -0.7966  0.6535
 6403TIP3    H240773   4.878   3.511   6.479  0.9297  0.1018  0.4508
 6404TIP3   OH240774   0.139   3.420   0.862 -0.0928  0.1983 -0.3123
 6404TIP3    H140775   0.062   3.425   0.919 -0.0959 -0.8379 -0.2031
 6404TIP3    H240776   0.116   3.472   0.785 -1.3801 -1.0087 -0.7905
 6405TIP3   OH240777   5.346   4.436   8.380  0.0775  0.1297  0.3896
 6405TIP3    H140778   5.344   4.341   8.387 -1.0698  0.1173  0.0522
 6405TIP3    H240779   5.439   4.458   8.377  0.3555 -0.9610  0.6403
 6406TIP3   OH240780   4.911   6.122   0.071  0.2290  0.6541 -0.2406
 6406TIP3    H140781   4.951   6.201   0.108  1.7095 -0.4015  0.4907
 6406TIP3    H240782   4.946   6.117  -0.018  1.8605 -0.2869  0.4079
 6407TIP3   OH240783   3.178   3.365   0.131  0.0838  0.1465 -0.0938
 6407TIP3    H140784   3.190   3.439   0.072 -0.7673  0.3873  0.0213
 6407TIP3    H240785   3.219   3.291   0.086  0.5927  0.5993 -0.3846
 6408TIP3   OH240786   6.339   1.236   0.146  0.7261  0.7647 -0.2568
 6408TIP3    H140787   6.351   1.227   0.240 -0.7401  0.0045 -0.1275
 6408TIP3    H240788   6.348   1.147   0.112 -0.8755  0.6967 -0.5597
 6409TIP3   OH240789   4.864   3.854   1.022  0.0844 -0.1358 -0.0739
 6409TIP3    H140790   4.897   3.933   1.065  1.3441  0.4564 -2.0162
 6409TIP3    H240791   4.933   3.830   0.960 -1.3409 -1.3605 -1.2420
 6410TIP3   OH240792   0.741   4.958   6.920  0.1544  0.3898 -0.1014
 6410TIP3    H140793   0.746   4.901   6.843 -4.6865  1.3347 -1.4709
 6410TIP3    H240794   0.758   5.046   6.885  0.5043  0.5622  0.4933
 6411TIP3   OH240795   0.216   2.974   8.345 -0.4117  0.0569 -0.7193
 6411TIP3    H140796   0.180   3.062   8.358 -0.1616  0.3063 -1.6779
 6411TIP3    H240797   0.165   2.938   8.272 -0.6264 -0.6654 -0.2234
 6412TIP3   OH240798   0.160   6.583   6.591  0.0065  0.5328  0.5262
 6412TIP3    H140799   0.246   6.557   6.623 -0.2273  0.1127  0.8257
 6412TIP3    H240800   0.121   6.501   6.560  0.3541  0.9627 -1.1648
 6413TIP3   OH240801   5.709   4.936   1.418 -0.3186  0.2828  0.0380
 6413TIP3    H140802   5.753   4.988   1.486  1.7618 -0.4772 -0.6450
 6413TIP3    H240803   5.650   4.878   1.466 -0.0074  0.8045  1.0793
 6414TIP3   OH240804   4.705   0.873   2.257 -0.3111 -0.0586  0.2994
 6414TIP3    H140805   4.705   0.783   2.289  1.4152  0.3623  1.6651
 6414TIP3    H240806   4.625   0.881   2.206  0.0378 -2.6931 -0.8017
 6415TIP3   OH240807   4.945   2.493   7.933 -0.2792 -0.2407 -0.2371
 6415TIP3    H140808   5.017   2.436   7.907 -0.3514 -0.2473 -0.4257
 6415TIP3    H240809   4.867   2.437   7.926 -0.0091 -1.2434  3.0420
 6416TIP3   OH240810   3.963   5.598   7.635 -0.2765  0.1739 -0.1188
 6416TIP3    H140811   4.020   5.549   7.575 -0.2899  0.4751 -0.3840
 6416TIP3    H240812   3.875   5.572   7.610 -0.2568 -0.3823  0.3708
 6417TIP3   OH240813   3.220   2.801   6.056 -0.0802 -0.0206 -0.4471
 6417TIP3    H140814   3.124   2.800   6.054 -0.0999  1.3533 -2.1715
 6417TIP3    H240815   3.246   2.727   6.002 -0.1576 -0.4287  0.0678
 6418TIP3   OH240816   4.896   6.802   2.255  0.3288  0.1615  0.1967
 6418TIP3    H140817   4.871   6.894   2.265 -1.5351 -0.4616  2.1057
 6418TIP3    H240818   4.971   6.791   2.313  1.2945  0.6895 -0.9104
 6419TIP3   OH240819   6.934   1.585   1.382 -0.1021  0.1851 -0.0533
 6419TIP3    H140820   6.998   1.565   1.314 -1.1940  0.1315 -1.0750
 6419TIP3    H240821   6.963   1.533   1.457  0.2574 -0.9363 -0.9394
 6420TIP3   OH240822   4.802   6.098   2.068 -0.5945 -0.1469 -0.1725
 6420TIP3    H140823   4.783   6.021   2.015 -0.9845  0.3442 -0.7563
 6420TIP3    H240824   4.770   6.171   2.017  0.5080  0.4881  0.0036
 6421TIP3   OH240825   3.553   3.513   7.498  0.1385  0.0913 -0.2488
 6421TIP3    H140826   3.514   3.444   7.550 -0.3334  1.1962  0.9195
 6421TIP3    H240827   3.626   3.471   7.452 -0.3684 -1.2383  0.1329
 6422TIP3   OH240828   5.239   0.987   7.272 -0.2732  0.2420  0.5945
 6422TIP3    H140829   5.288   0.950   7.345 -0.8230  1.7173  1.7498
 6422TIP3    H240830   5.220   1.077   7.298 -2.2290  0.2070 -0.4773
 6423TIP3   OH240831   6.051   1.136   7.129 -0.2267 -0.3173 -0.3387
 6423TIP3    H140832   6.126   1.145   7.071  1.5006 -3.1879  1.2594
 6423TIP3    H240833   6.007   1.056   7.101  0.9944 -2.1208  2.5047
 6424TIP3   OH240834   4.783   4.774   6.651 -0.4100  0.0014  0.3655
 6424TIP3    H140835   4.749   4.732   6.573  0.9250  0.4762 -0.5055
 6424TIP3    H240836   4.759   4.866   6.642 -0.4382  0.0211  0.6208
 6425TIP3   OH240837   5.995   2.958   1.514  0.6094  0.9272  0.0863
 6425TIP3    H140838   6.071   2.967   1.572  0.6448  0.7161  0.0705
 6425TIP3    H240839   5.956   2.875   1.538 -0.0776  1.3997  0.6404
 6426TIP3   OH240840   0.202   3.099   1.423 -0.0060  0.2569 -0.3332
 6426TIP3    H140841   0.228   3.190   1.437  0.5356 -0.2860  2.9020
 6426TIP3    H240842   0.285   3.050   1.424 -0.4377 -0.4921  0.5025
 6427TIP3   OH240843   4.601   2.076   0.523 -0.1823 -0.0604  0.5194
 6427TIP3    H140844   4.668   2.017   0.489 -0.6502 -0.3717  0.1326
 6427TIP3    H240845   4.526   2.064   0.465  0.2597  2.1082 -0.5998
 6428TIP3   OH240846   6.059   5.789   0.618  0.1319 -0.2581 -0.0162
 6428TIP3    H140847   6.033   5.707   0.659 -0.9360  0.6417  1.2190
 6428TIP3    H240848   5.977   5.839   0.611  0.4934  0.1169 -2.1606
 6429TIP3   OH240849   4.957   1.027   0.300  0.2807  0.8852 -0.0743
 6429TIP3    H140850   4.952   1.009   0.206  2.8674 -2.2420  0.2065
 6429TIP3    H240851   5.023   1.096   0.308 -2.0260  3.3306 -0.5668
 6430TIP3   OH240852   6.806   3.962   8.061 -0.6641  0.0281 -0.0988
 6430TIP3    H140853   6.861   4.029   8.100 -1.3093  0.3282  0.3180
 6430TIP3    H240854   6.867   3.903   8.017 -0.0778  0.8015 -0.3466
 6431TIP3   OH240855   2.642   4.884   7.945  0.0699  0.1812  0.1273
 6431TIP3    H140856   2.688   4.893   8.029  0.7455  1.0438 -0.3212
 6431TIP3    H240857   2.616   4.792   7.943 -2.8780  0.7688  2.7422
 6432TIP3   OH240858   1.267   1.975   0.801 -0.0711  0.3882  0.0265
 6432TIP3    H140859   1.331   1.974   0.872 -0.6550 -4.0496  0.7513
 6432TIP3    H240860   1.183   1.991   0.845 -0.0591  1.1047 -0.2003
 6433TIP3   OH240861   1.979   3.462   6.902  0.2808 -0.0007  0.1711
 6433TIP3    H140862   2.073   3.475   6.894  0.3372 -0.2412  0.4326
 6433TIP3    H240863   1.946   3.545   6.938  0.2282  0.5187 -1.0203
 6434TIP3   OH240864   5.056   1.319   1.254  0.6313  0.1350 -1.0061
 6434TIP3    H140865   5.036   1.242   1.307 -1.7079  1.5755  0.3812
 6434TIP3    H240866   5.106   1.376   1.313 -0.0392  0.8176 -1.0931
 6435TIP3   OH240867   5.335   5.719   8.188 -0.4183 -0.4367 -0.2018
 6435TIP3    H140868   5.263   5.708   8.126  0.2413  1.2874 -1.3373
 6435TIP3    H240869   5.405   5.760   8.137  1.2353 -1.6283  0.9810
 6436TIP3   OH240870   3.863   4.664   1.360 -0.7876  0.3370  0.0841
 6436TIP3    H140871   3.853   4.744   1.412  1.7887  0.6246  0.2760
 6436TIP3    H240872   3.828   4.686   1.274 -2.0453  0.9517  0.7338
 6437TIP3   OH240873   4.355   5.189   2.320 -0.2322 -0.5388  0.4278
 6437TIP3    H140874   4.270   5.151   2.300 -1.0451  2.2389 -2.0295
 6437TIP3    H240875   4.375   5.245   2.245  2.5045  1.0162  2.1487
 6438TIP3   OH240876   0.023   4.851   6.985  0.1413  0.3995  0.1453
 6438TIP3    H140877  -0.060   4.899   6.992  0.2091  0.7213 -0.9745
 6438TIP3    H240878   0.079   4.908   6.931  0.8589 -0.1144  0.3284
 6439TIP3   OH240879   5.846   6.368   0.569  0.0091 -0.3461 -0.4400
 6439TIP3    H140880   5.829   6.290   0.517 -0.4726 -1.5286  1.4000
 6439TIP3    H240881   5.937   6.357   0.599  0.1146  0.0736 -0.5948
 6440TIP3   OH240882   5.158   3.236   1.136  0.2165 -0.4300 -0.5968
 6440TIP3    H140883   5.177   3.143   1.120  1.7265 -0.1629 -0.5123
 6440TIP3    H240884   5.158   3.244   1.231 -0.7976 -0.4909 -0.5780
 6441TIP3   OH240885   3.318   1.207   0.961  0.2471  0.4157  0.3740
 6441TIP3    H140886   3.383   1.179   0.897  0.2379  0.3579  0.3901
 6441TIP3    H240887   3.314   1.302   0.951  0.0766  0.3823  0.1314
 6442TIP3   OH240888   2.228   3.463   7.660  0.0786 -0.0653  0.0724
 6442TIP3    H140889   2.243   3.556   7.646 -1.6159 -0.2100 -3.7739
 6442TIP3    H240890   2.218   3.426   7.573 -0.4000 -3.7030  1.4809
 6443TIP3   OH240891   0.928   2.587   6.080 -0.5239  0.5554 -0.1491
 6443TIP3    H140892   0.873   2.662   6.057  1.3165  1.9579 -0.1496
 6443TIP3    H240893   1.002   2.591   6.020  0.3660 -0.3795  0.8262
 6444TIP3   OH240894   1.775   3.688   8.113  0.6302  0.0369 -0.2457
 6444TIP3    H140895   1.737   3.629   8.048  0.1837  0.1584 -0.0930
 6444TIP3    H240896   1.720   3.766   8.111  0.0954 -0.2956  0.8794
 6445TIP3   OH240897   0.318   2.053   8.405  0.8797  0.6817 -0.6188
 6445TIP3    H140898   0.316   1.963   8.375  1.8294 -0.0932  1.4738
 6445TIP3    H240899   0.382   2.054   8.476 -0.5466  2.5582  0.7554
 6446TIP3   OH240900   3.002   3.626   1.344 -0.0111 -0.0975  0.3279
 6446TIP3    H140901   3.062   3.647   1.273 -1.1588 -0.1995 -0.7004
 6446TIP3    H240902   3.059   3.608   1.419  1.5174 -3.8431 -1.4577
 6447TIP3   OH240903   0.174   1.322   1.755  0.1920  0.1806  0.5120
 6447TIP3    H140904   0.254   1.281   1.723 -1.3359 -1.3851 -1.6128
 6447TIP3    H240905   0.113   1.249   1.767 -1.6094  1.4979 -0.1584
 6448TIP3   OH240906   5.863   4.501   7.202 -0.2066  0.0050 -0.7975
 6448TIP3    H140907   5.869   4.582   7.252 -1.0182  0.2507 -1.0928
 6448TIP3    H240908   5.780   4.462   7.228 -0.1280 -0.4059 -1.1464
 6449TIP3   OH240909   1.603   6.614   1.057 -0.6988  0.0153 -0.6129
 6449TIP3    H140910   1.524   6.562   1.042 -0.3359 -0.5373 -0.6488
 6449TIP3    H240911   1.630   6.591   1.146 -1.1312  0.9640 -0.2181
 6450TIP3   OH240912   1.377   0.908   0.751 -0.6415  0.3615  0.1625
 6450TIP3    H140913   1.427   0.833   0.719 -2.5812 -0.8433 -0.2084
 6450TIP3    H240914   1.370   0.893   0.846 -2.2258 -0.7455 -0.0931
 6451TIP3   OH240915   5.688   3.058   0.992 -0.9022 -0.0940  0.2733
 6451TIP3    H140916   5.728   2.971   1.000 -1.5743 -0.4980 -0.5741
 6451TIP3    H240917   5.621   3.047   0.925  0.4967  1.6302 -1.5245
 6452TIP3   OH240918   2.283   5.474   6.711 -0.0993 -0.3639 -0.0283
 6452TIP3    H140919   2.291   5.411   6.782 -1.5645 -1.4311 -0.7626
 6452TIP3    H240920   2.243   5.551   6.750  3.2492  0.8841  1.2697
 6453TIP3   OH240921   3.892   3.960   7.757 -0.4219  0.2807 -0.2557
 6453TIP3    H140922   3.897   3.936   7.850 -1.0010 -1.8259 -0.7137
 6453TIP3    H240923   3.799   3.972   7.740 -0.3633  0.1195 -0.6921
 6454TIP3   OH240924   0.918   6.978   7.737 -0.2930  0.2164 -0.2732
 6454TIP3    H140925   0.930   7.072   7.752 -0.7541  0.5370 -1.7629
 6454TIP3    H240926   0.847   6.973   7.673 -2.6389 -1.3094  2.2360
 6455TIP3   OH240927   4.972   5.362   1.171  0.1071  0.1693 -0.0455
 6455TIP3    H140928   5.028   5.398   1.102  0.8391  0.0271  0.4600
 6455TIP3    H240929   4.909   5.307   1.125 -0.5041  1.4177 -0.7589
 6456TIP3   OH240930   5.511   2.285   8.388  0.0611  0.2662  0.2128
 6456TIP3    H140931   5.537   2.339   8.313 -1.2175  0.8184  0.1297
 6456TIP3    H240932   5.549   2.329   8.464 -0.8312  1.2360  0.1289
 6457TIP3   OH240933   5.919   4.247   0.754  0.4423  0.3252 -0.4522
 6457TIP3    H140934   5.925   4.186   0.827 -3.7133  0.9957  0.7333
 6457TIP3    H240935   5.883   4.195   0.682 -1.0213  0.8378 -0.1224
 6458TIP3   OH240936   3.124   2.612   8.291 -0.0521  0.3412  0.5670
 6458TIP3    H140937   3.054   2.570   8.341  1.6255 -0.9085  2.0076
 6458TIP3    H240938   3.132   2.558   8.212 -0.6531  0.4487  0.4277
 6459TIP3   OH240939   6.807   5.184   6.664  0.2708 -0.1119  0.7495
 6459TIP3    H140940   6.749   5.110   6.677  0.4409 -0.7014 -1.5236
 6459TIP3    H240941   6.815   5.193   6.569  0.9408  2.2857  0.9591
 6460TIP3   OH240942   1.803   0.504   1.474 -0.1045  0.3538 -0.6424
 6460TIP3    H140943   1.793   0.509   1.379  0.1268 -0.9003 -0.7431
 6460TIP3    H240944   1.893   0.530   1.491  0.2753 -0.7437 -0.9057
 6461TIP3   OH240945   3.177   0.081   0.784 -0.6436  0.4691 -0.2296
 6461TIP3    H140946   3.246   0.031   0.739 -0.2093  0.3441  0.5664
 6461TIP3    H240947   3.186   0.170   0.749 -0.8529  0.1932 -1.0033
 6462TIP3   OH240948   0.750   6.332   6.883 -0.2830 -0.6395  0.3435
 6462TIP3    H140949   0.682   6.378   6.834  0.4248 -0.1343 -0.1801
 6462TIP3    H240950   0.828   6.387   6.873 -0.0174 -0.7517  1.6777
 6463TIP3   OH240951   1.481   0.313   6.469 -0.3038  0.1404  0.3586
 6463TIP3    H140952   1.497   0.221   6.491  1.3402  0.6097  1.3120
 6463TIP3    H240953   1.445   0.351   6.549  0.8945  0.7352  0.6413
 6464TIP3   OH240954   4.630   3.167   0.443 -0.6731  0.3823 -0.0037
 6464TIP3    H140955   4.561   3.106   0.419 -0.1001  0.0836 -0.9329
 6464TIP3    H240956   4.614   3.245   0.390  0.1051  0.0401 -0.7738
 6465TIP3   OH240957   0.975   1.637   0.958 -0.5056  0.1576  0.1035
 6465TIP3    H140958   0.880   1.628   0.957 -0.4746 -0.2761  0.7043
 6465TIP3    H240959   1.000   1.629   1.050 -0.1781  3.7302  0.4368
 6466TIP3   OH240960   5.968   2.697   1.601  0.8013 -0.4764  0.0948
 6466TIP3    H140961   5.914   2.640   1.657  0.6336 -0.3762  0.0360
 6466TIP3    H240962   6.053   2.653   1.598  1.0355 -0.1251  1.0129
 6467TIP3   OH240963   2.925   2.294   7.937 -0.5047  0.6086  0.4275
 6467TIP3    H140964   2.836   2.323   7.958  0.6426  3.2727  2.1479
 6467TIP3    H240965   2.929   2.204   7.970 -2.6065  0.3651  0.1135
 6468TIP3   OH240966   1.139   6.382   0.875 -0.8355 -0.2835 -0.0827
 6468TIP3    H140967   1.194   6.319   0.828 -0.4741  1.0074 -1.4711
 6468TIP3    H240968   1.074   6.329   0.920 -0.3309 -1.6618 -0.9335
 6469TIP3   OH240969   2.606   4.813   6.695  0.6647 -0.3167 -0.5304
 6469TIP3    H140970   2.572   4.729   6.665  1.3977  0.0380 -2.5025
 6469TIP3    H240971   2.690   4.822   6.650 -0.1125  2.1601 -1.6354
 6470TIP3   OH240972   4.879   5.782   0.856 -0.4599  0.6758 -0.3210
 6470TIP3    H140973   4.876   5.692   0.824  0.4699  1.1096 -1.7060
 6470TIP3    H240974   4.836   5.834   0.788  0.6120  1.4838 -0.4207
 6471TIP3   OH240975   3.983   3.023   7.439  0.7110  0.7171  0.1709
 6471TIP3    H140976   3.943   3.064   7.516  0.3167  2.7350 -1.0472
 6471TIP3    H240977   4.038   2.953   7.475 -1.4727 -0.1346  2.1108
 6472TIP3   OH240978   1.345   4.113   7.216 -0.5396  0.2101 -0.3646
 6472TIP3    H140979   1.380   4.123   7.304  2.3310  0.1502 -1.4162
 6472TIP3    H240980   1.273   4.050   7.227  1.7358 -2.3128  1.5487
 6473TIP3   OH240981   0.234   6.450   6.884  0.0573  0.9022 -0.5392
 6473TIP3    H140982   0.240   6.431   6.977  1.1891 -0.2674 -0.8183
 6473TIP3    H240983   0.239   6.364   6.841  0.1529  1.4619 -1.6996
 6474TIP3   OH240984   4.316   1.358   0.898  0.0451  0.6251  0.2814
 6474TIP3    H140985   4.256   1.366   0.972  0.4199  0.6580  0.5869
 6474TIP3    H240986   4.401   1.384   0.933  0.3689 -0.0804  0.0422
 6475TIP3   OH240987   4.252   0.484   7.495  0.4142 -0.0149 -0.1475
 6475TIP3    H140988   4.174   0.524   7.533  0.4617  0.0931 -0.1641
 6475TIP3    H240989   4.234   0.390   7.497  0.5073 -0.0261  0.3453
 6476TIP3   OH240990   4.135   6.008   0.127 -0.0505 -0.2799 -0.1047
 6476TIP3    H140991   4.054   5.996   0.177  0.6895  3.6391  2.5259
 6476TIP3    H240992   4.201   5.961   0.177 -0.2496 -1.5450 -0.9779
 6477TIP3   OH240993   4.429   1.382   0.331  0.2487  0.4911 -0.1617
 6477TIP3    H140994   4.403   1.290   0.340  0.3243  0.3311 -1.3693
 6477TIP3    H240995   4.521   1.378   0.305  0.1334  0.8900 -0.6462
 6478TIP3   OH240996   5.301   0.653   1.117 -0.2913  0.0218 -0.0512
 6478TIP3    H140997   5.391   0.666   1.148  0.0057 -0.7950 -0.5510
 6478TIP3    H240998   5.247   0.674   1.193  0.3192  0.5041  0.2609
 6479TIP3   OH240999   5.284   6.443   1.436  0.1688 -0.6007 -0.2008
 6479TIP3    H141000   5.215   6.509   1.440  0.2333 -0.5883  1.3144
 6479TIP3    H241001   5.290   6.420   1.343  0.0675  1.4136 -0.7481
 6480TIP3   OH241002   1.365   6.476   7.685 -0.1723 -0.6626  0.5789
 6480TIP3    H141003   1.284   6.520   7.658 -0.0127 -0.8489 -0.2211
 6480TIP3    H241004   1.359   6.473   7.781 -0.1270  1.2137  0.6870
 6481TIP3   OH241005   3.609   6.725   0.118 -0.0444  0.9957 -0.4327
 6481TIP3    H141006   3.559   6.720   0.036  0.9388 -0.2247 -0.9911
 6481TIP3    H241007   3.610   6.636   0.151  2.4080  0.7856 -0.8617
 6482TIP3   OH241008   0.372   0.319   7.309  0.5177 -0.2922  0.4266
 6482TIP3    H141009   0.365   0.277   7.395  1.0049 -0.3554  0.4365
 6482TIP3    H241010   0.466   0.328   7.293  0.5249 -2.1149 -0.9744
 6483TIP3   OH241011   0.912   1.202   1.072  0.1976 -0.5417 -0.5447
 6483TIP3    H141012   0.829   1.226   1.113  0.2626  0.4492 -0.9575
 6483TIP3    H241013   0.972   1.188   1.145  0.1028  0.3915 -0.2824
 6484TIP3   OH241014   3.276   5.705   1.474 -0.3309 -0.0924  0.4195
 6484TIP3    H141015   3.298   5.623   1.518 -1.1288  0.0290  1.0701
 6484TIP3    H241016   3.346   5.765   1.500  1.3380 -1.0640 -1.6301
 6485TIP3   OH241017   2.291   4.337   0.489 -0.0408  0.3560  0.1445
 6485TIP3    H141018   2.271   4.430   0.477 -0.8560  0.1234 -0.3460
 6485TIP3    H241019   2.324   4.331   0.578  2.1676  1.4636 -0.5444
 6486TIP3   OH241020   6.176   3.428   6.073 -0.2103  0.0238  0.2633
 6486TIP3    H141021   6.091   3.388   6.057  0.3216 -0.7878 -0.5967
 6486TIP3    H241022   6.240   3.362   6.046  0.6870  1.1192 -0.3928
 6487TIP3   OH241023   0.318   1.813   1.290 -0.2215 -0.0265  0.2938
 6487TIP3    H141024   0.292   1.822   1.382 -0.0149 -0.0358  0.3551
 6487TIP3    H241025   0.338   1.720   1.281 -1.7447 -0.3320 -0.1707
 6488TIP3   OH241026   5.894   0.498   7.692 -0.0930 -0.3533  0.2163
 6488TIP3    H141027   5.926   0.422   7.741  1.6559  0.2461  0.1051
 6488TIP3    H241028   5.945   0.572   7.727 -0.0758  0.3784 -1.2509
 6489TIP3   OH241029   2.474   0.687   6.014 -0.0396 -0.3449  0.4000
 6489TIP3    H141030   2.535   0.700   5.941 -0.7488 -2.7996 -0.7345
 6489TIP3    H241031   2.431   0.603   5.995 -0.8934 -0.6505  3.2087
 6490TIP3   OH241032   5.803   2.044   6.658 -0.2220 -0.0163 -0.7696
 6490TIP3    H141033   5.806   2.121   6.715  1.5306 -0.9137  0.4274
 6490TIP3    H241034   5.794   2.081   6.570 -0.2235  1.5153 -0.1695
 6491TIP3   OH241035   2.197   4.210   8.100 -0.2355  0.0458  0.6984
 6491TIP3    H141036   2.182   4.248   8.014  2.9971 -0.4042 -0.2017
 6491TIP3    H241037   2.192   4.284   8.160 -0.0604  0.8156 -0.2165
 6492TIP3   OH241038   0.833   5.977   7.972 -0.9262  0.3146  0.1369
 6492TIP3    H141039   0.818   6.046   8.037 -0.3881  1.1198 -0.5795
 6492TIP3    H241040   0.789   6.008   7.893 -0.9960 -0.3435 -0.0917
 6493TIP3   OH241041   4.588   2.071   1.354  0.2696  0.0294 -0.1295
 6493TIP3    H141042   4.621   1.982   1.369 -2.8301 -1.5557 -1.6826
 6493TIP3    H241043   4.584   2.080   1.259  0.7693  1.9871 -0.0098
 6494TIP3   OH241044   4.133   3.498   1.882 -0.0594  0.3055  0.3048
 6494TIP3    H141045   4.159   3.514   1.973  1.2559  0.8670 -0.1471
 6494TIP3    H241046   4.050   3.544   1.873  0.2522  1.0236  0.9809
 6495TIP3   OH241047   3.717   0.104   7.037  0.3518 -0.0972 -0.1807
 6495TIP3    H141048   3.680   0.185   7.072 -3.4071 -0.0779 -3.5524
 6495TIP3    H241049   3.795   0.131   6.990  1.1884  0.9081  1.6697
 6496TIP3   OH241050   6.014   6.538   8.293 -0.5416  0.0068  0.5332
 6496TIP3    H141051   5.951   6.466   8.295  0.5066 -0.9255  1.1580
 6496TIP3    H241052   5.974   6.608   8.344 -1.0213 -0.6064  0.9952
 6497TIP3   OH241053   2.881   0.424   7.400  0.0267 -0.0138  0.1129
 6497TIP3    H141054   2.808   0.463   7.352 -0.2256 -2.6279 -1.8267
 6497TIP3    H241055   2.953   0.487   7.389 -0.6153  0.4106 -2.0256
 6498TIP3   OH241056   1.875   1.807   0.523  0.3479 -0.5674  0.5734
 6498TIP3    H141057   1.793   1.763   0.547  0.8563 -2.4634 -0.9112
 6498TIP3    H241058   1.909   1.841   0.605 -1.3036 -0.8376  1.4147
 6499TIP3   OH241059   2.681   1.954   8.220  0.5331 -0.2392  0.1105
 6499TIP3    H141060   2.759   1.977   8.269  1.7161  0.2449 -1.8745
 6499TIP3    H241061   2.653   1.870   8.256  1.5365 -0.0718  1.3268
 6500TIP3   OH241062   1.145   1.030   1.259  0.0596 -0.1186 -0.8881
 6500TIP3    H141063   1.233   1.053   1.230 -0.6718  0.2725 -2.9960
 6500TIP3    H241064   1.143   1.054   1.351  2.0087  0.2783 -0.9036
 6501TIP3   OH241065   0.475   0.986   7.406  0.0755 -0.3625 -0.4297
 6501TIP3    H141066   0.385   0.955   7.416 -1.1099  2.8219 -0.2942
 6501TIP3    H241067   0.496   0.966   7.314 -1.5391  0.5966 -1.0532
 6502TIP3   OH241068   3.237   5.314   1.300 -0.0092  0.2881 -0.1074
 6502TIP3    H141069   3.261   5.403   1.274  1.2254  0.1395  0.4906
 6502TIP3    H241070   3.203   5.275   1.219  0.7690  0.8540 -0.7332
 6503TIP3   OH241071   4.764   5.199   2.246 -0.7274 -0.9579  0.1296
 6503TIP3    H141072   4.809   5.244   2.318 -3.1019  0.1830  1.0224
 6503TIP3    H241073   4.835   5.161   2.194  1.4109  2.2904  0.3364
 6504TIP3   OH241074   4.356   2.103   1.806  0.1858 -0.1764 -0.0671
 6504TIP3    H141075   4.289   2.149   1.856 -0.5229 -0.3687 -0.8127
 6504TIP3    H241076   4.326   2.012   1.803  0.1363 -0.1375 -0.9594
 6505TIP3   OH241077   5.832   5.927   0.606  0.4697 -0.2928 -0.6935
 6505TIP3    H141078   5.804   5.972   0.686  0.4216 -0.0405 -0.8535
 6505TIP3    H241079   5.818   5.990   0.536 -0.5453 -0.9077 -1.0569
 6506TIP3   OH241080   4.049   0.748   1.004  0.0955  1.0410 -0.0227
 6506TIP3    H141081   4.002   0.809   0.948 -0.5650  1.7244  1.2224
 6506TIP3    H241082   4.015   0.765   1.092  1.4012  0.3155  0.6603
 6507TIP3   OH241083   6.777   1.550   8.067  0.0170 -0.5105  0.0680
 6507TIP3    H141084   6.704   1.578   8.012  0.6153  1.1091  0.0576
 6507TIP3    H241085   6.776   1.610   8.142 -0.0266 -1.9002  1.2271
 6508TIP3   OH241086   0.682   6.035   8.368 -0.5729 -0.1206 -0.2310
 6508TIP3    H141087   0.619   6.056   8.437 -0.4612  0.7861 -0.3970
 6508TIP3    H241088   0.629   5.997   8.299 -0.9567  0.6477 -0.3719
 6509TIP3   OH241089   0.219   4.899   1.618  0.2431  0.9880 -0.0949
 6509TIP3    H141090   0.243   4.919   1.708 -0.5504 -1.2486  0.7027
 6509TIP3    H241091   0.282   4.946   1.564  0.1793  3.1235  1.5616
 6510TIP3   OH241092   4.473   4.303   8.342 -0.2828 -0.0808 -0.4323
 6510TIP3    H141093   4.559   4.344   8.351  0.4578 -0.9873 -2.5275
 6510TIP3    H241094   4.412   4.368   8.374  1.1116  1.1152 -0.0842
 6511TIP3   OH241095   4.915   3.481   7.134  0.4062 -0.0862 -0.4320
 6511TIP3    H141096   4.877   3.478   7.046 -1.7109  0.8451  0.3616
 6511TIP3    H241097   4.843   3.512   7.189  1.6046 -0.8524  1.6762
 6512TIP3   OH241098   2.634   2.448   2.178  0.1928  0.1724 -0.4227
 6512TIP3    H141099   2.652   2.493   2.261 -1.7171  1.8065 -0.8049
 6512TIP3    H241100   2.606   2.518   2.119  0.9435 -1.0443 -2.2986
 6513TIP3   OH241101   4.175   4.566   6.975  0.4349  0.3649  0.3427
 6513TIP3    H141102   4.264   4.530   6.966 -1.0648 -3.9174  0.2625
 6513TIP3    H241103   4.159   4.566   7.069  0.5475  1.3079  0.3672
 6514TIP3   OH241104   5.225   0.833   2.222  0.6224  0.4921  0.7019
 6514TIP3    H141105   5.135   0.859   2.245  0.4559  0.3858  0.1850
 6514TIP3    H241106   5.220   0.739   2.209  0.3875  0.7115 -1.1242
 6515TIP3   OH241107   2.135   2.485   8.288 -0.2985 -0.1184 -0.0593
 6515TIP3    H141108   2.135   2.389   8.299  0.3463 -0.0791  0.3892
 6515TIP3    H241109   2.226   2.510   8.306  0.1898  0.3066 -2.7100
 6516TIP3   OH241110   6.260   5.657   6.810  1.3889 -0.2212 -0.0225
 6516TIP3    H141111   6.323   5.658   6.739 -0.0877  0.6664 -1.3721
 6516TIP3    H241112   6.231   5.748   6.818  1.1397 -0.3989  1.3739
 6517TIP3   OH241113   0.829   6.192   0.585 -0.1264  0.1126 -0.1804
 6517TIP3    H141114   0.815   6.161   0.496 -0.5975  0.1977 -0.1407
 6517TIP3    H241115   0.751   6.245   0.604 -1.8716 -2.7832  1.5515
 6518TIP3   OH241116   6.747   5.032   7.821  0.1321 -0.4229  0.2112
 6518TIP3    H141117   6.779   4.973   7.753 -1.9621 -1.9451  0.4376
 6518TIP3    H241118   6.823   5.051   7.875  1.1888 -1.6630 -0.7933
 6519TIP3   OH241119   2.369   4.804   7.221 -0.3188 -0.2686  0.8066
 6519TIP3    H141120   2.463   4.786   7.217 -0.4012 -0.6676  0.5594
 6519TIP3    H241121   2.362   4.899   7.231  0.1098 -0.2383  0.8086
 6520TIP3   OH241122   5.924   1.236   7.669 -0.1308  0.0805  0.0882
 6520TIP3    H141123   5.868   1.297   7.620 -1.7963 -0.6375  1.0232
 6520TIP3    H241124   5.907   1.151   7.629 -0.6393 -0.3266  1.1266
 6521TIP3   OH241125   4.744   3.077   7.728  0.5524  0.1293 -0.5201
 6521TIP3    H141126   4.770   2.996   7.772  0.9675  1.0279  0.9807
 6521TIP3    H241127   4.658   3.098   7.765 -0.1862 -0.3179 -1.9210
 6522TIP3   OH241128   4.229   2.828   7.068 -0.7681  0.3215 -0.0891
 6522TIP3    H141129   4.165   2.804   7.134  0.1562 -1.0492  0.3529
 6522TIP3    H241130   4.205   2.775   6.991  0.2597 -0.8041  0.3330
 6523TIP3   OH241131   1.216   5.076   7.222  0.1803  0.1950 -0.0683
 6523TIP3    H141132   1.220   4.996   7.276 -0.7215 -0.1993 -0.5701
 6523TIP3    H241133   1.308   5.102   7.212  0.3320  0.8735  2.5103
 6524TIP3   OH241134   6.960   6.659   0.026 -0.4116  0.2355  0.5756
 6524TIP3    H141135   7.019   6.594   0.064 -1.1762 -0.5599  0.4321
 6524TIP3    H241136   6.991   6.671  -0.064 -0.9668 -0.8289  0.2252
 6525TIP3   OH241137   2.154   2.187   1.968  0.2563  0.4755  0.2119
 6525TIP3    H141138   2.131   2.214   1.879  0.0936  0.7088  0.3220
 6525TIP3    H241139   2.086   2.124   1.992  0.5734  0.0430 -0.0046
 6526TIP3   OH241140   5.793   1.048   0.952 -0.1472  0.5266  0.0981
 6526TIP3    H141141   5.716   1.047   0.896 -0.2741  0.6359  0.2699
 6526TIP3    H241142   5.760   1.031   1.040 -0.0822  1.4068  0.3008
 6527TIP3   OH241143   3.194   5.984   0.748  0.0953  0.2498 -0.4305
 6527TIP3    H141144   3.132   5.945   0.686 -1.5843  2.4904 -0.2657
 6527TIP3    H241145   3.145   5.991   0.830  1.7410 -1.0904  0.7469
 6528TIP3   OH241146   4.224   0.729   1.431 -0.4417 -0.0233  0.3255
 6528TIP3    H141147   4.278   0.657   1.399 -0.5046 -0.0595  0.3019
 6528TIP3    H241148   4.274   0.766   1.504  0.2121  0.7453 -0.4871
 6529TIP3   OH241149   0.698   6.650   2.056  1.3376  0.7374 -0.2565
 6529TIP3    H141150   0.639   6.725   2.057  3.2678  2.3239 -0.1111
 6529TIP3    H241151   0.707   6.628   1.963 -1.7534 -1.5408 -0.2038
 6530TIP3   OH241152   4.621   0.495   0.055  0.6698 -0.9650 -0.0332
 6530TIP3    H141153   4.699   0.532   0.012  0.3017  0.2963  0.3289
 6530TIP3    H241154   4.634   0.513   0.148 -0.2155 -0.3736 -0.0039
 6531TIP3   OH241155   0.426   6.489   2.094  0.0028 -0.6007 -0.2704
 6531TIP3    H141156   0.362   6.426   2.127 -1.0291  0.2115 -0.6614
 6531TIP3    H241157   0.496   6.435   2.057 -0.7326 -1.5096 -0.3821
 6532TIP3   OH241158   5.633   5.447   0.019  0.0234  0.1250  0.2523
 6532TIP3    H141159   5.602   5.461  -0.071  1.4299 -0.4114 -0.3497
 6532TIP3    H241160   5.727   5.432   0.009 -0.1993 -2.7121  1.5158
 6533TIP3   OH241161   1.777   2.777   0.231 -0.0346  0.5615 -0.0865
 6533TIP3    H141162   1.848   2.735   0.182  0.6368  1.3757  0.1710
 6533TIP3    H241163   1.731   2.829   0.165 -0.6054 -0.2238 -0.3197
 6534TIP3   OH241164   1.739   0.110   7.691 -0.1241 -0.1824  0.1451
 6534TIP3    H141165   1.672   0.045   7.715  0.3188 -0.4208  0.7579
 6534TIP3    H241166   1.689   0.185   7.660 -0.6605 -0.6205 -0.0703
 6535TIP3   OH241167   4.541   2.820   0.574 -0.4166  0.2977 -0.4698
 6535TIP3    H141168   4.528   2.725   0.579 -0.4278  0.1682 -2.2949
 6535TIP3    H241169   4.635   2.832   0.592  0.0342 -0.2989 -2.1985
 6536TIP3   OH241170   6.362   6.379   7.725 -0.7782 -0.4241 -0.2252
 6536TIP3    H141171   6.396   6.404   7.811 -1.7503 -0.4536  0.1829
 6536TIP3    H241172   6.412   6.301   7.702 -0.2832 -0.2260  0.1722
 6537TIP3   OH241173   4.171   3.618   1.584 -0.3848  0.5268 -0.1635
 6537TIP3    H141174   4.224   3.543   1.612  0.8935  1.5739  0.3517
 6537TIP3    H241175   4.145   3.660   1.666 -0.0434  1.3292 -0.4561
 6538TIP3   OH241176   0.652   6.487   0.075  0.5573  0.7042  0.3019
 6538TIP3    H141177   0.740   6.522   0.062  1.3967 -1.3185  0.3160
 6538TIP3    H241178   0.640   6.486   0.170  1.6987 -1.6789  0.4781
 6539TIP3   OH241179   3.938   6.144   7.137 -0.1764 -0.4812  0.1678
 6539TIP3    H141180   3.908   6.194   7.061 -0.7012 -0.6954  0.2281
 6539TIP3    H241181   3.862   6.141   7.195  0.2685 -0.1749  0.7812
 6540TIP3   OH241182   1.189   4.446   0.927 -0.4920 -0.2279  0.3198
 6540TIP3    H141183   1.250   4.373   0.914  1.3537  1.0289  1.4654
 6540TIP3    H241184   1.164   4.472   0.838  1.1421 -0.4166 -0.2304
 6541TIP3   OH241185   6.991   6.750   0.676  0.1847 -0.2339 -0.0008
 6541TIP3    H141186   6.991   6.656   0.695  1.2390 -0.3504 -0.4847
 6541TIP3    H241187   6.915   6.763   0.619  1.0598 -1.1421 -1.4274
 6542TIP3   OH241188   5.292   5.019   0.466 -0.4506  0.1737  0.1987
 6542TIP3    H141189   5.243   4.991   0.389 -0.4534  1.7897 -0.4304
 6542TIP3    H241190   5.380   4.983   0.452 -0.6880 -0.3057 -0.0984
 6543TIP3   OH241191   2.503   0.713   6.872  0.0738 -0.0723 -0.0870
 6543TIP3    H141192   2.420   0.754   6.847  0.2043 -0.6526 -1.5868
 6543TIP3    H241193   2.480   0.622   6.890  0.2738 -0.0673  0.1910
 6544TIP3   OH241194   5.407   3.709   6.051  0.5193 -0.2120  0.4751
 6544TIP3    H141195   5.461   3.648   6.102  0.2714 -0.2018  0.7513
 6544TIP3    H241196   5.330   3.724   6.105  0.8630  0.8515  0.7003
 6545TIP3   OH241197   4.500   6.770   0.395  0.5931  0.1550  0.2325
 6545TIP3    H141198   4.548   6.783   0.313  0.7975  0.9802  0.4742
 6545TIP3    H241199   4.564   6.788   0.464  0.2745  0.0131  0.5713
 6546TIP3   OH241200   0.600   4.547   8.396 -0.6146  0.6213 -0.4174
 6546TIP3    H141201   0.682   4.517   8.436 -0.2227  1.0530 -0.8815
 6546TIP3    H241202   0.623   4.630   8.352 -1.7145  1.7692  1.0565
 6547TIP3   OH241203   0.123   4.399   1.197  0.2178  0.6193  0.0986
 6547TIP3    H141204   0.058   4.330   1.184 -1.3706  1.9798  0.4317
 6547TIP3    H241205   0.200   4.354   1.229 -0.9551 -0.9394  0.8475
 6548TIP3   OH241206   1.157   0.450   0.623 -0.3598 -0.1741 -0.1138
 6548TIP3    H141207   1.239   0.460   0.671 -0.3655  1.6928 -0.4216
 6548TIP3    H241208   1.165   0.366   0.578  1.1566 -0.2640  0.2817
 6549TIP3   OH241209   3.270   1.222   7.801  0.2495  0.3443  0.2153
 6549TIP3    H141210   3.203   1.199   7.736  0.5950  0.3934 -0.1589
 6549TIP3    H241211   3.326   1.145   7.806  1.0768  0.8734 -0.6259
 6550TIP3   OH241212   4.671   5.967   8.402  0.2446 -0.3631  0.0323
 6550TIP3    H141213   4.703   5.903   8.338  0.8564  0.0357 -0.0703
 6550TIP3    H241214   4.750   6.015   8.428 -0.3808  1.1937 -0.8320
 6551TIP3   OH241215   4.382   2.444   1.282 -0.0078 -0.1731 -0.4769
 6551TIP3    H141216   4.469   2.480   1.268 -0.5554  1.6246  0.4689
 6551TIP3    H241217   4.322   2.516   1.260 -1.3314 -1.6348 -1.9907
 6552TIP3   OH241218   1.538   5.345   5.901 -0.2880 -0.0074 -0.2772
 6552TIP3    H141219   1.544   5.435   5.870 -0.4927  0.7400  1.6973
 6552TIP3    H241220   1.459   5.344   5.957  1.1564 -0.6638  1.8907
 6553TIP3   OH241221   2.933   4.978   7.341  0.3758 -0.1932  0.1096
 6553TIP3    H141222   2.998   4.908   7.332  0.5825  0.1422 -1.1275
 6553TIP3    H241223   2.932   4.997   7.435  0.4437 -1.7196  0.4495
 6554TIP3   OH241224   4.422   1.762   7.272  0.0381 -0.4610  0.4944
 6554TIP3    H141225   4.458   1.733   7.356 -1.7651 -0.4368  1.3401
 6554TIP3    H241226   4.465   1.845   7.255  0.9303 -0.7909  1.0523
 6555TIP3   OH241227   5.098   5.193   6.421  1.0967  0.0426  0.1868
 6555TIP3    H141228   5.073   5.285   6.434  1.8778  0.4811 -1.1431
 6555TIP3    H241229   5.082   5.178   6.328 -0.3243 -1.6159  0.6495
 6556TIP3   OH241230   2.711   5.674   7.729  0.2312 -0.7931  0.5548
 6556TIP3    H141231   2.642   5.701   7.790 -0.3032 -0.8136 -0.0275
 6556TIP3    H241232   2.679   5.590   7.694  0.1859 -0.4287 -0.2889
 6557TIP3   OH241233   4.619   2.614   7.941 -0.4969 -0.3601 -0.2597
 6557TIP3    H141234   4.639   2.537   7.888 -1.4114 -0.1720 -0.9045
 6557TIP3    H241235   4.628   2.584   8.031  1.9692 -0.4599 -0.4489
 6558TIP3   OH241236   1.077   1.094   1.761  0.2559 -0.6408 -0.1101
 6558TIP3    H141237   1.158   1.103   1.812 -0.4908 -1.8142  1.3667
 6558TIP3    H241238   1.088   1.013   1.713  0.4460 -0.1657 -0.8840
 6559TIP3   OH241239   2.168   1.332   6.765  0.2455 -0.1217 -0.4817
 6559TIP3    H141240   2.125   1.287   6.838 -0.5331 -1.1928 -1.5666
 6559TIP3    H241241   2.096   1.372   6.716  0.6526 -0.3304 -1.2627
 6560TIP3   OH241242   3.331   4.336   1.031  0.5462  0.0503 -0.2950
 6560TIP3    H141243   3.394   4.265   1.026  0.5145  0.0363 -0.5175
 6560TIP3    H241244   3.333   4.377   0.944 -0.5761 -0.6731 -0.6868
 6561TIP3   OH241245   4.770   5.053   7.416 -0.2485  0.3475 -0.1152
 6561TIP3    H141246   4.728   4.967   7.408 -0.1830  0.1724  1.2386
 6561TIP3    H241247   4.699   5.116   7.401 -0.2794  0.0694 -1.1912
 6562TIP3   OH241248   3.097   6.884   0.216 -0.1504 -0.1979  0.1540
 6562TIP3    H141249   3.018   6.834   0.234  0.2856 -1.3704 -1.0319
 6562TIP3    H241250   3.078   6.972   0.249 -1.4322 -0.7924  1.0850
 6563TIP3   OH241251   6.405   2.803   6.642 -0.9027  0.5839  0.1013
 6563TIP3    H141252   6.438   2.840   6.560  0.3864 -2.1202 -0.6982
 6563TIP3    H241253   6.311   2.793   6.628 -0.5054 -1.0950 -1.6250
 6564TIP3   OH241254   4.703   0.467   7.707  0.4543 -0.2136 -0.2167
 6564TIP3    H141255   4.608   0.457   7.708  0.4689 -1.1348 -2.6128
 6564TIP3    H241256   4.733   0.413   7.780 -0.7900 -0.9210 -0.1920
 6565TIP3   OH241257   6.466   0.216   8.225 -0.3002 -0.3215  0.1507
 6565TIP3    H141258   6.447   0.283   8.291  0.3810  0.6172 -0.5892
 6565TIP3    H241259   6.400   0.148   8.241 -1.1351  0.6071  0.7918
 6566TIP3   OH241260   4.531   2.999   2.194 -0.0947  0.2804 -0.3995
 6566TIP3    H141261   4.589   2.924   2.207  0.2455  0.3637 -1.3397
 6566TIP3    H241262   4.585   3.075   2.212 -0.3452  0.3135  0.2217
 6567TIP3   OH241263   4.583   1.281   1.528  0.1534 -0.4201  0.5504
 6567TIP3    H141264   4.556   1.256   1.439 -3.5509 -1.0350  1.6786
 6567TIP3    H241265   4.647   1.215   1.553  1.5328 -0.0560 -1.7020
 6568TIP3   OH241266   5.570   3.872   0.816  0.1478  0.0068 -0.2969
 6568TIP3    H141267   5.664   3.887   0.826  0.1150 -0.2712  0.4596
 6568TIP3    H241268   5.564   3.807   0.746  0.4634  0.7781 -1.0544
 6569TIP3   OH241269   1.390   1.220   1.319 -0.5162 -0.0086 -0.2635
 6569TIP3    H141270   1.480   1.236   1.289  0.2666  1.7451  2.6510
 6569TIP3    H241271   1.400   1.166   1.397 -2.2439 -1.7058 -1.1316
 6570TIP3   OH241272   4.956   6.578   7.558  0.0512 -0.3409 -0.1995
 6570TIP3    H141273   4.998   6.497   7.528 -1.0040  0.0655 -3.1607
 6570TIP3    H241274   5.021   6.647   7.542 -0.2093 -0.2267 -0.7925
 6571TIP3   OH241275   0.442   0.412   7.802 -0.2178  0.2953 -0.2908
 6571TIP3    H141276   0.350   0.431   7.782 -0.1462  2.1634  0.9454
 6571TIP3    H241277   0.491   0.479   7.754  0.2414  1.5639  1.8198
 6572TIP3   OH241278   5.645   5.826   2.015 -0.0730  0.3353 -0.5211
 6572TIP3    H141279   5.630   5.800   1.924 -0.2025  0.0583 -0.4239
 6572TIP3    H241280   5.598   5.759   2.066  0.9987 -0.1975 -0.2181
 6573TIP3   OH241281   6.708   0.473   2.035 -0.6350 -0.2792 -0.2348
 6573TIP3    H141282   6.684   0.445   2.123 -0.8845 -2.2604 -0.8841
 6573TIP3    H241283   6.626   0.471   1.985 -0.3882  0.1883 -0.6745
 6574TIP3   OH241284   3.726   1.384   0.826 -0.3987  0.0376 -0.2457
 6574TIP3    H141285   3.771   1.333   0.758 -2.6683 -2.1937 -0.2520
 6574TIP3    H241286   3.759   1.348   0.909 -1.6750 -1.2140 -0.2490
 6575TIP3   OH241287   6.146   6.237   7.725 -0.8743  0.1177 -0.2345
 6575TIP3    H141288   6.213   6.306   7.724 -0.3941 -0.3435 -0.3622
 6575TIP3    H241289   6.195   6.156   7.710 -1.3556 -0.3226  0.4949
 6576TIP3   OH241290   2.898   0.898   1.770  0.4758  0.1854 -0.0831
 6576TIP3    H141291   2.972   0.842   1.793  0.7398 -0.0905 -1.5054
 6576TIP3    H241292   2.830   0.838   1.741  0.1393  0.5164  0.0087
 6577TIP3   OH241293   0.141   6.888   1.527 -0.3450 -0.0816  0.0227
 6577TIP3    H141294   0.068   6.903   1.587  0.7535  2.6816  0.8710
 6577TIP3    H241295   0.161   6.975   1.492  1.9192 -0.9036 -0.9163
 6578TIP3   OH241296   1.689   5.923   0.599 -0.3116 -0.0980 -0.0007
 6578TIP3    H141297   1.604   5.947   0.635 -1.2135  1.2575 -2.7537
 6578TIP3    H241298   1.735   6.006   0.586  0.6044 -0.6514 -0.4404
 6579TIP3   OH241299   1.122   5.933   0.770 -0.0089 -0.0360  0.4438
 6579TIP3    H141300   1.183   5.903   0.703 -0.5273 -1.6454  0.6388
 6579TIP3    H241301   1.093   6.019   0.739 -1.5311 -1.4130 -2.3445
 6580TIP3   OH241302   3.989   6.961   7.422 -0.1400 -0.5850  0.8529
 6580TIP3    H141303   3.912   7.010   7.449  2.0862  3.4075  0.7097
 6580TIP3    H241304   3.972   6.936   7.331 -0.6963  1.6814  0.2823
 6581TIP3   OH241305   4.624   0.888   7.191 -0.1753  0.1677  0.5261
 6581TIP3    H141306   4.625   0.983   7.203  1.7907  0.2566  0.0154
 6581TIP3    H241307   4.656   0.853   7.274 -1.0018 -0.0640  0.7522
 6582TIP3   OH241308   0.973   6.610   6.247  0.8746 -0.1314 -0.2857
 6582TIP3    H141309   0.970   6.581   6.156  3.0355 -0.4740 -0.3050
 6582TIP3    H241310   0.955   6.532   6.298  0.9722 -0.2333 -0.4072
 6583TIP3   OH241311   2.539   5.867   1.492 -0.0927 -0.5033  0.1298
 6583TIP3    H141312   2.529   5.962   1.500  1.3531 -0.2014 -1.2566
 6583TIP3    H241313   2.589   5.854   1.411  0.6004 -2.3989  0.7942
 6584TIP3   OH241314   1.753   5.016   0.096  0.2660  0.1431 -0.6235
 6584TIP3    H141315   1.829   4.993   0.150 -0.3174  0.6294  0.4189
 6584TIP3    H241316   1.787   5.013   0.006  1.4736  0.1606 -0.1934
 6585TIP3   OH241317   1.058   4.924   1.930 -0.2211  0.8758 -0.1155
 6585TIP3    H141318   1.127   4.981   1.897  0.3496 -1.4842 -3.5201
 6585TIP3    H241319   0.984   4.983   1.945  1.3171  2.9335 -0.1411
 6586TIP3   OH241320   2.651   6.009   6.434  0.7643  0.2324 -0.1665
 6586TIP3    H141321   2.646   5.952   6.357  2.1044  0.1532 -0.2215
 6586TIP3    H241322   2.724   6.067   6.415  2.9710 -1.5581  2.1708
 6587TIP3   OH241323   0.722   4.279   0.182  0.0681 -0.7662 -0.0151
 6587TIP3    H141324   0.777   4.347   0.223  0.8995 -1.2717 -0.2797
 6587TIP3    H241325   0.767   4.258   0.100 -0.0775 -1.7672  0.1499
 6588TIP3   OH241326   1.532   4.701   7.757  0.4520 -0.5351 -0.3589
 6588TIP3    H141327   1.523   4.764   7.828 -2.0155 -0.9256 -0.2355
 6588TIP3    H241328   1.593   4.742   7.696  0.2459  1.1835  0.5245
 6589TIP3   OH241329   2.596   6.257   0.714  0.1776 -0.0421 -0.0288
 6589TIP3    H141330   2.564   6.332   0.764 -0.5352  1.3508 -2.3629
 6589TIP3    H241331   2.517   6.210   0.687  0.6083 -1.5261  1.1623
 6590TIP3   OH241332   0.560   4.030   0.056 -0.4171 -0.3337 -0.0292
 6590TIP3    H141333   0.513   4.107   0.025 -0.2095 -0.4187 -0.5529
 6590TIP3    H241334   0.559   4.039   0.152 -1.0544 -0.0773 -0.0564
 6591TIP3   OH241335   1.197   4.690   1.850 -0.4103 -0.0585 -0.4916
 6591TIP3    H141336   1.250   4.676   1.928 -0.6506 -3.9322 -0.8087
 6591TIP3    H241337   1.111   4.716   1.883 -0.0584 -0.0035  0.4095
 6592TIP3   OH241338   1.070   0.410   0.081 -0.0715 -0.7048  0.7406
 6592TIP3    H141339   1.070   0.466   0.159 -1.1215  0.6648 -0.2083
 6592TIP3    H241340   1.056   0.470   0.008  0.0291 -2.0678 -0.4459
 6593TIP3   OH241341   0.736   6.583   7.767 -0.3966  0.0094 -0.0095
 6593TIP3    H141342   0.657   6.549   7.809 -0.2093 -0.2750  0.1136
 6593TIP3    H241343   0.794   6.605   7.840 -0.7215  1.1207 -0.0551
 6594TIP3   OH241344   5.732   2.396   7.597  0.3409 -0.7012  0.4745
 6594TIP3    H141345   5.673   2.404   7.522  1.1803  2.0933  0.0041
 6594TIP3    H241346   5.814   2.363   7.560  1.0980  1.6743 -0.1394
 6595TIP3   OH241347   2.405   4.645   0.720  0.3359  0.2315  0.7555
 6595TIP3    H141348   2.468   4.698   0.672 -0.0741  1.0136  1.0677
 6595TIP3    H241349   2.459   4.589   0.777  0.7520  0.9290  1.0598
 6596TIP3   OH241350   5.004   6.152   1.536 -0.3017  0.1526 -0.2688
 6596TIP3    H141351   4.998   6.166   1.630 -0.5771 -2.1551  0.1373
 6596TIP3    H241352   4.954   6.223   1.497 -0.0015  1.2685  1.2996
 6597TIP3   OH241353   0.083   6.309   6.566 -0.5320  0.1911  0.1462
 6597TIP3    H141354   0.102   6.231   6.513  1.7972  1.0738 -0.4332
 6597TIP3    H241355   0.139   6.300   6.642  0.0480  1.4655 -0.1110
 6598TIP3   OH241356   4.967   3.227   7.801 -0.2954 -0.0058  0.4162
 6598TIP3    H141357   5.016   3.183   7.870  2.5305 -1.2959 -2.1963
 6598TIP3    H241358   4.894   3.168   7.782  2.6006 -3.1965 -2.0031
 6599TIP3   OH241359   0.534   1.391   7.196 -0.1080  0.0370  0.4975
 6599TIP3    H141360   0.454   1.438   7.173  0.2488 -0.0913 -1.1812
 6599TIP3    H241361   0.584   1.453   7.250 -0.1413  1.1958 -0.7428
 6600TIP3   OH241362   0.494   6.986   1.441 -0.2005  0.2287 -0.3559
 6600TIP3    H141363   0.446   6.912   1.403 -0.0733 -0.1274  0.1570
 6600TIP3    H241364   0.445   7.063   1.414  0.5598  0.1035 -2.2559
 6601TIP3   OH241365   2.940   5.861   0.595 -0.4419  0.5764 -0.0528
 6601TIP3    H141366   2.872   5.809   0.553 -0.1946 -0.4257  0.7455
 6601TIP3    H241367   2.986   5.903   0.523  0.2540 -1.4450 -0.8617
 6602TIP3   OH241368   1.289   1.442   1.170 -0.4663  0.4880 -0.4296
 6602TIP3    H141369   1.353   1.421   1.239 -0.6388 -0.9041 -0.6642
 6602TIP3    H241370   1.215   1.482   1.217 -1.0105 -1.3517  0.3620
 6603TIP3   OH241371   4.890   3.292   0.779  0.3575  0.0312  0.2814
 6603TIP3    H141372   4.859   3.205   0.756  0.8659 -0.0791  0.0198
 6603TIP3    H241373   4.851   3.350   0.713 -0.3088  0.0626  0.6919
 6604TIP3   OH241374   6.540   5.249   7.527  0.8988  0.5204  0.1630
 6604TIP3    H141375   6.506   5.174   7.575  2.7347 -0.3812  0.1070
 6604TIP3    H241376   6.493   5.247   7.443 -0.0635  0.2804  0.6868
 6605TIP3   OH241377   3.358   2.981   0.342  0.0776  0.3865 -0.0702
 6605TIP3    H141378   3.286   3.016   0.395  0.3101 -1.3702  1.5321
 6605TIP3    H241379   3.371   2.892   0.376  1.1485 -0.3445 -2.2323
 6606TIP3   OH241380   6.686   0.654   6.763  0.2900  0.1727 -0.5675
 6606TIP3    H141381   6.707   0.746   6.773 -1.1782  0.2881  2.8111
 6606TIP3    H241382   6.749   0.608   6.817 -0.5924 -0.5475 -0.1140
 6607TIP3   OH241383   1.032   5.614   1.056  0.1549  0.2751 -0.3290
 6607TIP3    H141384   1.116   5.602   1.099 -0.1842  1.1159  0.6228
 6607TIP3    H241385   1.054   5.634   0.965  0.9077 -0.9816 -0.4496
 6608TIP3   OH241386   5.179   6.661   0.694 -0.0489 -0.1528 -0.0340
 6608TIP3    H141387   5.101   6.648   0.748  0.2538 -1.4890  0.1380
 6608TIP3    H241388   5.193   6.576   0.652  0.3266  0.5640 -1.4158
 6609TIP3   OH241389   5.222   0.710   7.816 -0.5180 -0.4688 -0.0156
 6609TIP3    H141390   5.307   0.732   7.854 -0.7004 -0.1687  0.2248
 6609TIP3    H241391   5.166   0.691   7.892 -0.4919 -1.3104 -0.1977
 6610TIP3   OH241392   6.695   4.038   0.797  0.1517  0.3892  0.1517
 6610TIP3    H141393   6.788   4.058   0.785 -0.0266  1.2151  0.0766
 6610TIP3    H241394   6.649   4.116   0.765 -0.5575  0.0910  0.4135
 6611TIP3   OH241395   1.928   1.504   0.495  0.3005  0.2325  0.6903
 6611TIP3    H141396   1.973   1.577   0.452  0.2592 -0.4170 -0.4840
 6611TIP3    H241397   1.871   1.546   0.559 -1.9818  1.4955 -1.9833
 6612TIP3   OH241398   4.020   3.538   0.260 -0.9074 -0.0426  0.1174
 6612TIP3    H141399   3.991   3.504   0.345 -1.2811  0.4294  0.1817
 6612TIP3    H241400   3.967   3.491   0.196 -1.5563  0.5438  0.2164
 6613TIP3   OH241401   4.093   2.154   8.304  0.4473 -0.3251 -0.1495
 6613TIP3    H141402   4.152   2.117   8.237  0.8094  0.1395 -0.0879
 6613TIP3    H241403   4.148   2.214   8.354 -0.4744  1.4705 -1.1882
 6614TIP3   OH241404   5.792   6.201   1.802 -1.0398  0.5351  0.2545
 6614TIP3    H141405   5.804   6.198   1.707 -0.5863  0.5595  0.3050
 6614TIP3    H241406   5.708   6.158   1.817 -0.3419 -1.0153 -0.0349
 6615TIP3   OH241407   6.115   0.284   8.161  0.4001  0.8873  0.0615
 6615TIP3    H141408   6.150   0.197   8.140  2.3429  1.2337  1.6070
 6615TIP3    H241409   6.189   0.332   8.197 -1.0014  2.6838  0.7004
 6616TIP3   OH241410   3.756   6.658   5.988  0.1096 -0.5178 -0.1083
 6616TIP3    H141411   3.813   6.598   5.938  1.3230  0.3928  0.1434
 6616TIP3    H241412   3.684   6.677   5.928 -0.9412 -3.0963  0.1983
 6617TIP3   OH241413   5.304   4.578   8.132 -0.1369 -0.7514 -0.0562
 6617TIP3    H141414   5.287   4.547   8.221 -0.0089  1.1452  0.6718
 6617TIP3    H241415   5.394   4.611   8.136 -0.3867  0.0258 -0.6798
 6618TIP3   OH241416   1.569   0.580   8.276 -0.3307  0.8435  0.0831
 6618TIP3    H141417   1.602   0.600   8.363 -0.7944  1.0989  0.2063
 6618TIP3    H241418   1.629   0.625   8.216  0.2349  0.3193  0.2497
 6619TIP3   OH241419   3.628   4.246   1.036 -0.3775 -0.1153  0.6124
 6619TIP3    H141420   3.584   4.331   1.033  0.9295  0.5477 -1.3545
 6619TIP3    H241421   3.720   4.266   1.050 -0.1052 -1.2333  0.5215
 6620TIP3   OH241422   5.996   6.940   7.082  0.5521  0.3664  0.0871
 6620TIP3    H141423   5.998   6.968   6.990  0.4343 -0.0819 -0.0555
 6620TIP3    H241424   6.020   7.018   7.131  0.9880  0.5126 -0.3459
 6621TIP3   OH241425   0.607   2.460   1.950 -0.3510  0.1384 -0.4237
 6621TIP3    H141426   0.657   2.386   1.985 -1.9147 -1.3694 -1.2560
 6621TIP3    H241427   0.629   2.533   2.008  0.8663 -1.0817  0.7275
 6622TIP3   OH241428   2.700   1.533   0.173 -0.3835  0.0899 -0.2725
 6622TIP3    H141429   2.771   1.477   0.140 -1.2260 -0.5473 -1.0698
 6622TIP3    H241430   2.729   1.561   0.259  1.0925  0.3089 -0.8178
 6623TIP3   OH241431   6.191   1.612   7.107 -0.2458  0.7172 -0.4817
 6623TIP3    H141432   6.197   1.594   7.201  1.2824  0.5718 -0.5823
 6623TIP3    H241433   6.143   1.537   7.071  0.8488 -0.2149 -0.0620
 6624TIP3   OH241434   0.645   0.620   7.306 -0.1695 -0.1572  0.4915
 6624TIP3    H141435   0.559   0.620   7.264  1.0553 -1.6738 -2.2916
 6624TIP3    H241436   0.691   0.694   7.266 -0.1433  0.6865  2.0111
 6625TIP3   OH241437   6.214   5.297   6.773 -0.2160  0.1427 -0.3942
 6625TIP3    H141438   6.181   5.386   6.784 -0.3001 -0.1556  2.3771
 6625TIP3    H241439   6.147   5.241   6.811  0.8943 -0.9273  0.0601
 6626TIP3   OH241440   6.290   5.464   0.588  0.1942 -0.0395 -0.5687
 6626TIP3    H141441   6.366   5.420   0.626 -1.1221 -2.6633 -0.7290
 6626TIP3    H241442   6.250   5.511   0.661  0.3411 -1.0952  0.2167
 6627TIP3   OH241443   5.589   6.207   7.245 -0.1381  0.6134 -0.1219
 6627TIP3    H141444   5.521   6.153   7.286  1.2852 -1.2579 -0.0952
 6627TIP3    H241445   5.602   6.279   7.306 -0.5310 -0.2454  1.0139
 6628TIP3   OH241446   6.867   3.452   7.493 -0.8671  0.4939  0.2959
 6628TIP3    H141447   6.808   3.482   7.561 -2.0587  0.5652 -0.7278
 6628TIP3    H241448   6.832   3.489   7.412  1.3057  1.5830 -0.2314
 6629TIP3   OH241449   2.576   5.869   6.192 -0.0200 -0.3166  0.4288
 6629TIP3    H141450   2.529   5.947   6.161 -0.8979 -0.4356  1.4058
 6629TIP3    H241451   2.521   5.796   6.166 -0.5299 -0.4456  1.7759
 6630TIP3   OH241452   2.503   4.878   1.506 -0.0733  0.0336  0.1149
 6630TIP3    H141453   2.571   4.818   1.475 -0.0113  0.5138 -0.7060
 6630TIP3    H241454   2.493   4.856   1.598  0.3697 -0.8369 -0.0246
 6631TIP3   OH241455   5.189   6.291   0.712 -0.0118 -0.8829  0.2439
 6631TIP3    H141456   5.269   6.240   0.696  0.6522  0.1282  0.2141
 6631TIP3    H241457   5.171   6.334   0.629 -0.5163 -0.9943  0.2918
 6632TIP3   OH241458   2.159   0.159   0.319  0.1295  0.1972  0.7166
 6632TIP3    H141459   2.219   0.124   0.252 -0.6632  1.5353 -0.7632
 6632TIP3    H241460   2.215   0.211   0.376  0.9861 -1.7425  1.7421
 6633TIP3   OH241461   6.961   5.176   7.964 -0.7828 -0.6250 -0.3067
 6633TIP3    H141462   7.023   5.232   8.010 -3.0951 -0.1941  2.5927
 6633TIP3    H241463   6.931   5.229   7.890  0.4454  0.0835 -0.3263
 6634TIP3   OH241464   4.410   1.092   1.109 -0.2919  0.3128 -0.5157
 6634TIP3    H141465   4.476   1.036   1.068 -0.0125 -0.6323  1.1581
 6634TIP3    H241466   4.345   1.105   1.040  0.0502 -1.4220 -1.2269
 6635TIP3   OH241467   6.715   6.243   7.901  0.0496 -0.1538 -0.4255
 6635TIP3    H141468   6.633   6.289   7.916  0.7357  0.3541  2.3402
 6635TIP3    H241469   6.709   6.164   7.955  0.2241 -1.7019 -2.5525
 6636TIP3   OH241470   1.992   5.418   7.049  0.2357  0.0971 -0.0639
 6636TIP3    H141471   1.928   5.489   7.050 -0.7051 -0.6020 -2.6545
 6636TIP3    H241472   1.974   5.371   6.968  2.9945 -1.1228 -0.0765
 6637TIP3   OH241473   5.002   2.047   2.043  0.6730  0.2046  0.6443
 6637TIP3    H141474   4.961   1.981   1.988  0.0759  1.6223 -0.6777
 6637TIP3    H241475   5.027   2.000   2.122  0.0311 -1.5330 -0.1403
 6638TIP3   OH241476   5.446   2.568   7.258  0.6748 -0.4059  0.1386
 6638TIP3    H141477   5.501   2.552   7.182 -1.6894 -1.3445 -1.5096
 6638TIP3    H241478   5.461   2.493   7.316  2.4151  0.2696  0.6290
 6639TIP3   OH241479   0.208   4.052   6.835 -0.3820  0.0674 -0.1967
 6639TIP3    H141480   0.220   4.147   6.825 -0.2687  0.2673  1.5629
 6639TIP3    H241481   0.131   4.032   6.782 -1.5736  1.4911  0.9115
 6640TIP3   OH241482   3.745   2.369   7.443  0.3972  0.0505  0.3657
 6640TIP3    H141483   3.814   2.309   7.414  0.3824  0.8127 -1.3874
 6640TIP3    H241484   3.723   2.420   7.365 -1.7229  0.2649  1.0197
 6641TIP3   OH241485   6.690   6.495   6.696 -0.1308 -0.7961  0.3185
 6641TIP3    H141486   6.758   6.459   6.639  2.6146  1.6181  1.8070
 6641TIP3    H241487   6.609   6.451   6.668  0.9714 -0.0157 -5.1943
 6642TIP3   OH241488   4.180   6.696   6.253 -0.0592  0.6203  0.0197
 6642TIP3    H141489   4.269   6.731   6.250  0.1488  0.2628  1.6083
 6642TIP3    H241490   4.130   6.761   6.303 -0.7719  0.9273 -1.0381
 6643TIP3   OH241491   1.063   4.439   7.627  0.0376 -0.2548  0.4384
 6643TIP3    H141492   1.022   4.449   7.712 -1.5146  0.3233 -0.3418
 6643TIP3    H241493   1.074   4.528   7.594  0.2611 -0.4852 -0.1331
 6644TIP3   OH241494   6.078   4.991   1.798 -0.0952 -0.7537  0.4558
 6644TIP3    H141495   6.164   5.031   1.785  0.2740 -0.9144  2.1777
 6644TIP3    H241496   6.089   4.936   1.876 -1.4055 -1.8429 -0.0840
 6645TIP3   OH241497   3.545   2.367   1.461 -0.3921 -0.3388 -0.9809
 6645TIP3    H141498   3.509   2.309   1.394  0.7456  0.2542 -2.1830
 6645TIP3    H241499   3.633   2.331   1.478 -0.8330 -0.7323  0.5419
 6646TIP3   OH241500   3.477   4.972   7.085 -0.3273  0.0301 -0.4773
 6646TIP3    H141501   3.529   4.894   7.107  0.4049  0.4662 -0.6276
 6646TIP3    H241502   3.503   4.993   6.996  1.3795  1.8983  0.3908
 6647TIP3   OH241503   1.042   0.085   8.037  0.2229 -0.5892 -0.0627
 6647TIP3    H141504   1.052   0.059   8.129  1.2144 -0.0827 -0.0084
 6647TIP3    H241505   0.961   0.136   8.035  0.8480  0.4878  0.8111
 6648TIP3   OH241506   5.765   2.000   1.209 -0.3044  0.0688 -0.0445
 6648TIP3    H141507   5.716   2.080   1.192  1.1525  0.7907 -1.1038
 6648TIP3    H241508   5.837   2.027   1.267  1.3689  0.0284 -1.9789
 6649TIP3   OH241509   4.665   1.835   1.463 -0.0975  0.6425 -0.1822
 6649TIP3    H141510   4.757   1.842   1.441 -0.5823  1.8094 -2.0740
 6649TIP3    H241511   4.638   1.751   1.426  0.3340 -0.0094  0.9559
 6650TIP3   OH241512   2.799   6.896   8.209  0.3254 -0.0898  0.3495
 6650TIP3    H141513   2.751   6.815   8.192 -0.2307  0.1929  0.5736
 6650TIP3    H241514   2.762   6.959   8.148  2.7073 -0.7017 -1.8926
 6651TIP3   OH241515   6.962   0.098   1.541 -0.2366  0.8227  0.1256
 6651TIP3    H141516   6.968   0.192   1.521 -3.3372  1.2454  0.6543
 6651TIP3    H241517   6.961   0.093   1.636  0.1158  0.2214  0.1040
 6652TIP3   OH241518   4.084   5.612   1.817 -0.4073 -0.2157 -0.0246
 6652TIP3    H141519   4.102   5.526   1.779  2.5982  1.1163 -1.9627
 6652TIP3    H241520   4.090   5.598   1.912 -0.5198 -2.2286 -0.2722
 6653TIP3   OH241521   6.271   6.596   7.515 -0.0938 -0.2987 -0.8692
 6653TIP3    H141522   6.308   6.575   7.600 -1.6047 -2.7014 -0.7272
 6653TIP3    H241523   6.326   6.549   7.452  0.2769  0.4775 -1.1447
 6654TIP3   OH241524   2.125   3.281   0.346  0.2393  0.7910 -0.0996
 6654TIP3    H141525   2.208   3.292   0.300  0.3829 -1.7427 -0.6059
 6654TIP3    H241526   2.150   3.248   0.433 -0.1961  0.8890  0.0658
 6655TIP3   OH241527   6.726   3.330   1.508  0.0318  0.4659 -0.0314
 6655TIP3    H141528   6.691   3.254   1.462  1.0282 -0.4904  0.7388
 6655TIP3    H241529   6.778   3.377   1.443 -1.1154  0.8748 -0.6820
 6656TIP3   OH241530   2.694   3.851   8.199 -0.2402 -0.3411  0.0917
 6656TIP3    H141531   2.713   3.917   8.132  1.2899 -0.4965  0.3377
 6656TIP3    H241532   2.614   3.883   8.242  0.9150  1.8389  0.7847
 6657TIP3   OH241533   6.828   2.843   8.314  0.0151  0.4163 -0.0420
 6657TIP3    H141534   6.747   2.811   8.354  0.9414  0.9649  2.4704
 6657TIP3    H241535   6.823   2.939   8.322  0.2810  0.5401 -1.2016
 6658TIP3   OH241536   6.246   4.220   6.072  0.0110  0.1755  0.5864
 6658TIP3    H141537   6.339   4.199   6.079 -0.0070 -0.6020 -0.9715
 6658TIP3    H241538   6.211   4.154   6.011 -1.2614  1.3392  0.0058
 6659TIP3   OH241539   6.246   2.046   7.183  0.1490  0.3072  0.3715
 6659TIP3    H141540   6.160   2.082   7.201  0.6890  0.6053  2.5502
 6659TIP3    H241541   6.237   1.953   7.202 -0.2306 -0.1031 -1.5711
 6660TIP3   OH241542   1.140   6.464   1.913 -0.1630 -0.9284 -0.5444
 6660TIP3    H141543   1.147   6.382   1.962 -0.1814 -0.5186  0.1475
 6660TIP3    H241544   1.146   6.532   1.979 -0.1562 -0.3663 -1.1187
 6661TIP3   OH241545   2.593   2.052   1.603 -0.0213 -0.0189 -0.4075
 6661TIP3    H141546   2.574   1.966   1.564 -0.6910  0.6981 -1.7185
 6661TIP3    H241547   2.623   2.105   1.529  1.9347  0.4451  0.6681
 6662TIP3   OH241548   6.335   4.163   1.068 -0.2157 -0.1153  0.3742
 6662TIP3    H141549   6.262   4.161   1.129 -0.4461  0.3832  0.1189
 6662TIP3    H241550   6.408   4.126   1.117 -0.8298 -1.3939  0.3679
 6663TIP3   OH241551   6.256   6.496   0.114 -0.0755  0.0762  0.0392
 6663TIP3    H141552   6.188   6.469   0.176  0.4450  1.3744  1.2356
 6663TIP3    H241553   6.225   6.464   0.029 -1.3809 -0.7483  0.7855
 6664TIP3   OH241554   6.834   6.354   1.242  0.8498  0.0977  0.2472
 6664TIP3    H141555   6.759   6.336   1.298  0.5787  0.2698 -0.0596
 6664TIP3    H241556   6.909   6.319   1.291  0.2157 -3.6840 -1.0869
 6665TIP3   OH241557   4.652   3.486   0.012  0.0312  0.3051  0.1341
 6665TIP3    H141558   4.580   3.442  -0.033 -0.9608  2.2397 -0.2988
 6665TIP3    H241559   4.611   3.563   0.052  1.3277 -0.1306  2.4496
 6666TIP3   OH241560   2.294   3.830   1.865  0.7832 -0.1126  0.7909
 6666TIP3    H141561   2.208   3.853   1.900  0.3269  1.7409 -1.3232
 6666TIP3    H241562   2.349   3.820   1.942 -0.9698  0.1175  2.1438
 6667TIP3   OH241563   6.349   2.681   7.412  0.0295 -0.1449  0.0490
 6667TIP3    H141564   6.270   2.636   7.383 -0.2628  1.5600 -2.0936
 6667TIP3    H241565   6.420   2.623   7.386 -0.4125 -0.3562 -0.7276
 6668TIP3   OH241566   2.202   1.091   1.245  0.1855 -0.8464 -0.6680
 6668TIP3    H141567   2.252   1.169   1.270 -2.6574  1.7294 -2.3174
 6668TIP3    H241568   2.205   1.035   1.322  1.5782  1.3015  0.9726
 6669TIP3   OH241569   1.270   4.974   0.364 -0.2992  0.6374  0.4922
 6669TIP3    H141570   1.359   4.982   0.397  0.4483 -1.4716 -0.8582
 6669TIP3    H241571   1.255   4.880   0.357 -2.0424  0.9729 -0.8382
 6670TIP3   OH241572   5.596   0.723   0.178 -0.1336  0.4435 -0.1173
 6670TIP3    H141573   5.690   0.714   0.193  0.3589  3.0146 -1.1815
 6670TIP3    H241574   5.584   0.700   0.086 -0.8237 -1.2950  0.3759
 6671TIP3   OH241575   3.934   6.782   0.016 -0.6127  0.2895  0.3737
 6671TIP3    H141576   3.954   6.791  -0.077  0.4301 -0.1819  0.5416
 6671TIP3    H241577   3.922   6.688   0.029  0.3005  0.2360  0.9096
 6672TIP3   OH241578   5.576   0.142   7.298  0.4584  0.3846  0.3031
 6672TIP3    H141579   5.667   0.111   7.292  0.9497  1.7394  0.4524
 6672TIP3    H241580   5.533   0.103   7.223  0.1252 -3.4512  2.2162
 6673TIP3   OH241581   2.328   1.497   6.018 -0.3378 -0.0698  0.3365
 6673TIP3    H141582   2.282   1.419   5.987  0.2354  0.0054 -0.7535
 6673TIP3    H241583   2.406   1.462   6.062  0.1569 -0.1067 -0.5565
 6674TIP3   OH241584   2.361   2.767   7.164  0.2957  0.7390  0.3475
 6674TIP3    H141585   2.286   2.759   7.223 -0.4888  0.8623 -0.6137
 6674TIP3    H241586   2.435   2.732   7.215 -0.9616 -2.4768  0.2407
 6675TIP3   OH241587   0.227   3.142   0.815 -0.1584  0.4795  0.3546
 6675TIP3    H141588   0.299   3.136   0.753  0.0787  0.1604  0.6635
 6675TIP3    H241589   0.190   3.229   0.800 -0.9451 -0.0822 -1.1713
 6676TIP3   OH241590   6.226   2.637   7.699  0.0394 -0.4559 -0.3207
 6676TIP3    H141591   6.159   2.569   7.705 -0.8904  0.2177 -2.1527
 6676TIP3    H241592   6.256   2.633   7.608  0.9405  0.7032 -0.1044
 6677TIP3   OH241593   3.705   4.219   7.702  0.4256 -0.2417  0.2146
 6677TIP3    H141594   3.651   4.140   7.715 -1.5767  1.0200 -0.0217
 6677TIP3    H241595   3.760   4.222   7.781  0.4421 -1.7709  0.3065
 6678TIP3   OH241596   6.290   0.433   8.305  0.0484 -0.0477  0.4063
 6678TIP3    H141597   6.259   0.494   8.372 -1.7188  0.3629 -0.7164
 6678TIP3    H241598   6.296   0.486   8.226  0.9809 -0.7729 -0.0185
 6679TIP3   OH241599   2.671   0.997   0.397 -0.7739 -0.0048  0.9674
 6679TIP3    H141600   2.723   1.074   0.420  1.7617 -0.7390 -1.6774
 6679TIP3    H241601   2.692   0.981   0.305 -1.4800 -3.6353  1.3113
 6680TIP3   OH241602   3.950   2.546   6.187 -0.2287 -0.4530 -0.5296
 6680TIP3    H141603   3.872   2.572   6.137 -1.6303 -0.2500  1.6368
 6680TIP3    H241604   3.937   2.453   6.205  0.1604 -0.4768 -0.3740
 6681TIP3   OH241605   5.990   2.987   7.423 -0.4368  0.2137  0.0771
 6681TIP3    H141606   6.061   2.972   7.360  0.4727 -0.1023  1.1382
 6681TIP3    H241607   5.923   2.922   7.399  0.2125 -0.4032 -0.1105
 6682TIP3   OH241608   1.065   6.054   5.988 -0.6827  0.7336  0.4388
 6682TIP3    H141609   1.068   6.121   6.057 -1.8556  1.5003 -0.2256
 6682TIP3    H241610   1.004   6.089   5.924  0.9208  0.3778 -1.3778
 6683TIP3   OH241611   2.619   0.977   6.905  0.0049  0.2325 -0.2283
 6683TIP3    H141612   2.586   0.887   6.900 -0.1216  0.2969 -0.6117
 6683TIP3    H241613   2.630   1.003   6.814  0.0208  0.6135 -0.1175
 6684TIP3   OH241614   0.931   5.103   8.318 -0.0442 -0.2214  0.0154
 6684TIP3    H141615   0.907   5.092   8.410  0.6900  2.7646  0.6726
 6684TIP3    H241616   0.935   5.198   8.306  2.0155 -0.5293 -2.5188
 6685TIP3   OH241617   0.995   2.487   7.248 -0.2400  0.1130  0.4432
 6685TIP3    H141618   1.068   2.426   7.258  0.4463  1.1266  2.0540
 6685TIP3    H241619   0.992   2.535   7.331 -1.8941  1.0299 -0.0954
 6686TIP3   OH241620   6.697   0.763   1.309  0.1739  0.0470  0.6262
 6686TIP3    H141621   6.628   0.762   1.376 -2.6191 -0.9397 -2.0097
 6686TIP3    H241622   6.703   0.854   1.282 -1.7709 -0.0997 -0.5371
 6687TIP3   OH241623   6.666   0.482   8.364  0.4086  0.9816  0.2310
 6687TIP3    H141624   6.650   0.504   8.273 -0.0408 -0.4254 -0.0509
 6687TIP3    H241625   6.719   0.402   8.360 -1.0797 -0.1036  1.1772
 6688TIP3   OH241626   6.676   3.260   7.605 -0.0995  0.6584 -0.2942
 6688TIP3    H141627   6.682   3.301   7.691 -1.9058  2.0743 -0.7903
 6688TIP3    H241628   6.671   3.166   7.623 -0.5278  0.9466  1.1559
 6689TIP3   OH241629   2.594   0.152   1.793  0.1457 -0.0191  0.2252
 6689TIP3    H141630   2.628   0.132   1.706  2.5489  1.1707  0.8152
 6689TIP3    H241631   2.632   0.085   1.849 -1.8877 -1.1607  0.3588
 6690TIP3   OH241632   3.614   5.927   7.146 -0.2373  0.4495  0.0152
 6690TIP3    H141633   3.659   5.860   7.095 -0.6055 -0.8931  1.3955
 6690TIP3    H241634   3.622   6.007   7.093 -0.6679 -0.8774 -2.1596
 6691TIP3   OH241635   3.017   0.586   8.301 -0.1257  0.6689  0.2990
 6691TIP3    H141636   3.029   0.565   8.208  1.1731 -2.0714  0.9628
 6691TIP3    H241637   3.076   0.660   8.317  0.2485  0.6475 -0.8938
 6692TIP3   OH241638   3.928   4.842   6.696 -0.2714 -0.5254 -0.0779
 6692TIP3    H141639   4.007   4.815   6.742 -1.3408 -3.2739  0.3165
 6692TIP3    H241640   3.955   4.851   6.605  1.5786  3.7864  0.6435
 6693TIP3   OH241641   4.229   5.654   6.687  0.2305  0.1611 -0.2663
 6693TIP3    H141642   4.239   5.714   6.613 -1.5119  1.7789  0.7200
 6693TIP3    H241643   4.176   5.582   6.651  0.4428  0.3167 -0.9074
 6694TIP3   OH241644   4.895   1.289   7.993  0.2985  0.4194  0.3998
 6694TIP3    H141645   4.955   1.333   7.934  0.7588  0.8518  1.1739
 6694TIP3    H241646   4.836   1.358   8.024  1.0118  0.5087  1.6029
 6695TIP3   OH241647   5.323   3.656   8.400  0.1249 -0.5789  0.4069
 6695TIP3    H141648   5.328   3.713   8.322  0.2342 -0.6701  0.3473
 6695TIP3    H241649   5.302   3.716   8.471  1.0760 -0.3319  0.4884
 6696TIP3   OH241650   6.787   0.808   6.488 -1.1064  0.0351  0.0598
 6696TIP3    H141651   6.702   0.766   6.496 -0.7717 -0.4661  1.3383
 6696TIP3    H241652   6.845   0.739   6.456 -0.5523 -0.5555  2.1757
 6697TIP3   OH241653   5.189   2.908   1.572 -0.0755 -1.0657  0.7531
 6697TIP3    H141654   5.163   2.829   1.618 -1.3492 -0.1913  1.6157
 6697TIP3    H241655   5.185   2.977   1.638  1.2790 -0.3030  0.0981
 6698TIP3   OH241656   6.667   3.768   7.864  1.3219 -0.6575 -0.5714
 6698TIP3    H141657   6.744   3.825   7.869  1.7376 -1.2091 -0.6183
 6698TIP3    H241658   6.666   3.736   7.774 -0.0923  0.8820 -1.1549
 6699TIP3   OH241659   1.143   4.459   1.660 -0.6595  0.3761 -0.5277
 6699TIP3    H141660   1.155   4.528   1.724 -0.3355  0.1112 -0.2982
 6699TIP3    H241661   1.117   4.382   1.712 -0.0361  0.0625 -0.6641
 6700TIP3   OH241662   5.007   4.172   7.756 -0.3503 -0.5433  0.0747
 6700TIP3    H141663   4.927   4.147   7.801 -0.5566 -0.6689 -0.3587
 6700TIP3    H241664   4.996   4.141   7.666  0.4935 -1.2257  0.1934
 6701TIP3   OH241665   5.859   5.592   7.348 -0.0995  0.0472 -0.3607
 6701TIP3    H141666   5.799   5.665   7.336 -0.6405  0.0916  1.9776
 6701TIP3    H241667   5.942   5.621   7.311 -0.7798  1.1276 -1.0630
 6702TIP3   OH241668   4.577   2.555   7.427 -0.3391  0.1889  0.1895
 6702TIP3    H141669   4.595   2.488   7.493 -1.7097 -1.1334 -0.7192
 6702TIP3    H241670   4.573   2.506   7.345 -0.5420  1.5284 -0.6179
 6703TIP3   OH241671   2.234   3.356   1.491 -0.5219  0.4943  0.6178
 6703TIP3    H141672   2.327   3.336   1.493 -0.4396  0.4214 -1.8760
 6703TIP3    H241673   2.229   3.450   1.477 -0.8017  0.3429 -0.3490
 6704TIP3   OH241674   0.062   4.342   0.341  0.7778 -0.1663  0.0126
 6704TIP3    H141675   0.148   4.376   0.316  1.0403 -1.2131 -0.5935
 6704TIP3    H241676   0.025   4.409   0.398  2.0473  0.2472  0.3829
 6705TIP3   OH241677   3.809   0.394   0.011 -0.7754 -0.6659  0.2911
 6705TIP3    H141678   3.883   0.354   0.057 -0.2250  0.1012  0.0792
 6705TIP3    H241679   3.731   0.354   0.051 -0.2706 -0.9006  1.0462
 6706TIP3   OH241680   5.460   6.533   7.603  0.0499 -0.3641 -0.2068
 6706TIP3    H141681   5.508   6.572   7.531 -0.5000 -0.1097 -0.4459
 6706TIP3    H241682   5.399   6.472   7.561 -0.0307 -0.4786  0.0681
 6707TIP3   OH241683   1.936   5.615   0.948 -0.5144  0.1807 -0.2254
 6707TIP3    H141684   1.889   5.627   1.031  0.1135 -2.9842  0.7494
 6707TIP3    H241685   1.867   5.601   0.884 -1.0046 -0.3377  0.3946
 6708TIP3   OH241686   1.778   3.098   0.857 -0.7143 -0.0844 -0.5882
 6708TIP3    H141687   1.756   3.175   0.805  0.2959  0.1023 -0.7526
 6708TIP3    H241688   1.870   3.109   0.880 -0.4220 -1.4602 -1.0033
 6709TIP3   OH241689   1.459   4.560   1.416 -0.4083  0.3859  0.5656
 6709TIP3    H141690   1.406   4.553   1.337  1.6977  1.4840 -1.0550
 6709TIP3    H241691   1.478   4.470   1.441  1.2889 -0.0938 -1.9926
 6710TIP3   OH241692   4.360   6.935   6.564 -0.2829 -0.1814 -0.3494
 6710TIP3    H141693   4.385   7.026   6.548  2.3570 -0.8265 -0.2927
 6710TIP3    H241694   4.381   6.889   6.483 -0.5608 -0.9333 -0.0100
 6711TIP3   OH241695   1.222   0.200   7.861 -0.3421  0.5145 -0.0775
 6711TIP3    H141696   1.213   0.295   7.857  0.8003  0.5944 -1.6124
 6711TIP3    H241697   1.159   0.173   7.928 -1.3538  2.2549 -0.2553
 6712TIP3   OH241698   6.363   3.213   6.974  0.1247  0.2660 -0.6556
 6712TIP3    H141699   6.302   3.282   6.946 -0.0400  0.1187 -0.6627
 6712TIP3    H241700   6.395   3.242   7.059  1.9901  1.6106 -1.7317
 6713TIP3   OH241701   0.490   2.057   0.208  0.4207 -0.5116 -0.1727
 6713TIP3    H141702   0.536   2.140   0.199  1.2492 -0.7146  1.6542
 6713TIP3    H241703   0.553   1.999   0.252 -1.2885 -1.0264  1.7516
 6714TIP3   OH241704   6.261   2.919   0.479  0.6313 -0.2766 -0.4986
 6714TIP3    H141705   6.333   2.929   0.417  1.1320 -0.2089  0.0863
 6714TIP3    H241706   6.184   2.954   0.433  1.1659  0.5867 -0.7549
 6715TIP3   OH241707   5.096   0.108   6.922  0.2363  0.2529  0.1422
 6715TIP3    H141708   5.112   0.193   6.963 -0.9983 -0.1344  1.5347
 6715TIP3    H241709   5.121   0.120   6.831  2.3157  1.4117  0.7925
 6716TIP3   OH241710   6.622   1.596   0.748 -0.3700 -0.8946  0.4093
 6716TIP3    H141711   6.587   1.621   0.662 -0.5744  0.4510  0.8652
 6716TIP3    H241712   6.561   1.633   0.811 -0.6454 -2.5220  1.1558
 6717TIP3   OH241713   5.577   1.548   8.245  0.0128 -0.4720 -0.6000
 6717TIP3    H141714   5.483   1.544   8.228  0.3272  0.6376 -2.9854
 6717TIP3    H241715   5.604   1.634   8.212  1.9125 -0.8499 -0.1615
 6718TIP3   OH241716   5.925   0.937   1.367  0.6193  0.1359  0.4128
 6718TIP3    H141717   5.833   0.957   1.355 -0.0369 -3.0652 -1.0088
 6718TIP3    H241718   5.948   0.976   1.452 -2.9494 -1.6223  2.4228
 6719TIP3   OH241719   6.377   6.373   1.102  0.4397  0.0070  0.0933
 6719TIP3    H141720   6.449   6.368   1.039 -0.7644 -1.0595 -1.2361
 6719TIP3    H241721   6.409   6.434   1.169  3.4025 -1.9186  0.6292
 6720TIP3   OH241722   5.864   1.592   6.367 -0.0611 -0.5417  0.2796
 6720TIP3    H141723   5.947   1.543   6.368  0.4202  0.2338  2.0471
 6720TIP3    H241724   5.890   1.683   6.386 -1.2326 -0.1525  0.0502
 6721TIP3   OH241725   2.762   4.863   1.363 -0.0956 -0.1149  0.7578
 6721TIP3    H141726   2.720   4.934   1.314  2.1976 -0.2071 -1.5331
 6721TIP3    H241727   2.846   4.900   1.391  0.7382 -1.6061  0.3292
 6722TIP3   OH241728   2.847   2.254   0.871  0.5260  0.1941  0.1728
 6722TIP3    H141729   2.879   2.336   0.909 -0.1063  0.8683 -0.7090
 6722TIP3    H241730   2.752   2.257   0.883  0.5480 -0.7068  0.6717
 6723TIP3   OH241731   2.030   1.005   0.014 -0.1000 -0.3464 -0.0158
 6723TIP3    H141732   2.066   1.084   0.054  0.1751 -0.6310  0.3070
 6723TIP3    H241733   2.018   0.945   0.087  1.3177 -1.2273 -0.4847
 6724TIP3   OH241734   6.122   6.917   7.402 -0.3814  0.3847 -0.0162
 6724TIP3    H141735   6.212   6.917   7.433 -0.4258 -0.6386  0.1193
 6724TIP3    H241736   6.078   6.981   7.458  0.0867  0.3461  0.4066
 6725TIP3   OH241737   1.920   0.904   1.242  0.2313  0.1097  0.1727
 6725TIP3    H141738   1.870   0.975   1.200  0.2620 -0.4536 -0.8523
 6725TIP3    H241739   1.915   0.923   1.336 -0.1899  1.1865 -0.0522
 6726TIP3   OH241740   4.446   4.555   1.154  0.3549 -0.5753 -0.3782
 6726TIP3    H141741   4.477   4.587   1.239  0.5743 -0.7246 -0.3999
 6726TIP3    H241742   4.352   4.574   1.153  0.8142  1.9916 -1.2533
 6727TIP3   OH241743   5.000   6.686   1.186 -0.1074 -0.0437  0.1798
 6727TIP3    H141744   5.004   6.631   1.264 -0.0166 -1.6506 -0.9260
 6727TIP3    H241745   4.922   6.740   1.199 -1.4878 -1.9810  0.2971
 6728TIP3   OH241746   1.186   5.612   1.502  0.0809 -0.1190 -0.0581
 6728TIP3    H141747   1.131   5.545   1.541 -1.1540  1.1386  0.4493
 6728TIP3    H241748   1.135   5.693   1.510  1.7787  1.0089 -0.0669
 6729TIP3   OH241749   1.572   2.352   1.839  0.3215  0.6812 -0.0739
 6729TIP3    H141750   1.589   2.410   1.765  2.2370 -0.5865 -0.7148
 6729TIP3    H241751   1.516   2.403   1.898  0.6976  2.5844 -1.2887
 6730TIP3   OH241752   0.886   0.339   7.115  0.4094 -0.2627 -0.0574
 6730TIP3    H141753   0.953   0.297   7.169  0.6334 -2.2156 -1.7286
 6730TIP3    H241754   0.932   0.366   7.036 -0.1749  1.3103  0.1106
 6731TIP3   OH241755   0.573   5.739   7.098  0.1231  0.0811  0.1873
 6731TIP3    H141756   0.566   5.647   7.075  1.1421  0.1182 -0.3406
 6731TIP3    H241757   0.482   5.770   7.100 -0.1449 -0.4596 -1.6331
 6732TIP3   OH241758   5.429   4.854   0.230  0.0179 -0.1286  0.0818
 6732TIP3    H141759   5.396   4.911   0.161  0.0465  0.6365  0.6934
 6732TIP3    H241760   5.524   4.864   0.226 -0.0089  0.4345  0.6562
 6733TIP3   OH241761   0.923   0.681   7.977  0.0936 -0.3749  0.4076
 6733TIP3    H141762   0.938   0.591   8.006 -1.9921 -0.3038  1.9062
 6733TIP3    H241763   0.991   0.732   8.020 -0.7428 -0.8026  2.3208
 6734TIP3   OH241764   2.238   6.605   7.109  0.1187  0.4943  0.8915
 6734TIP3    H141765   2.265   6.532   7.164  3.1934  0.7724 -0.0787
 6734TIP3    H241766   2.244   6.682   7.166 -0.6477  0.3300  1.2115
 6735TIP3   OH241767   2.593   2.183   2.066 -0.1238 -0.2877 -0.0970
 6735TIP3    H141768   2.629   2.246   2.127  1.1680 -0.8010 -0.2906
 6735TIP3    H241769   2.517   2.145   2.111 -0.1464  0.4798  0.5175
 6736TIP3   OH241770   4.903   6.196   7.021  0.8206 -0.1618  0.7597
 6736TIP3    H141771   4.861   6.121   7.063 -0.0324  0.0378  0.2808
 6736TIP3    H241772   4.961   6.157   6.956  0.1817 -0.4073  0.3287
 6737TIP3   OH241773   1.204   2.564   0.299  0.1007 -0.0686  0.1265
 6737TIP3    H141774   1.127   2.567   0.356 -0.1407 -0.2882 -0.1837
 6737TIP3    H241775   1.251   2.645   0.318 -0.9826  0.8113 -0.7556
 6738TIP3   OH241776   0.403   5.808   7.791 -0.6965 -0.0255 -0.1819
 6738TIP3    H141777   0.455   5.857   7.727  1.5537 -2.5222 -0.4733
 6738TIP3    H241778   0.467   5.755   7.838 -2.8115 -2.0281  0.6513
 6739TIP3   OH241779   2.823   5.406   6.854 -0.0238  0.2102 -0.3715
 6739TIP3    H141780   2.836   5.364   6.939 -0.1218 -2.2990 -1.5230
 6739TIP3    H241781   2.848   5.498   6.869  2.0221 -0.5962  1.8347
 6740TIP3   OH241782   6.650   4.622   7.407 -0.4883  0.2592 -0.3348
 6740TIP3    H141783   6.626   4.530   7.397  0.1681  0.1750 -1.1961
 6740TIP3    H241784   6.672   4.631   7.500 -1.7574 -0.1524  0.0193
 6741TIP3   OH241785   0.419   0.083   6.885 -0.5351 -0.1737  0.1029
 6741TIP3    H141786   0.399   0.028   6.808  0.5007 -2.2318  1.2286
 6741TIP3    H241787   0.491   0.139   6.856  0.6468 -1.7454 -0.1399
 6742TIP3   OH241788   0.969   0.751   1.905  0.6093  0.5222 -0.1295
 6742TIP3    H141789   0.940   0.842   1.897  2.0228  1.0578  0.5113
 6742TIP3    H241790   1.025   0.750   1.982  0.0841 -1.0634  0.2821
 6743TIP3   OH241791   3.444   3.604   7.260 -0.2900  0.2040  0.3519
 6743TIP3    H141792   3.357   3.563   7.251  0.0350 -0.2312 -1.2214
 6743TIP3    H241793   3.474   3.577   7.346 -1.5879  0.1111  0.8066
 6744TIP3   OH241794   5.012   3.886   7.190  0.7211 -0.6432 -0.5830
 6744TIP3    H141795   4.923   3.873   7.157 -0.8951 -0.9138  3.3395
 6744TIP3    H241796   5.062   3.815   7.150 -1.6200 -2.5210 -0.4063
 6745TIP3   OH241797   4.039   6.433   8.096 -0.3728  0.7112 -0.8002
 6745TIP3    H141798   4.106   6.416   8.161 -0.9068  1.1410 -0.1192
 6745TIP3    H241799   4.011   6.347   8.065 -0.0154  0.5147 -0.5662
 6746TIP3   OH241800   3.172   3.508   0.362  0.2890  0.2736 -0.2938
 6746TIP3    H141801   3.213   3.452   0.295 -0.1841  1.0555 -1.2707
 6746TIP3    H241802   3.182   3.597   0.328 -0.1798  0.6700  0.5717
 6747TIP3   OH241803   3.667   6.659   1.049 -0.0134  0.4891  0.2659
 6747TIP3    H141804   3.729   6.731   1.061 -0.3699  1.0462 -1.0108
 6747TIP3    H241805   3.659   6.650   0.954 -1.3857 -0.0180  0.4093
 6748TIP3   OH241806   0.343   4.008   1.736  0.0237  0.1103  0.0561
 6748TIP3    H141807   0.285   4.044   1.804 -0.0854 -1.2733  0.7321
 6748TIP3    H241808   0.355   3.917   1.762  1.1572 -0.0548 -1.0154
 6749TIP3   OH241809   5.352   6.711   8.284  0.0232 -0.1989 -0.7942
 6749TIP3    H141810   5.339   6.803   8.303 -4.6455 -1.0242  1.1420
 6749TIP3    H241811   5.379   6.672   8.367 -0.4321 -0.9155 -0.9686
 6750TIP3   OH241812   4.760   1.889   7.389  0.0962  0.0272  0.8719
 6750TIP3    H141813   4.674   1.922   7.364  0.3650  0.6242  0.7257
 6750TIP3    H241814   4.821   1.939   7.336  0.4638 -1.5873 -0.3051
 6751TIP3   OH241815   2.346   0.436   1.708  0.1641 -0.2270  0.1982
 6751TIP3    H141816   2.366   0.505   1.645  0.6215 -0.4603  0.0861
 6751TIP3    H241817   2.358   0.355   1.659  2.9018 -0.5303  1.1999
 6752TIP3   OH241818   4.013   2.182   6.850 -0.7860  0.1976  0.2931
 6752TIP3    H141819   3.972   2.218   6.771 -0.6400 -1.2255 -0.4672
 6752TIP3    H241820   4.079   2.247   6.874  0.3956 -0.1350 -1.8258
 6753TIP3   OH241821   5.984   3.930   0.556 -0.0427 -0.2087  0.0328
 6753TIP3    H141822   6.035   4.001   0.594  0.6676 -1.2773  1.1367
 6753TIP3    H241823   6.047   3.860   0.542 -0.6936 -0.5657 -1.2487
 6754TIP3   OH241824   4.795   3.864   0.058 -0.1210 -0.1594 -0.6367
 6754TIP3    H141825   4.708   3.824   0.055 -0.3784  0.4626 -1.8741
 6754TIP3    H241826   4.778   3.958   0.063  0.4850 -0.0399 -0.7443
 6755TIP3   OH241827   3.555   1.463   6.032 -0.0110 -0.0207  0.2582
 6755TIP3    H141828   3.573   1.507   6.116  1.5972 -1.5450  0.7847
 6755TIP3    H241829   3.588   1.524   5.966  1.8028 -0.1907  0.9509
 6756TIP3   OH241830   4.663   6.235   1.885  0.0116 -0.2480 -0.7252
 6756TIP3    H141831   4.595   6.269   1.942  1.7024  1.4410  0.3994
 6756TIP3    H241832   4.621   6.226   1.799 -1.6986  0.3797  0.0221
 6757TIP3   OH241833   5.484   5.363   0.241 -0.9562 -0.5841  0.4819
 6757TIP3    H141834   5.486   5.428   0.311  0.6325 -0.5251  0.4201
 6757TIP3    H241835   5.504   5.412   0.161 -1.6840 -0.8279  0.1487
 6758TIP3   OH241836   4.968   0.288   0.622  0.0553 -0.1129 -0.1882
 6758TIP3    H141837   5.055   0.314   0.591  0.4217 -1.2702 -0.1787
 6758TIP3    H241838   4.936   0.365   0.670  0.9279  0.4504 -0.4802
 6759TIP3   OH241839   4.913   2.955   1.025 -0.9322 -0.1310 -0.1084
 6759TIP3    H141840   4.870   3.032   1.062 -3.0016 -1.1098 -0.3372
 6759TIP3    H241841   4.958   2.988   0.947  0.5397  1.3046  1.2936
 6760TIP3   OH241842   6.701   3.219   7.073  0.0203  0.4684 -0.8679
 6760TIP3    H141843   6.724   3.199   7.163 -0.1331 -0.2139 -0.9717
 6760TIP3    H241844   6.624   3.276   7.080  0.4421  1.0047 -0.5618
 6761TIP3   OH241845   6.297   4.127   1.558 -0.3215  0.1378  0.4590
 6761TIP3    H141846   6.333   4.090   1.477 -0.7032  0.1780  0.2692
 6761TIP3    H241847   6.365   4.112   1.623  0.5444  1.2335 -0.1467
 6762TIP3   OH241848   2.684   3.627   1.006  0.0809  0.2718  0.7450
 6762TIP3    H141849   2.612   3.688   1.020 -0.8388 -1.2471  3.2856
 6762TIP3    H241850   2.643   3.549   0.969  0.5448 -0.2852  1.3802
 6763TIP3   OH241851   3.192   0.402   7.793 -0.3274  0.0930 -0.2002
 6763TIP3    H141852   3.253   0.345   7.747  0.4347  1.2105 -0.6131
 6763TIP3    H241853   3.247   0.468   7.834 -1.1894  0.5628  0.2333
 6764TIP3   OH241854   2.951   3.759   8.012  0.2584  0.8108 -0.2586
 6764TIP3    H141855   2.938   3.854   8.017 -0.3065  0.6828  1.3558
 6764TIP3    H241856   3.032   3.743   8.059  0.8493  0.5718 -1.3423
 6765TIP3   OH241857   6.406   5.032   7.652 -0.1797  0.0176 -0.1186
 6765TIP3    H141858   6.324   4.994   7.618 -0.1296 -0.2132  0.0144
 6765TIP3    H241859   6.400   5.018   7.746  0.3643 -0.7008 -0.1832
 6766TIP3   OH241860   0.936   4.481   7.885 -0.9986  0.1720  0.1486
 6766TIP3    H141861   0.884   4.486   7.965 -0.4112  3.7838  0.5054
 6766TIP3    H241862   1.024   4.509   7.913 -0.1524 -0.8622 -1.3525
 6767TIP3   OH241863   1.673   5.309   2.328 -0.3153 -0.0957  0.1788
 6767TIP3    H141864   1.733   5.377   2.358  0.0958 -0.8134  1.0057
 6767TIP3    H241865   1.590   5.329   2.373  0.1275 -0.8047  1.3481
 6768TIP3   OH241866   1.893   2.892   8.346  0.1100 -0.1513 -0.5748
 6768TIP3    H141867   1.966   2.951   8.365  1.2592 -1.3663 -1.1449
 6768TIP3    H241868   1.815   2.944   8.368  1.0744  1.5485 -0.9639
 6769TIP3   OH241869   2.329   5.467   1.027  0.0863 -0.3316 -0.0392
 6769TIP3    H141870   2.382   5.543   1.002 -2.1092  0.9741 -1.0260
 6769TIP3    H241871   2.317   5.418   0.946 -1.0628 -0.0447 -0.0503
 6770TIP3   OH241872   2.282   4.439   1.143 -0.0796  0.3658  0.0712
 6770TIP3    H141873   2.224   4.458   1.069  0.6478  1.0907 -0.3288
 6770TIP3    H241874   2.223   4.433   1.219 -0.6836  1.0716 -0.3271
 6771TIP3   OH241875   0.689   4.667   0.615  0.4300 -0.2047  0.0296
 6771TIP3    H141876   0.666   4.575   0.615 -1.2756  0.1924  0.9786
 6771TIP3    H241877   0.664   4.699   0.528 -2.8631  0.2055  0.9888
 6772TIP3   OH241878   1.609   6.680   0.334 -0.1545 -0.4292  0.0847
 6772TIP3    H141879   1.623   6.708   0.425 -2.1234  0.3623  0.1952
 6772TIP3    H241880   1.655   6.746   0.282 -0.3619  0.0377  0.4817
 6773TIP3   OH241881   3.393   4.373   1.394  0.0662  0.0423  0.8136
 6773TIP3    H141882   3.420   4.425   1.319  2.0253 -0.5563  1.0306
 6773TIP3    H241883   3.465   4.382   1.456 -0.4592 -1.3108  1.6646
 6774TIP3   OH241884   1.874   3.178   1.759  0.0836  0.2678 -0.6367
 6774TIP3    H141885   1.914   3.142   1.680  0.7835 -1.1835  0.3350
 6774TIP3    H241886   1.781   3.160   1.749  0.3022 -0.9047 -0.6363
 6775TIP3   OH241887   3.411   3.084   7.880  0.0054 -0.2021 -0.1320
 6775TIP3    H141888   3.374   3.069   7.967 -1.1380  1.8480 -0.2028
 6775TIP3    H241889   3.336   3.081   7.821  0.3984  0.8205 -0.7088
 6776TIP3   OH241890   3.632   3.589   0.104  0.6268  0.0451 -0.1071
 6776TIP3    H141891   3.710   3.640   0.081  0.5139 -0.2243 -1.1441
 6776TIP3    H241892   3.570   3.608   0.034 -0.7092  1.1989  1.3219
 6777TIP3   OH241893   4.209   1.670   1.260  0.0341  0.1732 -0.9254
 6777TIP3    H141894   4.265   1.703   1.189  0.4669  0.9230 -0.2495
 6777TIP3    H241895   4.136   1.732   1.263  1.1803  1.5465  0.7854
 6778TIP3   OH241896   2.117   1.509   1.819 -0.3065 -0.3735 -0.3046
 6778TIP3    H141897   2.171   1.438   1.854 -0.8158 -0.2353  0.8112
 6778TIP3    H241898   2.056   1.530   1.889  0.1960  1.5723 -0.3765
 6779TIP3   OH241899   2.932   2.648   0.215  0.0188  0.2009 -0.1220
 6779TIP3    H141900   3.026   2.663   0.215 -0.0118  0.4399  0.6154
 6779TIP3    H241901   2.894   2.734   0.231 -0.4243  0.5127 -2.5216
 6780TIP3   OH241902   5.169   3.375   7.019  0.0128 -0.4327 -0.3747
 6780TIP3    H141903   5.105   3.429   7.064  1.2163  2.3989 -1.8463
 6780TIP3    H241904   5.247   3.377   7.074 -0.1173 -1.2481 -0.1373
 6781TIP3   OH241905   0.359   2.813   1.690 -0.4371  0.1105 -0.6516
 6781TIP3    H141906   0.267   2.803   1.714 -1.2098  5.2734 -0.2435
 6781TIP3    H241907   0.408   2.780   1.766 -1.9934 -0.9898 -0.0852
 6782TIP3   OH241908   6.259   1.322   7.303 -0.2675  0.5941 -0.3114
 6782TIP3    H141909   6.326   1.289   7.242 -1.0064  1.8008 -1.8488
 6782TIP3    H241910   6.189   1.257   7.297  1.0814 -1.2866  2.1521
 6783TIP3   OH241911   2.415   2.546   7.521  0.3564  0.0529  0.1440
 6783TIP3    H141912   2.475   2.473   7.505 -0.0677  0.0118 -1.3867
 6783TIP3    H241913   2.329   2.506   7.527  0.1257  0.4096 -0.6567
 6784TIP3   OH241914   1.113   1.023   7.452 -0.3037  0.2718 -0.0036
 6784TIP3    H141915   1.181   1.068   7.402  1.0408 -0.1029  1.4266
 6784TIP3    H241916   1.123   0.931   7.429 -1.4516  0.3838 -1.0523
 6785TIP3   OH241917   0.221   1.057   6.642  0.2698 -0.1537  0.3765
 6785TIP3    H141918   0.308   1.054   6.603  0.4307 -0.6643  0.7641
 6785TIP3    H241919   0.231   1.012   6.726  0.8152  3.9291  2.7835
 6786TIP3   OH241920   1.887   2.988   6.520  0.0075  0.0552 -0.2264
 6786TIP3    H141921   1.946   2.937   6.464 -0.0263  0.3892 -0.5687
 6786TIP3    H241922   1.938   3.066   6.543  0.4861 -0.6629  1.2451
 6787TIP3   OH241923   3.861   3.876   6.748 -0.4945  0.5192 -0.9345
 6787TIP3    H141924   3.932   3.890   6.811  0.3484 -1.2794 -1.4185
 6787TIP3    H241925   3.906   3.864   6.664 -1.5061  1.2657 -1.6005
 6788TIP3   OH241926   2.376   1.473   2.124 -0.1064  0.3809 -0.4157
 6788TIP3    H141927   2.333   1.389   2.137  0.1388  0.2452 -0.4817
 6788TIP3    H241928   2.369   1.517   2.208  0.9396 -0.2474  0.0110
 6789TIP3   OH241929   2.590   3.735   0.711  0.6779  0.0950  0.1960
 6789TIP3    H141930   2.651   3.776   0.650  0.8676 -3.8383 -2.6423
 6789TIP3    H241931   2.646   3.685   0.771  0.6631 -3.6127 -2.4806
 6790TIP3   OH241932   5.090   1.832   7.348  0.0404  0.4814  0.3701
 6790TIP3    H141933   5.052   1.747   7.323 -1.0603  1.3271 -1.0300
 6790TIP3    H241934   5.046   1.895   7.290  2.1586  1.7934  0.0868
 6791TIP3   OH241935   6.550   0.779   7.840 -0.6391  0.3694  0.1734
 6791TIP3    H141936   6.582   0.772   7.930  2.0369  1.9383 -0.5517
 6791TIP3    H241937   6.514   0.867   7.834 -0.7406  0.2961 -0.3199
 6792TIP3   OH241938   2.279   4.611   0.418  0.2539  0.0498 -0.0577
 6792TIP3    H141939   2.338   4.681   0.445 -1.3537  1.8228 -0.8879
 6792TIP3    H241940   2.290   4.605   0.323  1.6963 -2.1494  0.1853
 6793TIP3   OH241941   4.757   6.125   8.165  0.4875 -0.0338  0.1055
 6793TIP3    H141942   4.728   6.045   8.121 -0.9572 -1.7062  3.7264
 6793TIP3    H241943   4.852   6.114   8.174  0.7138  0.0294 -1.7977
 6794TIP3   OH241944   6.380   4.752   1.598  0.5209  0.3034 -0.3790
 6794TIP3    H141945   6.430   4.824   1.636 -1.7591  1.2767  0.9565
 6794TIP3    H241946   6.419   4.673   1.635  1.8142  0.9362 -0.3329
 6795TIP3   OH241947   3.542   4.876   6.531  0.0478 -0.4153  0.1937
 6795TIP3    H141948   3.596   4.955   6.530 -0.6634  0.0704 -0.5779
 6795TIP3    H241949   3.593   4.813   6.479 -0.3702  0.2189 -1.0165
 6796TIP3   OH241950   0.116   1.504   7.331 -0.7355  0.2578 -0.0883
 6796TIP3    H141951   0.164   1.470   7.407  1.2514  3.0201  0.0179
 6796TIP3    H241952   0.116   1.431   7.269  1.0563 -0.7981  1.0588
 6797TIP3   OH241953   4.402   4.914   0.364  0.0136 -0.5063 -0.4072
 6797TIP3    H141954   4.410   5.000   0.323  0.2522  0.2119  1.1001
 6797TIP3    H241955   4.475   4.864   0.328  2.2253  1.1365  1.4899
 6798TIP3   OH241956   6.743   2.208   0.224  0.3162 -0.5591 -0.6103
 6798TIP3    H141957   6.728   2.303   0.222  0.7680 -0.4237  0.8641
 6798TIP3    H241958   6.752   2.188   0.317 -1.0511 -2.2762 -0.8160
 6799TIP3   OH241959   0.287   6.319   7.120 -0.1972 -0.6219 -0.0438
 6799TIP3    H141960   0.371   6.338   7.160 -0.0625 -1.8016  0.2785
 6799TIP3    H241961   0.232   6.288   7.192 -0.2978 -1.6906 -0.5612
 6800TIP3   OH241962   2.458   3.468   2.181 -0.4783 -1.0759  0.9500
 6800TIP3    H141963   2.510   3.474   2.261  2.2361  0.9785 -0.7824
 6800TIP3    H241964   2.498   3.397   2.131  0.3228  0.1009 -0.1319
 6801TIP3   OH241965   6.518   2.038   1.767  0.2579 -0.1821 -0.0168
 6801TIP3    H141966   6.588   2.101   1.780  1.0882 -0.8250 -1.1963
 6801TIP3    H241967   6.506   1.998   1.854 -0.0103  1.2707  0.6526
 6802TIP3   OH241968   1.788   1.761   7.089 -1.2985 -0.4126 -0.5742
 6802TIP3    H141969   1.811   1.726   7.175 -0.5855  0.7106 -0.2778
 6802TIP3    H241970   1.694   1.744   7.080 -1.4407 -0.3071  0.5535
 6803TIP3   OH241971   1.236   0.922   0.497 -0.0424 -0.6302 -0.2576
 6803TIP3    H141972   1.281   0.868   0.562 -0.0288 -1.6033 -1.0563
 6803TIP3    H241973   1.158   0.954   0.543 -1.2401 -3.1261 -0.3756
 6804TIP3   OH241974   3.655   2.791   0.486 -0.4684 -0.1828 -0.4682
 6804TIP3    H141975   3.726   2.756   0.539 -0.6091 -0.0525 -0.1873
 6804TIP3    H241976   3.622   2.716   0.438 -0.8487 -0.4735  0.2252
 6805TIP3   OH241977   2.693   1.738   7.642 -0.5324  0.3435  0.3802
 6805TIP3    H141978   2.705   1.819   7.691 -1.6077  1.8718 -1.7016
 6805TIP3    H241979   2.610   1.750   7.595  0.9695 -0.4074 -2.7486
 6806TIP3   OH241980   1.741   0.344   8.315 -0.2605 -0.1088  0.4338
 6806TIP3    H141981   1.703   0.427   8.286 -0.0972  0.2072  1.1042
 6806TIP3    H241982   1.667   0.283   8.317 -0.3133 -0.0866 -0.4244
 6807TIP3   OH241983   1.539   4.319   1.476 -0.2316  0.4163 -0.2180
 6807TIP3    H141984   1.626   4.298   1.444 -0.1632  0.9278 -0.3817
 6807TIP3    H241985   1.479   4.280   1.412 -0.1088  0.6895 -0.5032
 6808TIP3   OH241986   2.054   5.725   7.748  0.5183  0.2700 -0.0436
 6808TIP3    H141987   2.024   5.753   7.662  0.1034  0.6448  0.2208
 6808TIP3    H241988   2.064   5.807   7.797  0.6048  0.0467  0.3101
 6809TIP3   OH241989   0.591   4.376   8.141  0.3233 -0.2201  0.3568
 6809TIP3    H141990   0.684   4.391   8.154  0.7508 -2.0924 -0.2302
 6809TIP3    H241991   0.569   4.424   8.062  0.9274 -0.2050  0.1954
 6810TIP3   OH241992   6.705   3.328   0.123  0.1850 -0.4897 -0.1647
 6810TIP3    H141993   6.760   3.391   0.076 -0.6366 -0.9047 -1.7546
 6810TIP3    H241994   6.739   3.329   0.213  1.6021  0.5852 -0.6689
 6811TIP3   OH241995   4.132   1.428   6.893 -0.5376  0.3553 -0.5220
 6811TIP3    H141996   4.096   1.372   6.825 -1.1962  0.1371 -0.0076
 6811TIP3    H241997   4.169   1.366   6.957 -1.0754  0.5047 -0.0579
 6812TIP3   OH241998   0.595   1.650   0.351 -0.9456  0.2305  0.3479
 6812TIP3    H141999   0.650   1.576   0.379 -1.3492  0.0039  0.5647
 6812TIP3    H242000   0.523   1.609   0.303  0.6227  0.7043 -2.6488
 6813TIP3   OH242001   1.025   5.160   0.508  0.2469 -0.1919 -0.6946
 6813TIP3    H142002   1.090   5.193   0.446 -0.6340  1.3505 -0.8359
 6813TIP3    H242003   1.075   5.136   0.585  1.1358 -0.2938 -1.2841
 6814TIP3   OH242004   5.381   3.478   0.397 -0.0545  0.4058 -0.1679
 6814TIP3    H142005   5.333   3.476   0.480  0.7941 -2.5398  0.3709
 6814TIP3    H242006   5.321   3.441   0.333  0.8972 -2.0068  0.2330
 6815TIP3   OH242007   6.034   3.064   0.064 -0.1144 -0.0247  0.0854
 6815TIP3    H142008   6.080   3.145   0.041 -1.1993  0.6630  0.2521
 6815TIP3    H242009   6.090   3.023   0.130 -0.2125  1.3201  1.0625
 6816TIP3   OH242010   4.833   4.957   0.822 -0.3622 -0.1827 -0.3400
 6816TIP3    H142011   4.830   5.016   0.898  1.0696  1.1506 -1.2519
 6816TIP3    H242012   4.831   4.869   0.861 -0.4329  0.4546  1.1947
 6817TIP3   OH242013   1.626   0.550   0.993  0.4746 -0.2620  0.0098
 6817TIP3    H142014   1.700   0.515   0.944 -0.7140 -0.8393 -1.4560
 6817TIP3    H242015   1.665   0.593   1.069  2.2375 -1.3795 -0.2101
 6818TIP3   OH242016   4.320   0.399   0.225 -0.2629 -0.0516 -0.1099
 6818TIP3    H142017   4.381   0.333   0.258 -0.5893  0.5186  1.7283
 6818TIP3    H242018   4.234   0.368   0.253 -0.4130  1.1444  0.8393
 6819TIP3   OH242019   6.013   5.456   1.066 -0.0217  0.2967 -0.6432
 6819TIP3    H142020   6.094   5.435   1.112  0.1756 -0.0392 -1.1398
 6819TIP3    H242021   5.988   5.375   1.022 -0.0509  0.6877 -1.3658
 6820TIP3   OH242022   1.322   4.360   2.097  0.3740  0.3357 -0.4484
 6820TIP3    H142023   1.357   4.449   2.094 -2.3143  1.4958 -0.2851
 6820TIP3    H242024   1.235   4.366   2.057  0.4820 -2.4454 -1.3461
 6821TIP3   OH242025   1.902   1.072   8.193  0.0436  0.6068  0.0681
 6821TIP3    H142026   1.813   1.038   8.192  0.0086  0.6178 -2.1385
 6821TIP3    H242027   1.942   1.034   8.271 -1.3860 -0.7559  0.1681
 6822TIP3   OH242028   6.328   4.421   0.190 -0.2895  0.6075 -0.4202
 6822TIP3    H142029   6.348   4.465   0.273 -0.8358  1.3278 -0.6639
 6822TIP3    H242030   6.246   4.374   0.208 -1.1641  1.8874 -0.9413
 6823TIP3   OH242031   1.349   4.049   1.760 -0.4502 -0.0147 -0.0267
 6823TIP3    H142032   1.394   4.133   1.763 -1.3742  0.5463 -1.0424
 6823TIP3    H242033   1.271   4.062   1.815 -0.7583 -0.0851 -0.4371
 6824TIP3   OH242034   5.983   2.672   0.680  0.5332  0.7549  0.0911
 6824TIP3    H142035   5.968   2.609   0.751 -1.4492  0.8650 -0.1774
 6824TIP3    H242036   6.077   2.669   0.665  0.6236 -1.4307  0.7419
 6825TIP3   OH242037   6.249   1.910   8.066 -0.7139 -0.0269 -0.0844
 6825TIP3    H142038   6.307   1.946   7.998 -2.3150  1.1910 -0.8735
 6825TIP3    H242039   6.194   1.847   8.019 -1.6478  0.6222  0.1125
 6826TIP3   OH242040   6.726   0.437   8.094 -0.1884 -0.0394  0.7243
 6826TIP3    H142041   6.787   0.506   8.069 -0.4467  0.2198  0.8054
 6826TIP3    H242042   6.776   0.356   8.083  0.3508  0.2026  1.3328
 6827TIP3   OH242043   6.959   6.559   1.091 -0.7613 -0.0603 -0.0914
 6827TIP3    H142044   6.958   6.650   1.121  1.5938 -0.4169  1.3532
 6827TIP3    H242045   6.953   6.507   1.171  1.8417 -1.1012 -0.4682
 6828TIP3   OH242046   0.367   5.022   7.721 -0.8014 -0.7332  0.3716
 6828TIP3    H142047   0.373   5.059   7.809  0.4438 -0.2046  0.0825
 6828TIP3    H242048   0.440   5.062   7.673 -0.1212 -2.6331 -0.2875
 6829TIP3   OH242049   3.336   4.168   6.337 -0.5115 -0.2933  0.3678
 6829TIP3    H142050   3.370   4.132   6.420 -0.6629  1.5865  1.2884
 6829TIP3    H242051   3.413   4.171   6.280 -0.5913 -2.5335  0.0334
 6830TIP3   OH242052   6.823   4.905   8.271  0.5861  0.3434 -0.3262
 6830TIP3    H142053   6.789   4.862   8.349  1.2961 -0.5884 -0.5113
 6830TIP3    H242054   6.798   4.997   8.281 -1.8590 -0.2308 -0.3841
 6831TIP3   OH242055   2.067   2.921   1.716  0.1292 -0.5370 -0.1009
 6831TIP3    H142056   2.083   2.979   1.641  0.9644 -1.0070 -0.2959
 6831TIP3    H242057   2.108   2.966   1.790 -0.9019  0.0438  0.1426
 6832TIP3   OH242058   1.135   4.179   1.136 -0.2068 -0.7048 -0.1652
 6832TIP3    H142059   1.190   4.154   1.062  0.5053 -1.4791  0.6032
 6832TIP3    H242060   1.082   4.251   1.103  0.3892 -0.7614 -1.3002
 6833TIP3   OH242061   5.124   3.334   0.153 -0.3982  0.0065  0.0021
 6833TIP3    H142062   5.083   3.344   0.239 -0.5186  0.6665 -0.1313
 6833TIP3    H242063   5.050   3.316   0.094 -0.3436 -0.1681 -0.0154
 6834TIP3   OH242064   4.854   5.045   0.205 -0.9658  0.6009 -0.0927
 6834TIP3    H142065   4.896   5.079   0.126 -0.7658  0.2527 -0.1355
 6834TIP3    H242066   4.845   4.951   0.190  3.8553 -0.5696  2.3342
 6835TIP3   OH242067   0.190   3.964   7.826  0.3370  0.2883  0.3429
 6835TIP3    H142068   0.152   3.917   7.901  1.8396 -1.1342  0.2701
 6835TIP3    H242069   0.187   4.056   7.852 -0.5706 -0.0328  1.4966
 6836TIP3   OH242070   4.030   1.166   0.310  0.9168 -0.0890  0.6318
 6836TIP3    H142071   4.029   1.084   0.261 -0.6997 -0.3958  1.0946
 6836TIP3    H242072   4.118   1.171   0.347  1.3797 -1.0686 -0.2918
 6837TIP3   OH242073   5.972   5.622   7.019  0.3529 -0.3929  0.1397
 6837TIP3    H142074   5.930   5.706   7.004 -1.4406 -1.0470  1.2419
 6837TIP3    H242075   5.998   5.624   7.111 -0.6744 -1.4379  0.4725
 6838TIP3   OH242076   3.696   2.192   0.033 -0.0440  0.2734 -0.3889
 6838TIP3    H142077   3.619   2.244   0.013  0.8703  1.3451 -1.2278
 6838TIP3    H242078   3.723   2.155  -0.051 -1.0636 -2.1789  0.2827
 6839TIP3   OH242079   1.263   6.364   0.561 -0.0041 -0.1604  0.9683
 6839TIP3    H142080   1.342   6.326   0.600 -0.2575 -2.0272 -0.2295
 6839TIP3    H242081   1.271   6.458   0.578  2.0773 -0.4012  1.5666
 6840TIP3   OH242082   6.200   2.220   1.772 -0.2347  0.1688 -0.4034
 6840TIP3    H142083   6.183   2.313   1.789  0.9905  0.3357  0.0401
 6840TIP3    H242084   6.247   2.189   1.849 -0.1581 -0.6847 -0.7752
 6841TIP3   OH242085   5.293   3.809   6.900 -0.0111 -0.0696  0.2127
 6841TIP3    H142086   5.297   3.764   6.984 -2.7964  0.2887  0.6481
 6841TIP3    H242087   5.299   3.739   6.835 -0.1543 -0.6057  0.7709
 6842TIP3   OH242088   4.385   5.535   1.575  0.0453  0.8189  0.4436
 6842TIP3    H142089   4.460   5.515   1.631 -0.7844  1.4211  1.8409
 6842TIP3    H242090   4.310   5.499   1.623 -0.6092  0.4772 -0.7822
 6843TIP3   OH242091   2.130   6.865   7.964  0.2932  0.5759 -0.0833
 6843TIP3    H142092   2.171   6.947   7.993  1.9090  0.0471 -0.7855
 6843TIP3    H242093   2.102   6.822   8.045  0.7157  1.1659  0.3846
 6844TIP3   OH242094   1.473   2.195   8.074  0.1199  0.3711  0.2756
 6844TIP3    H142095   1.516   2.279   8.063  0.0159  0.4275  0.3012
 6844TIP3    H242096   1.438   2.197   8.163  2.9979 -1.0043  1.5735
 6845TIP3   OH242097   5.962   2.275   7.541  0.4493 -0.5874 -0.2023
 6845TIP3    H142098   5.990   2.213   7.609 -0.2791 -0.3460  0.3254
 6845TIP3    H242099   5.987   2.233   7.459 -2.2084 -2.7844 -0.0216
 6846TIP3   OH242100   3.438   4.341   6.698 -0.2160  0.2512 -0.0095
 6846TIP3    H142101   3.381   4.382   6.764  1.1056  0.5772  0.9714
 6846TIP3    H242102   3.486   4.414   6.659  1.5215 -0.2323  1.1272
 6847TIP3   OH242103   2.183   1.339   7.074 -0.2055 -0.2562 -0.5266
 6847TIP3    H142104   2.098   1.298   7.088  0.2460 -1.1406 -0.2389
 6847TIP3    H242105   2.245   1.278   7.114  0.6748 -0.2157 -1.7693
 6848TIP3   OH242106   2.991   6.679   8.114  0.8990 -0.3860 -0.8416
 6848TIP3    H142107   2.981   6.596   8.161  0.9084 -0.3795 -0.8280
 6848TIP3    H242108   2.931   6.739   8.158 -0.1987 -0.7709 -1.7531
 6849TIP3   OH242109   0.089   6.513   7.326  0.2110 -0.7421  0.0118
 6849TIP3    H142110   0.080   6.539   7.418  0.8004  0.5594 -0.2834
 6849TIP3    H242111   0.014   6.455   7.311 -0.8726  0.3762  0.8611
 6850TIP3   OH242112   4.110   6.612   0.843  0.0200 -0.2797 -0.3321
 6850TIP3    H142113   4.154   6.527   0.839 -0.0873 -0.5268  2.1707
 6850TIP3    H242114   4.180   6.676   0.832  0.4270 -0.6923 -0.1535
 6851TIP3   OH242115   0.416   6.256   7.727 -0.0429 -0.2929  0.1622
 6851TIP3    H142116   0.497   6.209   7.748  0.3589 -0.1364 -0.9736
 6851TIP3    H242117   0.352   6.186   7.714  0.6338 -0.5954 -1.8512
 6852TIP3   OH242118   3.027   5.726   6.712  0.0027  0.5671 -0.3940
 6852TIP3    H142119   3.052   5.639   6.680  0.0717  0.3089  0.3515
 6852TIP3    H242120   2.994   5.710   6.801 -0.4820  1.2317 -0.4463
 6853TIP3   OH242121   0.475   3.573   1.396 -0.4337  0.1258  0.1277
 6853TIP3    H142122   0.530   3.581   1.317 -1.3557 -0.0845 -0.5558
 6853TIP3    H242123   0.493   3.653   1.445  0.6682 -0.0518  0.0479
 6854TIP3   OH242124   1.403   2.264   6.856 -0.8133  0.0694  0.3171
 6854TIP3    H142125   1.350   2.340   6.880 -1.2572 -0.1834  0.1474
 6854TIP3    H242126   1.426   2.279   6.764  0.3991  0.7512  0.7058
 6855TIP3   OH242127   0.177   1.641   0.597 -0.2263  0.3088 -0.7027
 6855TIP3    H142128   0.139   1.694   0.666 -1.7436 -0.1791 -1.1236
 6855TIP3    H242129   0.264   1.679   0.583 -0.3828  1.2104  0.5699
 6856TIP3   OH242130   5.782   6.418   7.529  0.6594  0.5885 -0.4237
 6856TIP3    H142131   5.795   6.465   7.611  1.5757  0.4145 -0.4580
 6856TIP3    H242132   5.858   6.442   7.476  0.2742  0.3890 -1.0734
 6857TIP3   OH242133   4.686   3.529   1.437 -0.6152 -0.1063 -0.0857
 6857TIP3    H142134   4.722   3.568   1.358 -0.1648  0.2939  0.3063
 6857TIP3    H242135   4.635   3.599   1.478  1.0826  0.4566  1.1780
 6858TIP3   OH242136   0.456   6.799   1.236 -0.2528  0.9815 -0.4816
 6858TIP3    H142137   0.423   6.710   1.241 -0.0692  0.9783  1.3077
 6858TIP3    H242138   0.384   6.849   1.198 -0.4696  0.1378 -1.2048
 6859TIP3   OH242139   3.908   3.315   1.688  0.0366  0.2141 -0.5007
 6859TIP3    H142140   3.960   3.235   1.687 -3.6047 -2.4144  1.2585
 6859TIP3    H242141   3.924   3.355   1.602  2.3755 -2.0350 -1.2340
 6860TIP3   OH242142   1.501   3.514   1.456  0.3959  0.2398 -0.1883
 6860TIP3    H142143   1.519   3.429   1.417 -0.2486 -0.4945  1.0237
 6860TIP3    H242144   1.454   3.493   1.537 -0.8651  1.7973 -0.4668
 6861TIP3   OH242145   2.022   1.493   0.039  0.3350  0.2811 -0.2553
 6861TIP3    H142146   1.982   1.456  -0.040 -1.3174  0.1537  0.6065
 6861TIP3    H242147   2.059   1.417   0.085  1.4787  0.3783 -0.9616
 6862TIP3   OH242148   0.527   5.560   8.270  0.0578  0.3123  0.6720
 6862TIP3    H142149   0.455   5.560   8.334 -0.0484  0.6484  0.5557
 6862TIP3    H242150   0.484   5.575   8.185 -0.1056 -2.6143  0.1580
 6863TIP3   OH242151   3.473   6.576   7.791  0.2650  0.6408  0.3630
 6863TIP3    H142152   3.557   6.532   7.806 -0.6992 -2.3916 -2.0238
 6863TIP3    H242153   3.422   6.556   7.870  1.4149  1.7955  1.4572
 6864TIP3   OH242154   6.773   0.993   1.168  0.3838  0.1894 -0.1386
 6864TIP3    H142155   6.840   1.002   1.101  1.7597  0.8067  1.2430
 6864TIP3    H242156   6.751   1.084   1.192  1.6219  0.0440  1.8033
 6865TIP3   OH242157   1.291   2.736   7.069  0.9428  0.0830  0.0326
 6865TIP3    H142158   1.287   2.698   7.157 -1.0105 -1.2711 -0.5724
 6865TIP3    H242159   1.199   2.751   7.046  1.3619 -0.3816 -2.1002
 6866TIP3   OH242160   4.214   5.126   6.631 -0.3123 -0.2349 -0.1865
 6866TIP3    H142161   4.308   5.117   6.640 -0.5081 -1.8500  0.4552
 6866TIP3    H242162   4.180   5.117   6.720 -1.1692 -1.0789 -0.5874
 6867TIP3   OH242163   2.484   1.409   1.875  0.0619 -0.5539  0.0002
 6867TIP3    H142164   2.503   1.459   1.955 -1.6853  0.4711 -0.1924
 6867TIP3    H242165   2.393   1.383   1.885 -0.1725 -0.4263 -1.6624
 6868TIP3   OH242166   5.040   5.295   1.642  0.6377 -0.2766 -0.1585
 6868TIP3    H142167   5.068   5.265   1.556 -0.5575 -1.8123 -0.0660
 6868TIP3    H242168   4.963   5.242   1.662 -0.1064  1.1987  1.1527
 6869TIP3   OH242169   3.780   3.142   0.187  0.9269  0.0090 -0.0604
 6869TIP3    H142170   3.751   3.125   0.277  0.6906 -0.2756 -0.1900
 6869TIP3    H242171   3.852   3.082   0.173  0.1855 -0.8073 -0.4686
 6870TIP3   OH242172   2.706   6.542   7.710  0.1675 -0.5264  0.6703
 6870TIP3    H142173   2.774   6.609   7.721 -1.3734  1.0486  1.0310
 6870TIP3    H242174   2.709   6.491   7.791  1.2127 -0.7780  0.4857
 6871TIP3   OH242175   4.700   6.275   0.610 -0.1697  0.1860 -0.2351
 6871TIP3    H142176   4.730   6.254   0.698 -3.1927  0.3820  0.9849
 6871TIP3    H242177   4.760   6.342   0.578  0.6845  0.4952  1.9106
 6872TIP3   OH242178   6.490   5.227   2.117 -0.3145 -0.2490 -0.5148
 6872TIP3    H142179   6.503   5.141   2.158 -1.2931 -1.1275 -1.9822
 6872TIP3    H242180   6.577   5.265   2.114  0.1594 -1.2428  0.0183
 6873TIP3   OH242181   0.623   6.440   1.600 -0.5439  0.2994 -0.1508
 6873TIP3    H142182   0.713   6.406   1.597 -0.9450 -0.7173 -1.4215
 6873TIP3    H242183   0.618   6.502   1.528 -0.3811  1.7004  1.0004
 6874TIP3   OH242184   0.481   6.091   0.509  0.3093 -0.0652 -0.1376
 6874TIP3    H142185   0.496   6.169   0.454  1.3137  0.7486  1.2328
 6874TIP3    H242186   0.503   6.120   0.598 -0.1667 -1.6778  0.5317
 6875TIP3   OH242187   3.491   4.423   8.193 -0.4705 -0.5067 -0.2194
 6875TIP3    H142188   3.558   4.491   8.197 -1.1224  0.1530 -0.3745
 6875TIP3    H242189   3.459   4.426   8.103 -1.5607  0.0232  0.1662
 6876TIP3   OH242190   2.403   2.377   0.204  0.3584  0.0496  0.2212
 6876TIP3    H142191   2.435   2.444   0.143  0.8761 -0.6267 -0.2644
 6876TIP3    H242192   2.473   2.312   0.208 -1.5800 -2.4333 -2.3011
 6877TIP3   OH242193   5.503   2.152   0.345 -0.2702 -0.0760 -0.3625
 6877TIP3    H142194   5.560   2.108   0.282 -1.8073 -0.1265 -1.7986
 6877TIP3    H242195   5.499   2.092   0.420 -0.5606 -1.3529 -1.3603
 6878TIP3   OH242196   6.207   2.446   1.361  0.6088 -0.7270 -0.1297
 6878TIP3    H142197   6.183   2.527   1.406 -1.7999 -0.3740 -1.8259
 6878TIP3    H242198   6.254   2.394   1.426 -0.8197  0.6206  2.0669
 6879TIP3   OH242199   5.817   0.558   8.393 -0.0926  0.7851 -0.6326
 6879TIP3    H142200   5.838   0.595   8.479  1.3634  0.9317 -1.0302
 6879TIP3    H242201   5.887   0.590   8.336 -1.3723  1.1990 -2.0192
 6880TIP3   OH242202   4.167   4.064   1.507 -0.2156  0.2674  0.1988
 6880TIP3    H142203   4.074   4.051   1.491 -1.0668  2.3383  2.6636
 6880TIP3    H242204   4.201   4.103   1.426 -1.5380 -0.2969 -0.6520
 6881TIP3   OH242205   2.847   1.159   8.039  0.0889 -0.3819 -0.1750
 6881TIP3    H142206   2.898   1.104   8.098 -1.7192 -0.3532  1.5147
 6881TIP3    H242207   2.901   1.237   8.027  0.2337 -0.0579  2.0890
 6882TIP3   OH242208   0.245   5.775   8.318  0.0373  0.4722  0.0765
 6882TIP3    H142209   0.159   5.767   8.360  0.0378  1.7900  0.3860
 6882TIP3    H242210   0.227   5.820   8.235  0.6066  2.6962  1.0637
 6883TIP3   OH242211   6.582   0.524   1.683 -0.3055  0.4731 -0.4644
 6883TIP3    H142212   6.548   0.468   1.614  0.2469  0.4049 -0.6818
 6883TIP3    H242213   6.504   0.562   1.723 -0.7745 -1.4373  0.5454
 6884TIP3   OH242214   3.843   1.102   7.287 -0.3760  0.4547  0.6538
 6884TIP3    H142215   3.904   1.032   7.312  0.1676  0.8922  0.5646
 6884TIP3    H242216   3.790   1.117   7.366 -0.1662  0.2792  0.8305
 6885TIP3   OH242217   0.350   6.538   1.203 -0.0431 -0.2008  0.5240
 6885TIP3    H142218   0.424   6.478   1.215  0.0320 -0.1407  0.3504
 6885TIP3    H242219   0.274   6.480   1.193 -0.1904 -0.2659  1.7497
 6886TIP3   OH242220   2.395   0.210   2.172 -0.6237  0.4671 -0.5153
 6886TIP3    H142221   2.395   0.235   2.079  0.8050 -3.3421 -1.7394
 6886TIP3    H242222   2.488   0.205   2.195 -0.9447  0.3467  0.8330
 6887TIP3   OH242223   4.046   4.071   7.043 -0.5032  0.0412  0.7446
 6887TIP3    H142224   4.115   4.051   6.980 -0.7420  1.5521 -0.0630
 6887TIP3    H242225   4.092   4.082   7.127 -0.1220 -1.4668  0.7604
 6888TIP3   OH242226   0.133   2.835   1.874  0.1405 -0.2115  0.5661
 6888TIP3    H142227   0.066   2.856   1.940 -2.9102 -1.0576 -1.9959
 6888TIP3    H242228   0.111   2.891   1.799  0.4545 -2.5601 -1.4004
 6889TIP3   OH242229   3.356   5.379   7.513  0.8636  0.4845  0.2638
 6889TIP3    H142230   3.326   5.433   7.440  1.2404 -1.2055 -1.1869
 6889TIP3    H242231   3.280   5.375   7.571 -0.2349  0.0099 -1.1447
 6890TIP3   OH242232   2.086   2.714   6.020  0.1206  0.5775 -0.2229
 6890TIP3    H142233   2.138   2.704   6.099  0.0397  0.5378 -0.1744
 6890TIP3    H242234   2.038   2.796   6.033  1.8646  1.8165 -1.2324
 6891TIP3   OH242235   5.834   2.282   6.777 -0.0585 -0.5592 -0.2004
 6891TIP3    H142236   5.796   2.309   6.694  0.8508 -3.7075 -1.7881
 6891TIP3    H242237   5.915   2.333   6.785 -0.6348  0.4549 -0.7411
 6892TIP3   OH242238   4.651   0.082   7.431 -0.0215  0.0294 -0.0475
 6892TIP3    H142239   4.743   0.058   7.424  0.1209  0.4316  0.4439
 6892TIP3    H242240   4.603   0.004   7.401  0.4395 -0.7023  1.0946
 6893TIP3   OH242241   0.272   2.604   1.912 -0.0587  0.5192  0.4551
 6893TIP3    H142242   0.234   2.692   1.907 -0.0601  0.4785 -0.2650
 6893TIP3    H242243   0.359   2.618   1.950  0.3629  0.9697 -0.6320
 6894TIP3   OH242244   4.056   1.248   7.359 -0.1719 -0.3887  0.3146
 6894TIP3    H142245   3.974   1.248   7.310  0.0836  0.4254 -0.1242
 6894TIP3    H242246   4.119   1.203   7.301 -0.5005 -1.8187  1.0161
 6895TIP3   OH242247   2.957   0.618   7.760 -0.2804  0.2532  0.1399
 6895TIP3    H142248   2.987   0.709   7.760 -0.0614  0.1817  0.0687
 6895TIP3    H242249   2.862   0.624   7.766 -0.2643  0.4865  0.1704
 6896TIP3   OH242250   4.682   3.477   0.945 -0.0420  0.3222 -0.1911
 6896TIP3    H142251   4.769   3.516   0.938 -0.8462  2.2368 -0.1099
 6896TIP3    H242252   4.680   3.438   1.032  0.3454  1.3324  0.2915
 6897TIP3   OH242253   2.363   2.924   6.371  0.4042 -0.2037  0.0987
 6897TIP3    H142254   2.449   2.892   6.345  0.2057 -0.8127  0.1766
 6897TIP3    H242255   2.354   3.008   6.327  1.4254  0.3168  0.8290
 6898TIP3   OH242256   6.407   1.956   1.342  0.0414  0.1926 -0.2724
 6898TIP3    H142257   6.349   1.924   1.411 -0.4229  1.6238  0.0495
 6898TIP3    H242258   6.495   1.951   1.380  0.0719 -1.3204 -0.5012
 6899TIP3   OH242259   6.848   6.395   7.268  0.1029  0.3197  0.3487
 6899TIP3    H142260   6.789   6.430   7.335 -2.4689  0.5727 -1.8865
 6899TIP3    H242261   6.829   6.301   7.267 -0.7434  0.4839 -0.7656
 6900TIP3   OH242262   2.159   6.423   1.042 -0.0508  0.0244 -0.4092
 6900TIP3    H142263   2.084   6.459   1.090 -0.3990  0.1436 -1.0335
 6900TIP3    H242264   2.234   6.440   1.099 -0.5137 -0.2410  0.3010
 6901TIP3   OH242265   2.786   3.275   7.836  0.1733  0.2727  0.0477
 6901TIP3    H142266   2.859   3.275   7.898  0.5851  0.1323 -0.4249
 6901TIP3    H242267   2.799   3.196   7.783 -0.6669 -0.0693  0.3453
 6902TIP3   OH242268   2.751   4.056   0.071  0.2101 -0.1205  0.0329
 6902TIP3    H142269   2.786   4.145   0.066  1.6249 -0.7206 -2.7878
 6902TIP3    H242270   2.669   4.060   0.022  0.4385 -0.4142 -0.3819
 6903TIP3   OH242271   4.924   0.044   8.028 -0.9325 -0.3969  0.3041
 6903TIP3    H142272   4.996   0.105   8.041 -1.4251  0.9841 -2.6538
 6903TIP3    H242273   4.967  -0.042   8.020  0.9003  0.6628 -3.9608
 6904TIP3   OH242274   5.694   3.496   0.129  0.1906  0.9080  0.0083
 6904TIP3    H142275   5.713   3.479   0.221  1.2022 -0.3826 -0.4113
 6904TIP3    H242276   5.655   3.583   0.128  2.5870  2.0680  1.3605
 6905TIP3   OH242277   1.879   2.748   0.703  0.2767 -0.4461  0.4760
 6905TIP3    H142278   1.787   2.741   0.678  0.7058 -1.3807 -0.9589
 6905TIP3    H242279   1.917   2.808   0.638  0.9135 -0.9812  0.3441
 6906TIP3   OH242280   0.703   3.609   2.144  0.0725 -0.2380 -0.1979
 6906TIP3    H142281   0.728   3.521   2.169  0.3945 -0.2464 -0.5465
 6906TIP3    H242282   0.610   3.603   2.124 -0.2935 -0.1480  1.3645
 6907TIP3   OH242283   1.484   5.407   1.307  0.1799  0.1724 -1.0676
 6907TIP3    H142284   1.485   5.329   1.251 -1.9008 -0.9970  0.4041
 6907TIP3    H242285   1.410   5.459   1.275  0.2924  0.5458 -0.7327
 6908TIP3   OH242286   4.825   6.861   7.688  0.2457 -0.3105  0.3206
 6908TIP3    H142287   4.851   6.953   7.691 -3.5128  1.0841 -2.2458
 6908TIP3    H242288   4.845   6.834   7.598 -0.3656 -1.3976  0.5038
 6909TIP3   OH242289   5.625   2.843   1.821  0.4204  0.0550  0.6394
 6909TIP3    H142290   5.702   2.883   1.781 -0.1883 -1.4087 -2.2541
 6909TIP3    H242291   5.559   2.913   1.819  1.2570  0.9437  2.0461
 6910TIP3   OH242292   4.014   3.825   0.971  0.0866 -0.1064  0.5941
 6910TIP3    H142293   4.047   3.736   0.962 -1.5372 -0.6546 -0.5410
 6910TIP3    H242294   4.036   3.868   0.888  0.6297  0.4827  1.0325
 6911TIP3   OH242295   3.191   2.598   7.455 -0.1511  0.1825 -0.3433
 6911TIP3    H142296   3.103   2.568   7.474 -0.0151 -0.2176 -0.3428
 6911TIP3    H242297   3.202   2.582   7.361 -0.5761  1.5197 -0.6393
 6912TIP3   OH242298   6.864   0.455   0.621 -0.2131  0.0272 -0.4720
 6912TIP3    H142299   6.883   0.482   0.531  3.5696  0.9976  0.4265
 6912TIP3    H242300   6.817   0.529   0.659 -1.1881 -0.0930 -1.3994
 6913TIP3   OH242301   6.450   3.890   0.828 -0.2218 -0.0425  0.5973
 6913TIP3    H142302   6.405   3.897   0.744 -1.2816 -0.0825  1.1361
 6913TIP3    H242303   6.541   3.913   0.809 -0.1795 -1.1991 -0.7783
 6914TIP3   OH242304   0.807   5.406   1.933 -0.1026 -0.3578 -0.6480
 6914TIP3    H142305   0.752   5.356   1.872  0.7071  1.0775 -2.6475
 6914TIP3    H242306   0.751   5.476   1.965  0.0042 -0.0266 -1.1861
 6915TIP3   OH242307   2.151   4.499   8.384 -0.4659 -0.3578 -0.0230
 6915TIP3    H142308   2.107   4.559   8.444  0.9802  1.7179 -0.9378
 6915TIP3    H242309   2.125   4.529   8.297  1.2878 -0.2272 -0.5355
 6916TIP3   OH242310   0.753   1.285   8.172  0.0559 -0.4521  0.0200
 6916TIP3    H142311   0.746   1.262   8.080  0.0057 -0.1886 -0.0420
 6916TIP3    H242312   0.840   1.255   8.197  0.8671  1.2309 -0.6215
 6917TIP3   OH242313   6.407   4.489   6.286 -0.0804  0.3871  0.0339
 6917TIP3    H142314   6.485   4.452   6.329 -1.0425 -2.4536 -0.4659
 6917TIP3    H242315   6.441   4.560   6.231  1.9676  0.0917  0.8435
 6918TIP3   OH242316   1.641   3.348   8.381  0.3287 -0.4091  0.5809
 6918TIP3    H142317   1.650   3.282   8.450  0.5297  0.1704  1.1234
 6918TIP3    H242318   1.609   3.426   8.427 -1.0630 -0.4550 -0.2361
 6919TIP3   OH242319   0.588   1.996   6.946 -0.3832  0.5755  0.3054
 6919TIP3    H142320   0.545   1.917   6.978 -0.6532  1.2818  1.7315
 6919TIP3    H242321   0.558   2.005   6.855 -2.3150  0.3991  0.9002
 6920TIP3   OH242322   5.519   1.083   0.766  0.2009  0.7897 -0.1701
 6920TIP3    H142323   5.531   1.000   0.720  2.4192  0.7377  0.4026
 6920TIP3    H242324   5.498   1.146   0.696 -1.6945 -0.2333 -0.5842
 6921TIP3   OH242325   3.572   5.960   1.198  0.3402  0.3260 -0.5238
 6921TIP3    H142326   3.557   5.868   1.176  1.1527  0.0971 -0.1748
 6921TIP3    H242327   3.664   5.963   1.225 -0.0032  1.0236  0.6125
 6922TIP3   OH242328   6.005   1.952   0.001  0.1709 -0.0894 -0.3793
 6922TIP3    H142329   6.084   1.911  -0.036 -0.5724 -0.3604 -1.7076
 6922TIP3    H242330   6.000   1.917   0.090  3.0415  1.9947  0.8008
 6923TIP3   OH242331   2.995   2.580   7.170 -0.1699 -0.0763  0.2143
 6923TIP3    H142332   2.921   2.526   7.143 -1.2172  0.8532  1.0983
 6923TIP3    H242333   3.001   2.648   7.103 -0.4827  0.1767  0.4429
 6924TIP3   OH242334   2.107   1.739   2.380 -0.3246  0.3696  0.2425
 6924TIP3    H142335   2.073   1.826   2.359  0.0591  0.5777  0.4667
 6924TIP3    H242336   2.029   1.684   2.386 -0.6098  0.7900  0.5196
 6925TIP3   OH242337   6.133   1.139   7.838  0.3286 -0.4936 -0.0695
 6925TIP3    H142338   6.156   1.208   7.901 -0.0146  0.9823 -1.4976
 6925TIP3    H242339   6.059   1.175   7.789 -0.5687 -2.3473 -0.1602
 6926TIP3   OH242340   0.728   4.662   6.602 -0.4716 -0.1400  0.3201
 6926TIP3    H142341   0.646   4.612   6.597 -0.6200  0.0299  0.9906
 6926TIP3    H242342   0.749   4.683   6.511 -1.6242  0.5452  0.1927
 6927TIP3   OH242343   6.662   1.497   7.678 -0.6473  0.1852 -0.2132
 6927TIP3    H142344   6.748   1.457   7.676  0.4567  2.3560  0.6296
 6927TIP3    H242345   6.605   1.434   7.634  1.2783 -1.4551 -0.4915
 6928TIP3   OH242346   3.737   0.084   8.127  0.2889  0.2845  0.3665
 6928TIP3    H142347   3.823   0.122   8.150  0.9506 -0.5619 -0.6392
 6928TIP3    H242348   3.712   0.034   8.205  0.9269  0.1610  0.4971
 6929TIP3   OH242349   4.591   5.141   7.124  0.0396  0.1750 -0.3762
 6929TIP3    H142350   4.640   5.091   7.058  0.5323  1.1866 -0.8041
 6929TIP3    H242351   4.505   5.153   7.085 -0.3918 -1.1285  0.1345
 6930TIP3   OH242352   2.833   0.100   6.729 -0.7385  0.1390 -0.8097
 6930TIP3    H142353   2.832   0.005   6.714  1.0852 -0.1798  0.7553
 6930TIP3    H242354   2.808   0.110   6.821  1.2845  0.9531 -0.2984
 6931TIP3   OH242355   4.944   0.655   7.651 -0.8715  0.0050 -0.7086
 6931TIP3    H142356   5.013   0.661   7.717 -0.4044  0.2960 -1.2209
 6931TIP3    H242357   4.877   0.601   7.692 -0.9392  0.8400  0.3204
 6932TIP3   OH242358   0.521   2.648   6.323 -0.0610 -0.1999 -0.3029
 6932TIP3    H142359   0.568   2.729   6.340 -2.1373  1.5757 -2.3192
 6932TIP3    H242360   0.431   2.666   6.350  0.0729 -3.3030  2.9967
 6933TIP3   OH242361   6.036   3.903   1.278 -0.1196 -0.3039 -0.1392
 6933TIP3    H142362   6.017   3.940   1.364 -1.5401 -0.0185 -0.5486
 6933TIP3    H242363   6.044   3.979   1.220 -1.3387 -0.5444 -0.6530
 6934TIP3   OH242364   5.119   4.564   7.749 -0.0994 -0.3382  0.6051
 6934TIP3    H142365   5.084   4.646   7.783 -2.0513 -1.0880  0.5495
 6934TIP3    H242366   5.054   4.498   7.773  0.4333 -1.5531 -1.0645
 6935TIP3   OH242367   2.075   5.609   7.450 -0.3591  0.0836 -0.2909
 6935TIP3    H142368   2.126   5.528   7.452 -0.5573 -0.0407 -0.3408
 6935TIP3    H242369   1.994   5.588   7.496 -1.5270 -0.5084 -2.4638
 6936TIP3   OH242370   5.581   0.873   1.780 -0.4789 -0.0160  0.1365
 6936TIP3    H142371   5.583   0.933   1.854 -0.2154  1.4430 -0.9893
 6936TIP3    H242372   5.635   0.799   1.807 -0.6781  0.3236  1.5134
 6937TIP3   OH242373   1.297   0.269   1.017  0.4569 -0.4415  0.0397
 6937TIP3    H142374   1.388   0.244   1.003  0.6279  0.4851 -0.5518
 6937TIP3    H242375   1.301   0.354   1.061 -0.1215 -0.4831  0.1877
 6938TIP3   OH242376   5.455   3.938   5.953  0.0751  0.6871 -0.0975
 6938TIP3    H142377   5.367   3.975   5.949  0.6153  2.1513  0.5869
 6938TIP3    H242378   5.443   3.848   5.984 -1.1097  1.1717  0.9238
 6939TIP3   OH242379   5.464   1.003   1.070  0.0840 -0.0991 -0.5127
 6939TIP3    H142380   5.466   1.063   0.995 -0.1581  0.6286  0.0461
 6939TIP3    H242381   5.372   0.979   1.079  0.1903 -0.5972 -0.7685
 6940TIP3   OH242382   1.061   1.953   0.997  0.0222 -0.3773 -0.4660
 6940TIP3    H142383   0.981   1.940   0.945 -1.2580  2.5009  0.5413
 6940TIP3    H242384   1.051   1.894   1.072 -1.0588 -0.2729 -0.5135
 6941TIP3   OH242385   3.500   0.050   0.561  0.3675 -0.2529  0.0422
 6941TIP3    H142386   3.555   0.009   0.494  0.0022  0.4607 -0.7081
 6941TIP3    H242387   3.451   0.117   0.514  1.5510  1.6306  1.3740
 6942TIP3   OH242388   3.639   6.497   8.251 -0.1522 -0.1167  0.3544
 6942TIP3    H142389   3.594   6.582   8.257  2.0165  1.0643  1.0649
 6942TIP3    H242390   3.574   6.434   8.282 -1.4944  1.4170  0.8346
 6943TIP3   OH242391   1.103   5.639   0.758  0.3663  0.3006 -0.4057
 6943TIP3    H142392   1.093   5.556   0.712  0.2548 -0.1645  0.4209
 6943TIP3    H242393   1.120   5.703   0.690 -1.6858 -0.0138 -1.2579
 6944TIP3   OH242394   2.066   2.232   1.708 -0.2391  0.0268  0.1516
 6944TIP3    H142395   1.972   2.251   1.710 -0.2762 -0.1966  0.6780
 6944TIP3    H242396   2.103   2.299   1.650 -0.9315 -0.8421 -1.3623
 6945TIP3   OH242397   4.548   2.469   6.853  0.5911 -0.0052  0.4084
 6945TIP3    H142398   4.641   2.460   6.829 -0.0323 -0.0822 -2.3699
 6945TIP3    H242399   4.510   2.384   6.830 -0.4516  0.6030 -0.1800
 6946TIP3   OH242400   5.473   3.546   1.754 -0.6400  0.3669 -0.2588
 6946TIP3    H142401   5.417   3.552   1.831 -0.9674 -2.3311 -0.2115
 6946TIP3    H242402   5.459   3.629   1.708 -1.4933  1.4584  1.8502
 6947TIP3   OH242403   1.026   1.158   7.671  0.4079 -0.1907  0.2735
 6947TIP3    H142404   1.047   1.250   7.685 -0.4898  0.0413  0.1457
 6947TIP3    H242405   1.044   1.142   7.579  4.5529 -1.2486  1.0509
 6948TIP3   OH242406   3.072   5.982   7.050  0.1002  0.7383  0.0976
 6948TIP3    H142407   3.150   5.931   7.025 -0.9355 -0.9003  0.0704
 6948TIP3    H242408   3.091   6.012   7.138  0.6996  0.1748  0.1724
 6949TIP3   OH242409   6.506   4.781   6.899  0.2640  0.3063 -0.1602
 6949TIP3    H142410   6.587   4.776   6.950  0.2551 -2.5796 -0.2659
 6949TIP3    H242411   6.443   4.731   6.951 -0.4507 -0.5007 -1.7530
 6950TIP3   OH242412   5.403   0.893   8.239  0.2824  0.1255  0.1702
 6950TIP3    H142413   5.443   0.823   8.290  1.6044  1.7722  1.5299
 6950TIP3    H242414   5.340   0.933   8.298  0.2110  0.6707 -0.2626
 6951TIP3   OH242415   6.511   4.432   8.385  0.2606 -0.5416 -0.7082
 6951TIP3    H142416   6.450   4.425   8.458  0.9164 -0.4850 -0.1525
 6951TIP3    H242417   6.457   4.417   8.307 -0.6023  0.2562 -0.2773
 6952TIP3   OH242418   6.236   6.664   1.637  0.1935 -0.2366  0.1199
 6952TIP3    H142419   6.258   6.676   1.730 -0.6034 -0.5545  0.3627
 6952TIP3    H242420   6.289   6.589   1.610 -1.2349 -1.6252  0.9616
 6953TIP3   OH242421   2.969   5.512   7.891  0.0660 -0.4142 -0.0717
 6953TIP3    H142422   2.896   5.520   7.830  2.1553  1.6836 -2.5902
 6953TIP3    H242423   2.953   5.580   7.957 -0.9868 -1.0447  0.3490
 6954TIP3   OH242424   3.505   5.166   8.035  0.0422 -0.6985 -0.1597
 6954TIP3    H142425   3.477   5.230   8.101 -1.2313 -3.3385  2.0673
 6954TIP3    H242426   3.577   5.119   8.077  0.0954 -1.5823 -1.2123
 6955TIP3   OH242427   1.708   6.761   6.308  0.5416  0.1319 -0.6287
 6955TIP3    H142428   1.772   6.698   6.342 -0.5379 -0.3093  0.6762
 6955TIP3    H242429   1.661   6.713   6.240  0.2734 -0.2367 -0.1972
 6956TIP3   OH242430   4.105   5.404   7.499  0.2430  0.2997  0.2639
 6956TIP3    H142431   4.082   5.358   7.418 -1.9014  0.9731  0.4366
 6956TIP3    H242432   4.078   5.344   7.568 -2.0688  1.4939  0.4834
 6957TIP3   OH242433   5.598   6.350   0.415 -0.1847 -0.4873 -0.0882
 6957TIP3    H142434   5.680   6.381   0.455 -0.2514 -0.5661  0.1140
 6957TIP3    H242435   5.620   6.263   0.382 -0.1883 -0.5102 -0.0305
 6958TIP3   OH242436   3.459   5.426   0.537  0.1837 -0.2363  0.0392
 6958TIP3    H142437   3.457   5.333   0.513 -0.6406 -0.1340 -0.3065
 6958TIP3    H242438   3.507   5.468   0.465 -1.6609 -0.0368 -1.1338
 6959TIP3   OH242439   2.495   1.056   7.142 -0.1867  0.0629 -0.0301
 6959TIP3    H142440   2.505   1.081   7.051  0.5941 -0.4053 -0.0739
 6959TIP3    H242441   2.538   0.971   7.150  0.1587  0.3041  0.8729
 6960TIP3   OH242442   4.367   5.103   1.662 -0.6367 -0.0163  0.3028
 6960TIP3    H142443   4.419   5.168   1.709 -1.2260  0.4495  0.3248
 6960TIP3    H242444   4.332   5.046   1.731 -0.5869 -0.0057  0.3366
 6961TIP3   OH242445   2.798   5.919   7.669 -0.2373 -0.1291 -0.7689
 6961TIP3    H142446   2.890   5.895   7.678  0.2540  2.0533  0.9359
 6961TIP3    H242447   2.751   5.836   7.665  1.6328 -1.2889  0.3494
 6962TIP3   OH242448   4.956   2.791   7.847  0.4165 -0.3264 -0.7828
 6962TIP3    H142449   4.973   2.697   7.850  1.9698 -0.0688  1.9728
 6962TIP3    H242450   4.869   2.801   7.886  0.4084 -0.6031 -0.7275
 6963TIP3   OH242451   4.316   0.985   2.485  0.2659 -0.0063  0.5892
 6963TIP3    H142452   4.321   1.074   2.520  0.5041  0.5385 -0.7380
 6963TIP3    H242453   4.232   0.952   2.515  1.1586 -0.2077  3.0159
 6964TIP3   OH242454   4.173   2.438   8.064 -0.4314  0.6901 -0.0077
 6964TIP3    H142455   4.265   2.432   8.089 -0.0310 -0.1758 -1.5797
 6964TIP3    H242456   4.148   2.348   8.041 -1.2924  1.1211 -0.8291
 6965TIP3   OH242457   1.252   5.222   2.216  0.1145 -0.2280  0.0377
 6965TIP3    H142458   1.174   5.203   2.164 -0.3055  1.6831 -0.1232
 6965TIP3    H242459   1.304   5.281   2.161 -0.7041  2.4874  1.9073
 6966TIP3   OH242460   3.396   5.021   0.084 -0.0002  0.0346 -0.0730
 6966TIP3    H142461   3.363   5.032  -0.005  3.1704  1.5538 -1.1895
 6966TIP3    H242462   3.334   4.960   0.124 -1.5097 -0.7994 -3.3024
 6967TIP3   OH242463   2.633   5.090   0.751 -0.8684  0.6470  0.9231
 6967TIP3    H142464   2.634   5.062   0.843  0.6875  0.8071  0.9837
 6967TIP3    H242465   2.694   5.031   0.708 -1.4686  0.6838  0.0123
 6968TIP3   OH242466   4.807   4.370   1.136  0.3085  0.0132  0.2453
 6968TIP3    H142467   4.875   4.320   1.091  1.4454  1.3711  0.3988
 6968TIP3    H242468   4.779   4.313   1.207  0.5513 -0.9787 -0.4327
 6969TIP3   OH242469   3.550   4.581   6.598 -0.2903  0.8383 -0.3947
 6969TIP3    H142470   3.584   4.654   6.650 -0.9888  1.1651 -0.3840
 6969TIP3    H242471   3.582   4.597   6.509 -0.4182  1.1459 -0.3868
 6970TIP3   OH242472   3.639   4.141   1.736  0.2500  0.3187 -0.3243
 6970TIP3    H142473   3.635   4.237   1.730 -0.5230  0.2354 -1.4740
 6970TIP3    H242474   3.576   4.111   1.671 -0.3175 -0.9683  0.7801
 6971TIP3   OH242475   4.385   0.154   1.866 -0.5432  0.3486 -0.3175
 6971TIP3    H142476   4.404   0.064   1.841  0.8407  0.1537  1.2506
 6971TIP3    H242477   4.373   0.200   1.783  1.1588 -0.7833 -1.2416
 6972TIP3   OH242478   2.946   3.958   6.877 -0.1548  0.3466 -0.0968
 6972TIP3    H142479   3.011   3.890   6.900 -0.2376  0.3690  0.2142
 6972TIP3    H242480   2.997   4.024   6.830 -0.1663 -0.1609 -0.8454
 6973TIP3   OH242481   6.635   3.906   1.068 -0.4446  0.2277 -0.1058
 6973TIP3    H142482   6.549   3.887   1.029  0.7126 -2.3684 -1.6736
 6973TIP3    H242483   6.679   3.959   1.001 -0.2641  0.1578 -0.0418
 6974TIP3   OH242484   2.982   4.689   0.290  0.2553 -0.6540 -0.5788
 6974TIP3    H142485   2.898   4.689   0.243 -0.0529  0.5047 -0.0761
 6974TIP3    H242486   2.979   4.610   0.344 -0.9309 -0.1778  0.1082
 6975TIP3   OH242487   6.216   5.518   0.086 -0.1055  0.2649  0.5057
 6975TIP3    H142488   6.136   5.529   0.035  0.4252  2.0422 -0.0362
 6975TIP3    H242489   6.187   5.509   0.176 -0.9173  2.9315  0.5935
 6976TIP3   OH242490   4.423   4.683   7.797 -0.1179 -0.7022 -0.2005
 6976TIP3    H142491   4.352   4.737   7.762  2.0125  2.5169  0.0630
 6976TIP3    H242492   4.427   4.706   7.890  2.1155  0.3327 -0.4916
 6977TIP3   OH242493   4.099   0.372   1.610 -0.6656  0.1185 -0.3627
 6977TIP3    H142494   4.024   0.352   1.553 -0.4688 -0.7063 -0.3423
 6977TIP3    H242495   4.166   0.308   1.585 -0.9658 -1.0337  1.5549
 6978TIP3   OH242496   3.661   3.206   7.874 -0.3356  0.2977  0.7444
 6978TIP3    H142497   3.583   3.188   7.926  0.5697 -0.2748  1.9768
 6978TIP3    H242498   3.710   3.124   7.875 -0.6405  0.0201 -1.7226
 6979TIP3   OH242499   3.271   6.450   0.118 -0.2167 -0.9818 -0.0062
 6979TIP3    H142500   3.191   6.432   0.069  0.5140  0.9095 -2.0135
 6979TIP3    H242501   3.282   6.544   0.113  1.0909 -0.9681  2.0021
 6980TIP3   OH242502   4.179   5.787   1.186 -0.0617 -0.1546  0.4016
 6980TIP3    H142503   4.191   5.719   1.119 -4.5243 -1.4642  0.6370
 6980TIP3    H242504   4.154   5.865   1.138 -0.7331 -0.3673  0.4015
 6981TIP3   OH242505   2.786   2.593   1.759  0.0116 -0.1548  0.0381
 6981TIP3    H142506   2.874   2.569   1.731  0.8800  0.5416  2.0227
 6981TIP3    H242507   2.796   2.680   1.798 -2.0865  1.2065 -2.1734
 6982TIP3   OH242508   1.915   6.834   1.259  0.2630 -0.3153 -0.6482
 6982TIP3    H142509   1.991   6.832   1.316 -0.0139 -2.0133 -0.2878
 6982TIP3    H242510   1.842   6.854   1.318  0.1307 -0.9680 -0.5816
 6983TIP3   OH242511   4.606   1.637   7.792  0.1048  0.2106  0.4710
 6983TIP3    H142512   4.687   1.611   7.747 -0.0909 -0.7031  0.6298
 6983TIP3    H242513   4.629   1.717   7.839  0.9015 -0.0059  0.4654
 6984TIP3   OH242514   5.020   5.047   7.107  0.0038  0.0410  0.0892
 6984TIP3    H142515   5.052   4.957   7.111  1.6123  0.5872 -0.0205
 6984TIP3    H242516   5.059   5.090   7.184 -0.6284  0.6846  0.0619
 6985TIP3   OH242517   3.912   1.814   0.293 -0.4416  0.2902  0.2128
 6985TIP3    H142518   3.908   1.872   0.217 -0.0167  0.0363 -0.0105
 6985TIP3    H242519   3.839   1.842   0.348 -1.6826 -0.4731 -0.9709
 6986TIP3   OH242520   1.477   3.390   7.451 -0.5613  0.0189  1.0339
 6986TIP3    H142521   1.554   3.445   7.463  0.7607 -1.1758 -1.1909
 6986TIP3    H242522   1.494   3.313   7.505 -1.2233  0.6441  2.1703
 6987TIP3   OH242523   3.751   2.712   0.160  0.6417 -0.2957 -0.7616
 6987TIP3    H142524   3.825   2.702   0.100  0.7644 -1.3147 -0.4580
 6987TIP3    H242525   3.768   2.650   0.230  0.9660  1.5424  0.8588
 6988TIP3   OH242526   4.254   3.986   6.905 -0.5973 -0.0259  0.4064
 6988TIP3    H142527   4.235   3.992   6.811  1.5378 -1.9427 -0.2391
 6988TIP3    H242528   4.342   4.023   6.913 -0.6631 -0.1113  1.6122
 6989TIP3   OH242529   4.949   2.689   8.394  0.3736  0.3473  0.4393
 6989TIP3    H142530   5.024   2.656   8.344  0.1694 -0.0836  0.4145
 6989TIP3    H242531   4.915   2.612   8.440 -0.2521  0.4762  0.1968
 6990TIP3   OH242532   1.090   3.016   6.851  0.2494  0.6571  0.3262
 6990TIP3    H142533   1.148   3.048   6.782 -0.6307  0.0115 -0.7377
 6990TIP3    H242534   1.063   3.095   6.898  0.7689  1.1150 -0.1322
 6991TIP3   OH242535   0.292   2.309   6.146 -0.2716  0.0722 -0.2072
 6991TIP3    H142536   0.266   2.394   6.110  0.1082  0.4665  0.4263
 6991TIP3    H242537   0.358   2.331   6.212  0.2997 -0.7650 -0.4857
 6992TIP3   OH242538   5.452   5.045   2.363 -0.0141  0.4836  0.2869
 6992TIP3    H142539   5.429   4.960   2.326  0.1772  0.0784  1.0768
 6992TIP3    H242540   5.382   5.064   2.425  0.2479  0.6152  0.5474
 6993TIP3   OH242541   6.903   3.900   7.819  0.1516 -0.2033  0.5996
 6993TIP3    H142542   6.949   3.827   7.777  1.7754  0.2109  1.5563
 6993TIP3    H242543   6.910   3.972   7.757  0.2860 -0.3056  0.4954
 6994TIP3   OH242544   3.942   3.584   6.961  0.2649  0.4598  0.1055
 6994TIP3    H142545   4.036   3.588   6.974  0.3278 -1.1762  0.3431
 6994TIP3    H242546   3.930   3.558   6.870  0.1326 -1.7251  0.6979
 6995TIP3   OH242547   3.846   2.339   1.732  0.3277 -0.3522  0.3070
 6995TIP3    H142548   3.825   2.331   1.639 -2.0600  1.1210  0.6316
 6995TIP3    H242549   3.844   2.249   1.765 -0.1870 -0.7725 -0.8033
 6996TIP3   OH242550   0.138   3.649   7.340  0.6411 -0.2909  0.8064
 6996TIP3    H142551   0.106   3.572   7.388  0.2582  1.3644  3.4030
 6996TIP3    H242552   0.232   3.650   7.357  0.5799  0.0336  1.1357
 6997TIP3   OH242553   3.790   5.078   7.704  0.2287  0.0590  0.2136
 6997TIP3    H142554   3.755   5.017   7.639 -2.2968  0.9241  0.6411
 6997TIP3    H242555   3.761   5.042   7.788 -0.2849  1.1995  0.5424
 6998TIP3   OH242556   4.288   5.137   7.732  0.3357  0.3477 -0.1360
 6998TIP3    H142557   4.381   5.144   7.713  0.5463  0.1878  0.7895
 6998TIP3    H242558   4.245   5.189   7.663  1.1276  0.7876 -0.3039
 6999TIP3   OH242559   6.744   0.477   1.395  0.6814  0.0196  0.1214
 6999TIP3    H142560   6.651   0.479   1.419  1.3464  1.7333  3.0452
 6999TIP3    H242561   6.760   0.562   1.354  1.0007 -0.1708 -0.1535
 7000TIP3   OH242562   2.491   0.552   1.975  0.0606  0.3079  0.3441
 7000TIP3    H142563   2.536   0.622   2.022  0.7436 -0.7393  1.2678
 7000TIP3    H242564   2.398   0.573   1.985  0.2270  2.5127 -1.6150
 7001TIP3   OH242565   3.539   4.197   0.177 -0.2125 -0.0776  0.2309
 7001TIP3    H142566   3.602   4.244   0.231 -1.8459  0.4425  1.8187
 7001TIP3    H242567   3.490   4.265   0.131  0.3446 -0.4687 -0.9833
 7002TIP3   OH242568   0.800   2.760   1.124  0.4768 -0.0033 -0.2443
 7002TIP3    H142569   0.878   2.794   1.167  2.0669 -0.2130 -2.7563
 7002TIP3    H242570   0.753   2.714   1.193  1.2835  2.2033  1.8942
 7003TIP3   OH242571   1.698   1.361   0.258 -0.4212  0.2960 -0.4503
 7003TIP3    H142572   1.766   1.333   0.319  0.9313  0.9910 -1.5935
 7003TIP3    H242573   1.637   1.413   0.311  1.5608  2.2236  0.0623
 7004TIP3   OH242574   2.945   4.141   0.321 -0.4226 -0.0987  0.0775
 7004TIP3    H142575   2.864   4.090   0.318 -1.5488  1.6742 -0.7576
 7004TIP3    H242576   2.917   4.232   0.311  1.6807  0.5509 -0.3451
 7005TIP3   OH242577   0.299   2.132   7.287  0.5016 -0.7873 -0.0291
 7005TIP3    H142578   0.285   2.045   7.324  2.5383 -0.7952  0.8676
 7005TIP3    H242579   0.336   2.182   7.360  0.2813  0.5615 -0.8146
 7006TIP3   OH242580   5.469   5.227   0.683  0.0859 -0.6226 -0.3234
 7006TIP3    H142581   5.472   5.131   0.677 -1.7881 -0.8928  1.6533
 7006TIP3    H242582   5.557   5.256   0.660  1.1740 -2.9327  0.6131
 7007TIP3   OH242583   5.266   2.515   2.264  0.2538  0.4196 -0.3872
 7007TIP3    H142584   5.360   2.509   2.249  0.0065  0.4919 -2.1995
 7007TIP3    H242585   5.255   2.595   2.316  1.4060 -1.2002  2.5624
 7008TIP3   OH242586   3.444   6.495   7.492  0.7217 -0.3041  0.2337
 7008TIP3    H142587   3.412   6.436   7.424 -1.5596  1.0113  0.0748
 7008TIP3    H242588   3.396   6.471   7.571 -1.0309  1.8820 -0.0635
 7009TIP3   OH242589   1.715   0.649   0.600  0.1331 -0.2034 -0.5783
 7009TIP3    H142590   1.637   0.648   0.656  0.2176  0.1754 -0.4503
 7009TIP3    H242591   1.704   0.727   0.545  0.4838 -0.0713 -0.4669
 7010TIP3   OH242592   6.011   3.211   7.154  0.3011 -0.0497  0.1008
 7010TIP3    H142593   6.027   3.262   7.075  2.4210 -0.7420  0.0180
 7010TIP3    H242594   5.991   3.123   7.122 -1.4805  0.2299  0.3061
 7011TIP3   OH242595   2.527   1.114   8.232  0.8393 -0.5846  0.2378
 7011TIP3    H142596   2.445   1.147   8.269 -0.8855 -1.2422 -2.6474
 7011TIP3    H242597   2.534   1.025   8.265  1.0044 -0.1670  1.3666
 7012TIP3   OH242598   1.360   4.082   0.006 -0.0844  0.2817  0.6142
 7012TIP3    H142599   1.276   4.085   0.051  0.4703  1.1533  1.6264
 7012TIP3    H242600   1.346   4.135  -0.073 -1.4355 -2.2887 -1.0058
 7013TIP3   OH242601   2.679   4.071   6.852 -0.1760  0.2056 -0.1594
 7013TIP3    H142602   2.763   4.041   6.887  0.9078 -0.0771 -2.7079
 7013TIP3    H242603   2.632   4.104   6.927  2.0556 -0.0207  1.4541
 7014TIP3   OH242604   0.748   4.778   7.124  0.3584  0.4382 -0.0475
 7014TIP3    H142605   0.838   4.781   7.155  0.8951 -0.4271 -1.4102
 7014TIP3    H242606   0.748   4.831   7.045 -0.0508 -0.4368 -0.6552
 7015TIP3   OH242607   0.414   2.587   0.552 -0.1192  0.1007 -0.1225
 7015TIP3    H142608   0.461   2.648   0.609 -0.6508  0.3633  0.0372
 7015TIP3    H242609   0.349   2.546   0.609  2.0234 -2.7243  0.4940
 7016TIP3   OH242610   6.247   4.916   5.947 -0.4514  0.1995 -0.2184
 7016TIP3    H142611   6.215   4.830   5.975 -0.0079 -0.0875 -0.5745
 7016TIP3    H242612   6.207   4.929   5.861  0.3440 -0.1486 -0.6541
 7017TIP3   OH242613   3.428   0.131   6.011 -0.2574  0.0708  0.3098
 7017TIP3    H142614   3.473   0.174   6.084 -0.4529 -1.2209  1.2173
 7017TIP3    H242615   3.488   0.061   5.984 -0.0669  0.6983 -0.9589
 7018TIP3   OH242616   6.331   5.632   7.077 -0.1328  0.2259  0.5317
 7018TIP3    H142617   6.301   5.641   6.987  0.8319 -0.5884  0.1107
 7018TIP3    H242618   6.409   5.686   7.082  0.2350 -0.3100  0.6643
 7019TIP3   OH242619   1.229   4.691   0.331 -0.1539 -0.2394 -0.1825
 7019TIP3    H142620   1.309   4.647   0.359 -0.7606 -1.7621 -0.7519
 7019TIP3    H242621   1.215   4.660   0.241 -0.5156  1.2843 -0.7013
 7020TIP3   OH242622   0.158   6.078   7.826  0.1857 -0.4653 -0.4290
 7020TIP3    H142623   0.165   6.057   7.733  2.5773 -4.8461  0.4697
 7020TIP3    H242624   0.079   6.032   7.855 -0.4397  0.7219 -0.1779
 7021TIP3   OH242625   4.347   6.289   8.112 -0.0586  0.1118 -0.0507
 7021TIP3    H142626   4.331   6.289   8.018 -0.5722  0.5710  0.0334
 7021TIP3    H242627   4.386   6.374   8.130 -2.1443  1.0085  0.4959
 7022TIP3   OH242628   0.073   2.134   2.307  0.5147 -0.5176  0.0649
 7022TIP3    H142629   0.118   2.063   2.353 -2.5315 -2.0413  0.9421
 7022TIP3    H242630   0.107   2.213   2.349  1.2047 -1.6433  1.7938
 7023TIP3   OH242631   1.440   5.763   0.368  0.3512  0.3407 -0.5349
 7023TIP3    H142632   1.403   5.690   0.417  0.5255  0.2242 -0.5764
 7023TIP3    H242633   1.533   5.744   0.363  0.2733  0.1266 -1.2953
 7024TIP3   OH242634   3.772   4.772   2.060 -0.4309  0.3651  0.5628
 7024TIP3    H142635   3.812   4.704   2.114 -0.0802  0.0881 -0.0365
 7024TIP3    H242636   3.804   4.854   2.097  0.7146  0.1431  0.0784
 7025TIP3   OH242637   4.474   6.830   7.986 -0.4671 -0.4396  0.2821
 7025TIP3    H142638   4.513   6.917   7.984  0.5817 -0.8860 -1.2123
 7025TIP3    H242639   4.403   6.836   8.050 -0.7167  1.6204 -0.1169
 7026TIP3   OH242640   3.434   0.499   0.720  0.0067  0.1133  0.2346
 7026TIP3    H142641   3.503   0.540   0.772  2.5132 -0.7528 -2.1545
 7026TIP3    H242642   3.418   0.415   0.763 -0.2670  0.7188  1.3389
 7027TIP3   OH242643   4.254   0.832   0.577 -0.0501 -0.7776  0.0714
 7027TIP3    H142644   4.328   0.783   0.614  0.3536  0.1587  0.5260
 7027TIP3    H242645   4.272   0.836   0.484  1.6057  1.2755  0.4288
 7028TIP3   OH242646   2.507   0.599   0.827 -0.1861  0.2470 -0.2755
 7028TIP3    H142647   2.500   0.654   0.749 -0.0746 -0.4104 -0.7531
 7028TIP3    H242648   2.547   0.656   0.893 -1.2993  1.1494 -0.3486
 7029TIP3   OH242649   1.767   0.727   7.590  0.5867 -0.5331 -0.9643
 7029TIP3    H142650   1.815   0.672   7.529  1.1581 -0.3217 -0.7116
 7029TIP3    H242651   1.798   0.816   7.572  0.4061 -0.4129 -0.6968
 7030TIP3   OH242652   0.906   6.465   0.331 -0.1511 -0.1620  0.6077
 7030TIP3    H142653   0.998   6.488   0.342 -0.4816  1.3013  0.5659
 7030TIP3    H242654   0.860   6.517   0.397 -1.4013  2.9197 -2.3987
 7031TIP3   OH242655   5.512   3.062   7.723 -1.0133 -0.7294 -0.3186
 7031TIP3    H142656   5.501   3.054   7.628  1.3856  1.1385 -0.8585
 7031TIP3    H242657   5.512   3.157   7.739  1.4083 -0.9012  1.0998
 7032TIP3   OH242658   0.890   2.609   0.178 -0.2252 -0.3001  0.7926
 7032TIP3    H142659   0.817   2.585   0.235 -2.5482 -0.4946 -2.0604
 7032TIP3    H242660   0.874   2.701   0.156  0.6134 -0.2415  0.3779
 7033TIP3   OH242661   3.746   2.693   7.375 -0.3408  0.3430  0.7716
 7033TIP3    H142662   3.781   2.773   7.415 -1.4649  0.4895  1.5176
 7033TIP3    H242663   3.739   2.714   7.282  0.8050  0.5682  0.7225
 7034TIP3   OH242664   3.607   2.657   1.507 -0.1374  0.1462 -0.8411
 7034TIP3    H142665   3.607   2.570   1.467 -1.3286 -0.2080 -0.1285
 7034TIP3    H242666   3.699   2.682   1.510  0.3693 -1.6180  0.0244
 7035TIP3   OH242667   5.082   6.798   8.001  0.7197  0.1591  0.0647
 7035TIP3    H142668   5.075   6.754   8.085 -1.5997 -0.8988 -0.5719
 7035TIP3    H242669   5.049   6.734   7.938  0.9991  1.4344 -1.4443
 7036TIP3   OH242670   6.347   6.303   6.719  0.7622 -0.6415 -0.8330
 7036TIP3    H142671   6.374   6.335   6.633 -1.7981 -0.6951 -1.7351
 7036TIP3    H242672   6.328   6.383   6.769 -0.2925 -0.6486 -1.2163
 7037TIP3   OH242673   3.197   2.880   1.798  0.4058  0.3899  0.6206
 7037TIP3    H142674   3.194   2.961   1.849 -0.0799  0.0605  1.1302
 7037TIP3    H242675   3.290   2.868   1.778  0.2146  2.8805 -2.4470
 7038TIP3   OH242676   6.902   4.227   8.149 -0.1276  0.3425  0.3019
 7038TIP3    H142677   6.848   4.238   8.227  0.3394  1.2310  0.5115
 7038TIP3    H242678   6.983   4.187   8.181 -0.6945 -1.1241 -0.0331
 7039TIP3   OH242679   4.091   0.283   0.330  0.0112 -0.2872  0.2128
 7039TIP3    H142680   4.064   0.205   0.377 -0.9490 -0.3600 -0.4245
 7039TIP3    H242681   4.027   0.350   0.355 -1.1110 -0.5791 -1.6497
 7040TIP3   OH242682   0.553   5.473   7.484  0.0370  0.2236  0.3355
 7040TIP3    H142683   0.579   5.565   7.493  0.4407  0.0716  0.7529
 7040TIP3    H242684   0.635   5.427   7.463 -0.0413 -0.1433  0.8343
 7041TIP3   OH242685   6.629   0.865   8.082 -0.3308 -0.4113  0.2040
 7041TIP3    H142686   6.610   0.857   8.175  3.2657  1.0349  1.2694
 7041TIP3    H242687   6.664   0.954   8.073 -2.0773  0.1012 -2.9278
 7042TIP3   OH242688   2.452   0.826   7.408  0.0944  0.0324  0.0153
 7042TIP3    H142689   2.380   0.887   7.423 -0.9891 -0.8770 -1.2433
 7042TIP3    H242690   2.500   0.864   7.334 -0.6881 -0.6945 -0.8885
 7043TIP3   OH242691   1.714   5.518   5.596 -0.3552  0.7628  0.1529
 7043TIP3    H142692   1.736   5.427   5.610 -1.6910  0.2508 -0.8199
 7043TIP3    H242693   1.637   5.533   5.650 -0.6612  1.0545 -0.3523
 7044TIP3   OH242694   3.656   3.165   8.338  0.2718 -0.4145  0.4034
 7044TIP3    H142695   3.624   3.085   8.296  0.0762 -0.6183  0.9257
 7044TIP3    H242696   3.657   3.144   8.431  0.3798  0.1398  0.5319
 7045TIP3   OH242697   5.402   4.535   7.841  0.2844  0.0359 -0.6037
 7045TIP3    H142698   5.307   4.540   7.842  0.2996  0.9073 -1.8329
 7045TIP3    H242699   5.429   4.587   7.918 -0.2021  1.2187 -1.2124
 7046TIP3   OH242700   0.444   5.201   8.388  0.4908 -0.5203  0.2327
 7046TIP3    H142701   0.405   5.287   8.405  1.2303 -0.1074 -0.1136
 7046TIP3    H242702   0.431   5.152   8.469 -0.2065 -0.1887  0.3310
 7047TIP3   OH242703   3.931   0.486   1.003 -0.3645 -0.9195  0.3871
 7047TIP3    H142704   3.887   0.502   1.087 -3.0189 -0.2207 -1.0309
 7047TIP3    H242705   3.995   0.556   0.995  0.5881 -1.5306  2.2190
 7048TIP3   OH242706   5.091   2.705   7.175 -0.3845 -0.1763 -0.3862
 7048TIP3    H142707   5.045   2.747   7.103  0.1444 -2.8996 -2.4751
 7048TIP3    H242708   5.024   2.695   7.243 -1.4944  0.5183 -1.3370
 7049TIP3   OH242709   4.064   1.978   6.416 -0.2408  0.8664 -0.3675
 7049TIP3    H142710   3.976   2.005   6.392 -0.0470  2.3160  0.4113
 7049TIP3    H242711   4.120   2.052   6.390  0.6008  0.4104  0.0852
 7050TIP3   OH242712   1.962   5.005   7.202 -0.2236 -0.5593 -0.2708
 7050TIP3    H142713   1.934   4.915   7.214  1.7502 -1.3703 -1.1727
 7050TIP3    H242714   1.924   5.031   7.118 -0.5067 -0.6799 -0.1794
 7051TIP3   OH242715   6.278   2.675   6.922  0.5095 -0.3170  0.6839
 7051TIP3    H142716   6.308   2.710   7.005  0.2697  0.2438  0.5377
 7051TIP3    H242717   6.358   2.658   6.872  0.7688 -2.4625  1.7218
 7052TIP3   OH242718   5.617   0.127   5.962  0.5365  0.1224 -1.0318
 7052TIP3    H142719   5.538   0.148   6.012 -0.4631 -1.7963 -1.7034
 7052TIP3    H242720   5.597   0.157   5.873  1.7499  2.2242 -0.6634
 7053TIP3   OH242721   5.641   2.945   0.640  0.2527  0.5413 -0.5408
 7053TIP3    H142722   5.697   3.020   0.616 -0.3938  1.0112 -0.6036
 7053TIP3    H242723   5.555   2.983   0.656  0.5200  0.2019  2.1745
 7054TIP3   OH242724   4.410   6.422   6.971 -0.1678  0.0176  0.4546
 7054TIP3    H142725   4.391   6.349   7.030  1.0764 -1.5268 -0.9590
 7054TIP3    H242726   4.501   6.408   6.944 -0.0458  1.8584 -0.2227
 7055TIP3   OH242727   0.939   6.546   7.966  0.3815 -0.1691  0.0420
 7055TIP3    H142728   0.975   6.596   8.039  1.2123 -0.1930 -0.3450
 7055TIP3    H242729   0.996   6.470   7.958 -1.0459 -1.3842  0.8232
 7056TIP3   OH242730   4.752   6.660   8.262 -0.0717 -0.3352 -0.3879
 7056TIP3    H142731   4.829   6.705   8.226  0.7676 -2.1486 -0.9332
 7056TIP3    H242732   4.740   6.700   8.349 -1.7968  3.7524 -2.2112
 7057TIP3   OH242733   0.646   4.990   6.411  0.0762  0.1124 -0.2581
 7057TIP3    H142734   0.704   4.999   6.336  1.1605  1.6793  0.7072
 7057TIP3    H242735   0.558   4.997   6.375  0.5393 -0.0496 -1.4698
 7058TIP3   OH242736   4.313   2.405   2.140  0.7431 -0.8170  0.6142
 7058TIP3    H142737   4.263   2.328   2.112  3.1631 -1.5638 -2.1433
 7058TIP3    H242738   4.390   2.405   2.084  1.2566  3.2128  1.0220
 7059TIP3   OH242739   4.140   6.854   1.949  0.3655  0.3503  0.1020
 7059TIP3    H142740   4.089   6.929   1.918 -0.7506  0.1827  1.4272
 7059TIP3    H242741   4.183   6.885   2.028 -0.4137 -0.4890  0.8820
 7060TIP3   OH242742   5.307   3.239   7.258  0.5416  0.3967  0.2911
 7060TIP3    H142743   5.239   3.208   7.317 -0.4155  0.6718 -0.6332
 7060TIP3    H242744   5.374   3.171   7.260 -0.6859 -0.8604 -0.3084
 7061TIP3   OH242745   2.567   5.428   0.846  0.6706  0.5563  0.2117
 7061TIP3    H142746   2.632   5.361   0.866  0.8874  1.1277  1.4842
 7061TIP3    H242747   2.488   5.379   0.823  0.4955 -0.1835  2.1822
 7062TIP3   OH242748   4.314   2.960   1.053  0.6004  0.1703  0.3961
 7062TIP3    H142749   4.315   2.875   1.009 -1.0639  0.9638 -1.3367
 7062TIP3    H242750   4.406   2.980   1.069  1.0644 -1.5757  0.1225
 7063TIP3   OH242751   3.112   3.977   1.204  0.0685  0.3062 -0.1249
 7063TIP3    H142752   3.042   4.014   1.258 -0.5190  0.9971 -1.3139
 7063TIP3    H242753   3.089   3.884   1.197 -1.0265  0.6047 -0.8777
 7064TIP3   OH242754   3.652   5.387   7.870  0.3108  0.7143  0.1565
 7064TIP3    H142755   3.654   5.292   7.859  0.9808  0.7182  0.1752
 7064TIP3    H242756   3.564   5.406   7.901 -0.2439  0.2374 -1.0752
 7065TIP3   OH242757   6.744   3.180   7.330  0.2318 -0.1265 -0.4187
 7065TIP3    H142758   6.783   3.098   7.358  0.4233  0.8608  2.4871
 7065TIP3    H242759   6.738   3.233   7.409  0.7959  2.9731 -2.2745
 7066TIP3   OH242760   5.626   5.912   0.804 -0.0031 -0.3545 -0.3119
 7066TIP3    H142761   5.537   5.933   0.833 -0.1726 -0.8406 -0.4637
 7066TIP3    H242762   5.670   5.996   0.798 -0.5390 -0.0848 -0.4951
 7067TIP3   OH242763   2.702   0.190   1.279 -0.0745  0.8772 -0.3324
 7067TIP3    H142764   2.745   0.105   1.272  0.5227  1.0878  0.6344
 7067TIP3    H242765   2.738   0.229   1.359  0.3882  2.4523 -1.2689
 7068TIP3   OH242766   0.769   6.769   7.278  0.0150 -0.0987  0.1199
 7068TIP3    H142767   0.826   6.843   7.297 -0.2898  0.2698 -0.3835
 7068TIP3    H242768   0.768   6.762   7.183  0.6662 -1.2542  0.1864
 7069TIP3   OH242769   3.496   6.822   7.652 -0.2991  0.3832 -0.1219
 7069TIP3    H142770   3.506   6.739   7.698 -2.1145 -0.2949 -0.8637
 7069TIP3    H242771   3.526   6.804   7.563 -0.7908  0.4772 -0.3117
 7070TIP3   OH242772   0.028   5.897   1.490 -0.5129  0.4882  0.0049
 7070TIP3    H142773  -0.061   5.932   1.480 -1.0484 -1.1402 -1.3510
 7070TIP3    H242774   0.018   5.823   1.550 -0.3312 -0.5009 -1.1493
 7071TIP3   OH242775   3.522   6.933   6.267  0.1216  0.0702 -0.0026
 7071TIP3    H142776   3.462   6.865   6.298  1.2054 -0.5523  0.8066
 7071TIP3    H242777   3.475   7.015   6.284 -0.6418 -0.4113  0.2932
 7072TIP3   OH242778   4.388   2.621   1.603  1.0778  0.3988  0.0625
 7072TIP3    H142779   4.331   2.683   1.648  0.2640  0.9049 -1.5829
 7072TIP3    H242780   4.429   2.672   1.533  1.3697 -0.6232 -0.5340
 7073TIP3   OH242781   5.213   3.285   7.514 -0.3795 -0.4721 -0.5460
 7073TIP3    H142782   5.134   3.232   7.521  0.3323 -2.2897 -3.7660
 7073TIP3    H242783   5.275   3.244   7.574 -0.9052 -1.1501 -0.4605
 7074TIP3   OH242784   4.529   6.770   0.870  0.4391  0.2709 -0.4331
 7074TIP3    H142785   4.439   6.797   0.851 -0.2432 -0.8325  1.0156
 7074TIP3    H242786   4.534   6.680   0.839  0.5405 -0.1912  0.8618
 7075TIP3   OH242787   3.583   2.293   7.657  0.1745 -0.1418 -0.1275
 7075TIP3    H142788   3.574   2.264   7.567  0.2392  0.7288 -0.4261
 7075TIP3    H242789   3.677   2.307   7.669  0.2689 -1.1453  0.3685
 7076TIP3   OH242790   4.456   2.428   6.176  0.0182 -0.1715  0.1968
 7076TIP3    H142791   4.452   2.449   6.083  0.6326 -0.4935  0.0967
 7076TIP3    H242792   4.381   2.474   6.214 -0.1678  0.0534 -0.4365
 7077TIP3   OH242793   0.451   3.120   7.924 -0.1344  0.2847 -0.0094
 7077TIP3    H142794   0.505   3.112   8.003 -1.2410 -0.2989  0.7021
 7077TIP3    H242795   0.506   3.170   7.863  3.1279 -3.9337 -1.0269
 7078TIP3   OH242796   5.205   5.959   1.502 -0.9195  0.3677  0.3678
 7078TIP3    H142797   5.271   6.012   1.457 -0.6346 -0.0184  0.3271
 7078TIP3    H242798   5.126   6.013   1.500 -1.4100 -0.2943 -2.1015
 7079TIP3   OH242799   2.953   5.172   1.270 -0.0611  0.0891  0.4193
 7079TIP3    H142800   2.991   5.144   1.353 -1.7438 -1.1678  0.8117
 7079TIP3    H242801   2.984   5.107   1.207 -1.1786 -0.7066  0.6645
 7080TIP3   OH242802   0.792   1.063   1.667 -0.3249 -0.0077  0.4062
 7080TIP3    H142803   0.883   1.031   1.668  0.4300  2.0038  1.3630
 7080TIP3    H242804   0.765   1.059   1.759 -0.7461  0.6249  0.3152
 7081TIP3   OH242805   2.933   4.760   2.106 -0.1220 -0.3960  0.2417
 7081TIP3    H142806   2.903   4.717   2.026  1.7148  1.8067 -1.7822
 7081TIP3    H242807   2.989   4.696   2.148 -0.3545 -1.2810 -0.7467
 7082TIP3   OH242808   5.658   6.650   7.008  0.3420 -0.3380  0.0126
 7082TIP3    H142809   5.679   6.560   7.030  0.2981 -0.5304 -0.7245
 7082TIP3    H242810   5.672   6.656   6.913 -0.8503  0.0931 -0.1475
 7083TIP3   OH242811   2.924   1.730   1.379 -0.4604 -0.2623 -0.4718
 7083TIP3    H142812   2.862   1.657   1.389  0.1408 -0.7419 -0.2102
 7083TIP3    H242813   2.926   1.772   1.465  0.9008 -1.3262  0.0483
 7084TIP3   OH242814   5.393   4.789   2.286 -0.2978  0.0172  0.2191
 7084TIP3    H142815   5.328   4.723   2.312 -1.0985  0.8065  0.2527
 7084TIP3    H242816   5.460   4.738   2.241 -2.3724 -0.5246 -2.5366
 7085TIP3   OH242817   5.018   4.352   6.068  0.1499 -0.0624 -0.0638
 7085TIP3    H142818   5.084   4.289   6.096 -0.7962 -1.2112 -0.3281
 7085TIP3    H242819   4.936   4.318   6.104 -0.5439  0.4141 -1.1505
 7086TIP3   OH242820   2.354   6.626   6.095  0.1962 -0.2650  0.4219
 7086TIP3    H142821   2.440   6.642   6.057 -0.2356 -0.6120 -0.7660
 7086TIP3    H242822   2.360   6.539   6.135  0.1231 -0.7506 -0.5785
 7087TIP3   OH242823   2.434   2.322   7.206 -0.1995  0.0999 -0.0326
 7087TIP3    H142824   2.403   2.250   7.150 -0.1548 -0.1214  0.2274
 7087TIP3    H242825   2.427   2.288   7.295  2.0536 -0.4556 -0.0194
 7088TIP3   OH242826   3.381   2.237   1.296  0.1842  0.8753  0.5576
 7088TIP3    H142827   3.291   2.221   1.325 -0.0713 -0.3302 -0.7705
 7088TIP3    H242828   3.371   2.288   1.215  0.6671  0.4889  0.2493
 7089TIP3   OH242829   3.651   1.485   7.019 -0.2707 -0.2939  0.0271
 7089TIP3    H142830   3.656   1.436   6.936  0.7617  0.4527 -0.3776
 7089TIP3    H242831   3.734   1.464   7.063 -0.2999  0.2408  0.3336
 7090TIP3   OH242832   4.497   2.207   0.966  0.0363  0.2014 -0.1342
 7090TIP3    H142833   4.578   2.201   1.017 -0.0305 -0.8308 -0.1296
 7090TIP3    H242834   4.427   2.196   1.031 -0.0723 -0.0662 -0.2918
 7091TIP3   OH242835   6.320   0.504   7.845 -0.1098  0.3264 -0.2628
 7091TIP3    H142836   6.384   0.447   7.888 -1.6629  0.7912  2.9521
 7091TIP3    H242837   6.267   0.444   7.793 -0.0394 -0.8205  0.9044
 7092TIP3   OH242838   0.577   6.620   1.786 -0.0241  0.2493  0.0863
 7092TIP3    H142839   0.557   6.554   1.720 -0.4050 -0.9438  1.3533
 7092TIP3    H242840   0.499   6.675   1.790  0.5213  1.2023 -1.4008
 7093TIP3   OH242841   4.395   3.161   7.630 -0.2253  0.1362 -0.1113
 7093TIP3    H142842   4.322   3.191   7.684  0.4658  0.8417  0.4471
 7093TIP3    H242843   4.365   3.173   7.540 -0.2839  1.7485  0.1028
 7094TIP3   OH242844   0.944   2.018   1.341  0.1865 -0.1144 -0.0511
 7094TIP3    H142845   0.948   1.930   1.303  0.2592 -0.4007  0.6002
 7094TIP3    H242846   0.949   2.003   1.436  0.7865  0.6238  0.0407
   7.00104   7.00104   8.40781
